default_name
 33881
  39.3438577  38.7649953  38.3554589  37.9028577  38.6769953  38.2724589
  33.9248577  35.3269953  36.0494589  37.4488577  38.3899953  36.7604589
  36.5778577  37.1149953  36.4794589  33.4668577  37.0899953  34.9774589
  37.0528577  35.8689953  37.0844589  39.5428577  35.1319953  37.7964589
  38.2038577  41.3909953  37.1054589  38.5058577  35.4819953  36.6944589
  39.5028577  42.1699953  38.6144589  39.7108577  36.2599953  38.7314589
  36.9308577  33.2559953  38.9784589  40.1568577  37.5899953  38.0184589
  37.9418577  34.3909953  40.5364589  40.0058577  39.9459953  37.7534589
  39.2128577  41.3089953  37.8284589  35.1038577  37.3329953  36.6974589
  34.0448577  36.5299953  35.8824589  39.1808577  33.8819953  38.4954589
  37.9268577  33.8759953  39.3974589  38.7158577  36.3819953  39.1774589
  40.5078577  35.9849953  39.4334589  40.3008577  37.4069953  36.9464589
  41.1728577  37.7039953  38.4154589  39.9988577  39.7259953  36.6784589
  41.0098577  40.0739953  38.1754589  34.8238577  37.1559953  37.7424589
  34.8178577  38.3769953  36.5214589  40.0378577  33.5739953  39.1074589
  38.9918577  33.2269953  37.6364589  37.4988577  37.8999953  38.9324589
  37.4498577  39.5679953  38.7244589  38.3218577  38.3209953  36.0994589
  36.9298577  39.3109953  36.4684589  36.4218577  35.0159953  36.8094589
  37.0888577  36.0139953  38.1714589  38.7988577  36.3589953  36.1034589
  38.4078577  34.6699953  35.9634589  36.5358577  36.5109953  32.7894589
  33.5542040  32.4072600  42.4583490  68.0344280  65.0766690  63.3459910
  67.9538330  64.1621300  63.0751620  67.6208700  65.5733760  62.6399620
  66.1662320  66.8545710  65.2269180  65.3904420  66.3746150  65.5167750
  66.8175250  66.1751360  65.0525340  60.1828150  67.1665520  66.1044940
  59.3513030  66.9114230  66.5041450  60.7909130  67.2376290  66.8402860
  70.1869750  71.2605900  64.0068310  69.7251280  70.4893140  64.3355480
  70.9995300  71.2871970  64.5120760  60.1629410  71.2005610  66.3002960
  60.4657450  70.3103350  66.1213180  60.9073000  71.7575830  66.0725210
  58.5920100  62.1267410  59.8887330  57.7036800  62.4683380  59.7867210
  58.8761290  61.9267730  58.9968160  56.5553110  64.7273060  65.7727030
  57.1269220  63.9595260  65.7730670  56.5554650  65.0261820  64.8633640
  65.6071310  69.5302900  65.2339340  65.5379590  68.5892840  65.0728470
  66.3691170  69.6204310  65.8061910  57.7977980  60.1357420  67.5595960
  57.6180820  59.2383170  67.8398720  57.3958060  60.6829290  68.2342910
  66.6376480  62.3373280  65.4608270  67.0141300  61.4645160  65.3481940
  66.5395990  62.6731980  64.5698710  60.7681490  60.7098910  60.9225710
  60.8748240  61.6102640  61.2294470  59.8573850  60.6616880  60.6320360
  70.4200600  59.8323720  62.3936610  71.2410220  59.3420290  62.4362090
  70.4534680  60.4221380  63.1468450  58.4164650  62.6317920  66.1678300
  59.0974760  62.8956290  66.7865700  58.1012700  61.7918790  66.5016310
  62.6089220  63.6785280  65.2550890  63.1167440  64.1766250  65.8955910
  63.1402460  62.9020480  65.0790250  60.8925320  58.3183840  69.5214310
  60.8943760  58.8356230  68.7160210  60.0629630  57.8414020  69.4984240
  67.2796410  68.4303150  61.0204210  66.6613680  68.8952600  60.4566930
  67.7919660  69.1230630  61.4373720  62.1428170  67.9579020  67.6987810
  61.8097550  68.5847940  68.3408880  62.3194850  68.4840900  66.9189480
  70.6562080  61.7724100  65.1664150  69.9517650  62.0608990  65.7467260
  71.0174240  62.5824210  64.8063710  60.5740650  60.0293800  67.5284760
  60.9157460  60.8735850  67.2338630  59.6356460  60.1777540  67.6450100
  61.3547270  69.9259820  69.5136990  61.9721270  70.6010900  69.2321440
  60.4940390  70.3347800  69.4224490  56.6479610  69.1159680  58.3943840
  56.2707590  69.6046780  57.6628740  56.9052680  69.7884960  59.0250370
  64.2568540  57.5176070  63.8529350  64.5643520  56.9622960  63.1364850
  63.3269240  57.6520530  63.6702340  71.1029020  69.9559580  61.2326980
  70.9925350  69.0133910  61.3576400  71.0997270  70.3175220  62.1189740
  69.2069040  68.1373200  67.4719420  69.6237830  67.9233310  66.6372880
  69.9308860  68.3945990  68.0428040  66.6449300  65.5824900  60.5889470
  65.7178580  65.5162280  60.8177940  66.7974120  66.5205030  60.4744710
  66.6318380  61.8541900  57.5856630  65.6922050  62.0155860  57.6709090
  66.9501640  62.5727580  57.0392620  70.6746590  67.1445200  61.0924720
  70.0559010  66.8064750  60.4451020  70.6571040  66.5004960  61.8003910
  70.1173150  63.3229740  68.5090530  69.7044330  64.1483450  68.7630520
  69.3849100  62.7374780  68.3166890  62.2505940  66.1089640  63.3709200
  61.8462940  65.3966890  62.8755100  62.3369060  65.7642880  64.2597240
  62.7187640  69.7957200  65.5348410  62.4215930  69.1902670  64.8556190
  63.6687460  69.8334510  65.4237770  60.9634560  62.8832850  67.1508240
  61.5149150  62.9928190  66.3761490  61.4778070  63.2570450  67.8663470
  68.8511290  66.3832010  58.0997470  69.2904570  65.5454440  57.9535290
  69.5639710  67.0161410  58.1861610  60.6377290  66.4052210  70.7613580
  60.4985060  67.2775010  71.1300980  59.7558650  66.0625020  70.6161520
  66.9606670  71.3228080  62.0678710  67.4002580  72.0652410  61.6534100
  66.8993560  71.5654650  62.9917670  58.9510570  65.0034620  60.8715850
  58.8308170  65.7296710  60.2597120  58.6411460  64.2337530  60.3943760
  56.5895940  68.1749760  66.6784490  56.6676360  68.3098530  65.7340210
  57.2037620  67.4665650  66.8712610  57.8343570  69.8749950  63.0890670
  57.4271650  70.0164540  62.2344270  58.7256580  69.5910110  62.8861880
  69.3302980  71.8184760  57.9839720  68.6368140  71.8162050  57.3242000
  70.0725840  71.3944080  57.5533890  56.6455460  69.2163930  69.2178950
  56.8086500  68.7469290  68.3998320  57.1107910  68.7087490  69.8827790
  61.4174230  58.3469690  64.2539520  60.9742380  59.1279230  63.9224040
  61.9759220  58.6699580  64.9610460  65.7044040  61.2138210  69.8574840
  65.2423410  61.4221230  70.6694780  65.3022150  60.3997560  69.5545510
  70.7048550  62.4347160  70.9871500  69.8542140  62.1352910  71.3080570
  70.5450340  62.6789170  70.0755320  64.5333050  57.9680390  59.1345350
  63.9087230  57.9640260  59.8598660  64.4463170  57.1011350  58.7381320
  63.4550130  58.8917020  66.1129120  63.7522460  59.7979850  66.0321140
  64.0035690  58.4035800  65.4988690  61.2088450  63.4703260  61.9820770
  60.9829370  63.2540430  62.8867390  60.4280980  63.9031720  61.6366740
  68.4386210  63.4766630  60.5811420  67.8395100  64.2002430  60.3975040
  68.9865820  63.4143410  59.7987870  67.0451080  62.1130170  62.6114700
  67.4380650  62.4302370  61.7983390  67.4067930  61.2342050  62.7259220
  58.7798200  60.7802510  70.8014820  58.3861590  61.6277720  71.0087600
  58.0916600  60.1428880  70.9923460  56.0815250  58.7030970  64.8344900
  55.7928300  59.2733830  65.5469880  56.8261010  58.2235420  65.1976130
  56.2685480  62.6451090  56.0447620  56.1860150  63.5881850  56.1862610
  55.9168540  62.5026000  55.1659970  67.6306220  64.7035920  66.7065480
  66.8987340  65.2122730  67.0555580  67.2330560  63.8865900  66.4054260
  64.0683610  61.3790120  65.1117970  64.0719670  60.9380070  64.2622510
  64.9634730  61.7007450  65.2189790  59.9185990  61.2616610  64.0712180
  59.5786040  61.7391840  64.8279230  59.1563310  60.8081730  63.7113280
  64.1303760  62.3802200  58.1024730  64.2516580  62.3388680  59.0510550
  63.7452270  63.2426350  57.9471460  68.0932130  60.1569600  66.1188420
  68.1104870  60.6078250  66.9630270  67.8447710  59.2575240  66.3321860
  63.1425260  64.6903340  57.5008030  62.5742160  64.2421590  56.8743940
  63.8514260  65.0496120  56.9673180  58.2194440  68.5915360  71.3774760
  57.8349230  67.9509030  71.9757720  58.5306630  69.2951480  71.9469490
  64.3691580  65.4391900  66.8583380  64.7361710  64.9650470  67.6044720
  64.1796640  66.3133470  67.1991720  57.2332070  60.1835590  62.9876850
  56.9478990  59.8191260  63.8255470  57.1710930  59.4516050  62.3739990
  62.1590950  64.4800540  69.1767590  61.8548020  65.3592520  69.4017950
  63.1137410  64.5400330  69.2125030  60.6872740  68.6861530  59.7734440
  59.9135000  68.1459150  59.6133160  61.4167370  68.1668140  59.4352200
  71.4460720  67.6826890  65.5660830  72.1659840  68.1782180  65.1756940
  71.2442540  67.0044780  64.9214700  66.9070660  59.0764850  59.7090220
  66.0935270  58.5778020  59.6335530  66.7132610  59.9163100  59.2926570
  66.8279520  67.7535950  71.4529830  66.7616830  66.8331620  71.1987420
  66.1984660  67.8511390  72.1674470  69.6219050  63.4484500  58.0052380
  70.5098670  63.7601730  57.8303720  69.5924140  62.5756750  57.6132960
  60.7310140  68.3541910  63.4113250  61.2488810  67.5510170  63.3570140
  60.2794160  68.2921050  64.2530080  65.6179640  69.6208190  58.6840550
  65.9595340  70.3650420  58.1883870  64.7892350  69.9339310  59.0465380
  58.2154680  65.3203280  70.3238950  57.8569620  65.9857130  70.9112290
  57.9209240  64.4886830  70.6951570  66.7596250  70.5756520  71.2033630
  66.7740790  69.6437480  70.9852540  66.0521350  70.6616280  71.8423400
  68.5007050  68.9424030  64.0486060  68.8530870  68.3452160  63.3887430
  67.6169380  68.6168260  64.2194310  64.5870330  69.7021720  61.4556470
  65.2741460  70.2490930  61.8364060  63.8002750  70.2462450  61.4906080
  56.7262730  65.3194540  56.9473550  57.5957580  65.6019340  57.2309470
  56.2353050  66.1330410  56.8322360  63.8897540  66.7067750  61.0681830
  64.3460320  67.5173000  61.2942020  63.5385750  66.3890890  61.9000320
  66.1930150  72.2174090  68.2974130  66.8372370  72.4233470  68.9747550
  66.5559590  71.4562490  67.8444980  59.7909320  57.0505400  61.5404350
  59.6623950  57.0423300  62.4889270  58.9671340  57.3888490  61.1895360
  67.4662230  70.2206440  67.0151580  68.1084460  69.5199600  67.1283750
  67.9911580  71.0004880  66.8348470  71.3117950  70.5055060  56.7390720
  71.0855530  69.7885500  57.3315360  70.9214150  70.2567500  55.9012470
  69.2399850  71.0201340  70.2187640  69.5756090  71.6068030  70.8965560
  68.3200190  70.8894050  70.4485430  56.7903250  58.8096520  71.0011050
  56.0761770  59.0093440  71.6063660  57.2098290  58.0336090  71.3725850
  70.8934200  68.4227000  58.4004880  70.6055900  68.8839690  59.1882760
  71.6886370  67.9624770  58.6689100  57.0775840  72.7976780  71.9877580
  57.1866960  71.8571520  71.8472970  56.4256400  73.0631530  71.3391310
  63.1102600  71.9153120  58.3308850  63.1012700  72.6482810  57.7153360
  62.1900960  71.6684700  58.4235810  58.7109240  67.1368010  59.0755610
  58.1037190  67.8766910  59.0850910  59.1858590  67.2267370  58.2493810
  68.2842030  61.3018830  68.7512500  68.6522850  60.4814040  69.0792070
  67.4240230  61.3620720  69.1668150  71.6504060  60.2575770  59.5600060
  71.0217220  60.3621440  58.8458290  71.1555980  60.4772550  60.3493940
  66.0962200  71.9781360  56.9934040  66.1974180  71.7745350  56.0636020
  65.1963940  71.7239640  57.1981820  63.6188090  62.5361720  60.9757940
  62.9104240  63.0048060  61.4171550  63.9032570  61.8783730  61.6103130
  65.2444020  63.9558420  68.9750470  65.7429270  64.4304240  69.6402320
  65.3866970  63.0321940  69.1820500  67.6503520  59.2612380  62.4153730
  67.5271300  59.2798510  61.4663240  68.5988080  59.3091320  62.5352130
  61.8223110  60.8446800  58.3508650  62.6713640  61.2816950  58.2848840
  61.4554380  61.1567060  59.1780710  70.7432890  65.4159560  63.2640220
  69.8023030  65.4309790  63.4387910  71.0576960  64.6295520  63.7100520
  60.7214530  67.0979160  56.8244180  61.4877800  66.9860520  57.3869610
  60.7989220  66.4017130  56.1720950  59.4161290  64.5304230  57.5077070
  59.4964880  63.5831740  57.6194470  60.3081040  64.8611110  57.6137730
  57.1021480  70.7473190  60.4853120  56.1761260  70.9894330  60.4758530
  57.5677910  71.5747450  60.3637870  63.8455710  69.0733340  56.2979530
  63.7406350  68.4585690  57.0240910  63.6779930  68.5499230  55.5142540
  67.0858440  68.1353370  56.9021520  66.5368540  68.5822670  57.5464260
  67.7077700  67.6302620  57.4259190  62.7533560  67.0944290  58.7986820
  63.1749980  66.9284160  59.6418210  62.8784400  66.2844520  58.3041960
  60.9160980  63.0740840  71.6057800  60.3857440  62.5831790  70.9781140
  61.5849050  63.5025040  71.0715730  65.2661200  66.1181900  56.0463920
  65.7866860  65.4030920  55.6805070  65.9129600  66.7567770  56.3464430
  69.8139040  67.5410300  71.3698990  70.2280060  67.6955380  72.2189410
  68.8790040  67.6665520  71.5324770  61.4033280  60.0403210  71.6855090
  61.3090150  59.4223960  70.9605960  60.8230670  60.7669500  71.4585000
  64.1694720  58.5976450  68.7182480  63.7212020  58.6200710  67.8728030
  63.5359920  58.1995470  69.3152780  64.5754270  67.4930780  69.3394920
  64.9942380  68.3363510  69.1671160  63.6562900  67.6302820  69.1101700
  66.9118170  65.2246960  70.7232760  67.0314380  64.6288100  71.4627600
  67.7712170  65.2616650  70.3034060  69.2506070  65.7784150  69.2995270
  68.7241290  66.3026770  68.6960410  69.5937410  66.4111540  69.9305000
  61.6492460  63.1677520  55.7444980  61.4481520  62.3044880  56.1058320
  61.4784510  63.0810880  54.8066580  69.1280770  57.9785750  58.2731860
  69.4083060  57.1353650  58.6291280  68.3546500  58.2108860  58.7870610
  60.4475260  60.2678140  55.7322860  60.7501160  60.2745570  54.8242010
  61.1869850  59.9176000  56.2290520  63.6660190  59.2112760  56.7179060
  63.3182190  58.5336750  56.1381510  63.8672960  58.7502270  57.5322450
  59.4705390  69.5720560  56.5652660  59.9080260  70.1150230  57.2210240
  59.9553120  68.7467510  56.5749000  56.6851190  72.3609590  64.0172920
  57.0154200  71.4930650  63.7851560  57.1142190  72.5668110  64.8477880
  61.2813110  70.6918600  61.6774890  60.9808650  70.5683570  62.5778800
  61.1750600  69.8327190  61.2690620  57.0065830  65.7400410  63.1143430
  56.3514670  65.4712050  62.4703130  57.8443780  65.6304890  62.6645410
  71.4955220  69.4549160  69.1408020  70.6815060  69.8846320  69.4033810
  71.9029420  70.0667570  68.5277070  69.9556270  60.5341700  57.3361920
  70.3741150  60.3472680  56.4958580  69.6492330  59.6820750  57.6464850
  58.0441760  66.1252980  67.6546770  58.4114800  66.0380380  68.5342790
  57.4752580  65.3619530  67.5553630  56.2203910  62.9499340  59.0568760
  55.3167990  63.2129540  58.8820420  56.7044530  63.2210510  58.2768720
  58.7631120  62.0064880  56.9663140  59.4722820  61.5848100  56.4810420
  58.0471060  62.0740110  56.3346490  58.4105280  58.0604210  56.0065790
  59.1333410  58.6013150  56.3247010  58.6829800  57.7867630  55.1307330
  58.0997470  57.3110400  65.9088410  58.7473660  56.7607780  65.4683570
  58.5199310  57.5653550  66.7304220  57.8529470  57.4666070  68.6513730
  57.5044290  57.9229890  69.4171910  57.5217170  56.5723200  68.7336160
  63.1599870  72.1945260  68.4176640  62.9191230  72.4619820  67.5307160
  64.1002510  72.3650990  68.4727500  59.2981870  73.5847920  69.9364700
  58.7042190  73.4532620  70.6754740  59.2905710  72.7486060  69.4706800
  68.7436890  56.8780150  68.1394730  67.8696730  57.2115260  67.9367660
  68.6347640  56.4053330  68.9646600  69.6508870  59.0851020  69.5236450
  69.3222230  58.2702780  69.1438180  70.5991170  59.0420830  69.4002140
  58.9294100  70.9506300  68.8872740  58.2028160  70.3311590  68.8198690
  58.9903250  71.3446910  68.0170820  62.5339200  73.1651300  65.6722150
  63.0504220  72.5538660  65.1470410  63.1836580  73.6680080  66.1633160
  66.4911710  57.7949990  67.0787640  65.7083500  58.2695490  67.3584400
  66.1974640  56.8904820  66.9700820  71.0432780  58.4973090  65.1236730
  71.4840870  58.4418190  64.2758330  70.7740370  59.4131100  65.1946910
  57.8352120  58.0997470  59.6001360  58.5931480  58.2126350  59.0265390
  57.3729290  58.9366670  59.5544790  64.3765930  60.2136740  62.5903670
  63.5640440  59.8393630  62.2499550  64.8807570  59.4581820  62.8924860
  68.8790910  56.8779190  63.8286740  69.4820280  57.4499400  64.3035260
  68.1383900  57.4418630  63.6060640  72.0225510  57.2800750  59.1027020
  72.2176140  58.1784200  59.3694450  71.2355380  57.0487830  59.5959970
  58.8186800  72.9613920  59.5419640  58.2934420  73.3421950  58.8381600
  58.7431380  73.5864690  60.2629350  60.2077270  58.6261520  58.1403330
  60.7370030  57.8391320  58.0111280  60.8405590  59.3052710  58.3738860
  62.4015110  58.3636660  61.1948720  61.7717850  57.6623970  61.3618850
  61.8620250  59.1240790  60.9781880  60.5794560  71.0261030  58.4215220
  59.9503440  71.4946130  58.9701050  60.6942390  70.1810250  58.8561410
  68.0344280  65.0766690  44.5716420  67.9538330  64.1621300  44.3008130
  67.6208700  65.5733760  43.8656130  66.1662320  66.8545710  46.4525690
  65.3904420  66.3746150  46.7424260  66.8175250  66.1751360  46.2781850
  60.1828150  67.1665520  47.3301450  59.3513030  66.9114230  47.7297960
  60.7909130  67.2376290  48.0659370  70.1869750  71.2605900  45.2324820
  69.7251280  70.4893140  45.5611990  70.9995300  71.2871970  45.7377270
  60.1629410  71.2005610  47.5259470  60.4657450  70.3103350  47.3469690
  60.9073000  71.7575830  47.2981720  58.5920100  62.1267410  41.1143840
  57.7036800  62.4683380  41.0123720  58.8761290  61.9267730  40.2224670
  56.5553110  64.7273060  46.9983540  57.1269220  63.9595260  46.9987180
  56.5554650  65.0261820  46.0890150  65.6071310  69.5302900  46.4595850
  65.5379590  68.5892840  46.2984980  66.3691170  69.6204310  47.0318420
  57.7977980  60.1357420  48.7852470  57.6180820  59.2383170  49.0655230
  57.3958060  60.6829290  49.4599420  66.6376480  62.3373280  46.6864780
  67.0141300  61.4645160  46.5738450  66.5395990  62.6731980  45.7955220
  60.7681490  60.7098910  42.1482220  60.8748240  61.6102640  42.4550980
  59.8573850  60.6616880  41.8576870  70.4200600  59.8323720  43.6193120
  71.2410220  59.3420290  43.6618600  70.4534680  60.4221380  44.3724960
  58.4164650  62.6317920  47.3934810  59.0974760  62.8956290  48.0122210
  58.1012700  61.7918790  47.7272820  62.6089220  63.6785280  46.4807400
  63.1167440  64.1766250  47.1212420  63.1402460  62.9020480  46.3046760
  60.8925320  58.3183840  50.7470820  60.8943760  58.8356230  49.9416720
  60.0629630  57.8414020  50.7240750  67.2796410  68.4303150  42.2460720
  66.6613680  68.8952600  41.6823440  67.7919660  69.1230630  42.6630230
  62.1428170  67.9579020  48.9244320  61.8097550  68.5847940  49.5665390
  62.3194850  68.4840900  48.1445990  70.6562080  61.7724100  46.3920660
  69.9517650  62.0608990  46.9723770  71.0174240  62.5824210  46.0320220
  60.5740650  60.0293800  48.7541270  60.9157460  60.8735850  48.4595140
  59.6356460  60.1777540  48.8706610  61.3547270  69.9259820  50.7393500
  61.9721270  70.6010900  50.4577950  60.4940390  70.3347800  50.6481000
  56.6479610  69.1159680  39.6200350  56.2707590  69.6046780  38.8885250
  56.9052680  69.7884960  40.2506880  64.2568540  57.5176070  45.0785860
  64.5643520  56.9622960  44.3621360  63.3269240  57.6520530  44.8958850
  71.1029020  69.9559580  42.4583490  70.9925350  69.0133910  42.5832910
  71.0997270  70.3175220  43.3446250  69.2069040  68.1373200  48.6975930
  69.6237830  67.9233310  47.8629390  69.9308860  68.3945990  49.2684550
  66.6449300  65.5824900  41.8145980  65.7178580  65.5162280  42.0434450
  66.7974120  66.5205030  41.7001220  66.6318380  61.8541900  38.8113140
  65.6922050  62.0155860  38.8965600  66.9501640  62.5727580  38.2649130
  70.6746590  67.1445200  42.3181230  70.0559010  66.8064750  41.6707530
  70.6571040  66.5004960  43.0260420  70.1173150  63.3229740  49.7347040
  69.7044330  64.1483450  49.9887030  69.3849100  62.7374780  49.5423400
  62.2505940  66.1089640  44.5965710  61.8462940  65.3966890  44.1011610
  62.3369060  65.7642880  45.4853750  62.7187640  69.7957200  46.7604920
  62.4215930  69.1902670  46.0812700  63.6687460  69.8334510  46.6494280
  60.9634560  62.8832850  48.3764750  61.5149150  62.9928190  47.6018000
  61.4778070  63.2570450  49.0919980  61.8106070  69.5338890  53.4112720
  60.9134600  69.7578860  53.6586120  61.8358940  69.6573830  52.4624120
  68.8511290  66.3832010  39.3253980  69.2904570  65.5454440  39.1791800
  69.5639710  67.0161410  39.4118120  60.6377290  66.4052210  51.9870090
  60.4985060  67.2775010  52.3557490  59.7558650  66.0625020  51.8418030
  66.9606670  71.3228080  43.2935220  67.4002580  72.0652410  42.8790610
  66.8993560  71.5654650  44.2174180  62.4357640  72.3473910  54.1955240
  62.4073070  72.7516860  53.3283670  62.2722610  71.4184270  54.0326840
  58.9510570  65.0034620  42.0972360  58.8308170  65.7296710  41.4853630
  58.6411460  64.2337530  41.6200270  56.5895940  68.1749760  47.9041000
  56.6676360  68.3098530  46.9596720  57.2037620  67.4665650  48.0969120
  57.8343570  69.8749950  44.3147180  57.4271650  70.0164540  43.4600780
  58.7256580  69.5910110  44.1118390  69.3302980  71.8184760  39.2096230
  68.6368140  71.8162050  38.5498510  70.0725840  71.3944080  38.7790400
  56.6455460  69.2163930  50.4435460  56.8086500  68.7469290  49.6254830
  57.1107910  68.7087490  51.1084300  61.4174230  58.3469690  45.4796030
  60.9742380  59.1279230  45.1480550  61.9759220  58.6699580  46.1866970
  65.7044040  61.2138210  51.0831350  65.2423410  61.4221230  51.8951290
  65.3022150  60.3997560  50.7802020  70.7048550  62.4347160  52.2128010
  69.8542140  62.1352910  52.5337080  70.5450340  62.6789170  51.3011830
  67.7998260  63.9348910  54.3126800  68.1251670  63.1012660  53.9729030
  68.5878590  64.4577430  54.4605130  64.5333050  57.9680390  40.3601860
  63.9087230  57.9640260  41.0855170  64.4463170  57.1011350  39.9637830
  63.4550130  58.8917020  47.3385630  63.7522460  59.7979850  47.2577650
  64.0035690  58.4035800  46.7245200  61.2088450  63.4703260  43.2077280
  60.9829370  63.2540430  44.1123900  60.4280980  63.9031720  42.8623250
  68.4386210  63.4766630  41.8067930  67.8395100  64.2002430  41.6231550
  68.9865820  63.4143410  41.0244380  63.6487660  64.3688840  53.8737550
  63.5531260  63.4283570  53.7237950  64.4919640  64.5903910  53.4785620
  67.0451080  62.1130170  43.8371210  67.4380650  62.4302370  43.0239900
  67.4067930  61.2342050  43.9515730  58.7798200  60.7802510  52.0271330
  58.3861590  61.6277720  52.2344110  58.0916600  60.1428880  52.2179970
  65.3543250  60.8637480  55.0968070  64.6641570  60.6709680  55.7314160
  66.0975550  61.1472120  55.6292370  56.0815250  58.7030970  46.0601410
  55.7928300  59.2733830  46.7726390  56.8261010  58.2235420  46.4232640
  56.2685480  62.6451090  37.2704130  56.1860150  63.5881850  37.4119120
  55.9168540  62.5026000  36.3916480  67.6306220  64.7035920  47.9321990
  66.8987340  65.2122730  48.2812090  67.2330560  63.8865900  47.6310770
  64.0683610  61.3790120  46.3374480  64.0719670  60.9380070  45.4879020
  64.9634730  61.7007450  46.4446300  59.9185990  61.2616610  45.2968690
  59.5786040  61.7391840  46.0535740  59.1563310  60.8081730  44.9369790
  64.1303760  62.3802200  39.3281240  64.2516580  62.3388680  40.2767060
  63.7452270  63.2426350  39.1727970  68.0932130  60.1569600  47.3444930
  68.1104870  60.6078250  48.1886780  67.8447710  59.2575240  47.5578370
  63.1425260  64.6903340  38.7264540  62.5742160  64.2421590  38.1000450
  63.8514260  65.0496120  38.1929690  71.5202880  57.5701780  53.1831310
  71.8448650  56.8391440  53.7089290  71.5559390  57.2515420  52.2812300
  58.2194440  68.5915360  52.6031270  57.8349230  67.9509030  53.2014230
  58.5306630  69.2951480  53.1726000  64.3691580  65.4391900  48.0839890
  64.7361710  64.9650470  48.8301230  64.1796640  66.3133470  48.4248230
  57.2332070  60.1835590  44.2133360  56.9478990  59.8191260  45.0511980
  57.1710930  59.4516050  43.5996500  62.1590950  64.4800540  50.4024100
  61.8548020  65.3592520  50.6274460  63.1137410  64.5400330  50.4381540
  60.6872740  68.6861530  40.9990950  59.9135000  68.1459150  40.8389670
  61.4167370  68.1668140  40.6608710  71.4460720  67.6826890  46.7917340
  72.1659840  68.1782180  46.4013450  71.2442540  67.0044780  46.1471210
  66.9070660  59.0764850  40.9346730  66.0935270  58.5778020  40.8592040
  66.7132610  59.9163100  40.5183080  66.8279520  67.7535950  52.6786340
  66.7616830  66.8331620  52.4243930  66.1984660  67.8511390  53.3930980
  69.6219050  63.4484500  39.2308890  70.5098670  63.7601730  39.0560230
  69.5924140  62.5756750  38.8389470  60.7310140  68.3541910  44.6369760
  61.2488810  67.5510170  44.5826650  60.2794160  68.2921050  45.4786590
  65.6179640  69.6208190  39.9097060  65.9595340  70.3650420  39.4140380
  64.7892350  69.9339310  40.2721890  58.2154680  65.3203280  51.5495460
  57.8569620  65.9857130  52.1368800  57.9209240  64.4886830  51.9208080
  61.4167800  65.7787520  54.4335010  61.1167940  65.9244700  53.5362830
  62.1879040  65.2192810  54.3408400  66.7596250  70.5756520  52.4290140
  66.7740790  69.6437480  52.2109050  66.0521350  70.6616280  53.0679910
  68.5007050  68.9424030  45.2742570  68.8530870  68.3452160  44.6143940
  67.6169380  68.6168260  45.4450820  64.5870330  69.7021720  42.6812980
  65.2741460  70.2490930  43.0620570  63.8002750  70.2462450  42.7162590
  56.7262730  65.3194540  38.1730060  57.5957580  65.6019340  38.4565980
  56.2353050  66.1330410  38.0578870  63.8897540  66.7067750  42.2938340
  64.3460320  67.5173000  42.5198530  63.5385750  66.3890890  43.1256830
  66.1930150  72.2174090  49.5230640  66.8372370  72.4233470  50.2004060
  66.5559590  71.4562490  49.0701490  59.7909320  57.0505400  42.7660860
  59.6623950  57.0423300  43.7145780  58.9671340  57.3888490  42.4151870
  67.4662230  70.2206440  48.2408090  68.1084460  69.5199600  48.3540260
  67.9911580  71.0004880  48.0604980  71.3117950  70.5055060  37.9647230
  71.0855530  69.7885500  38.5571870  70.9214150  70.2567500  37.1268980
  69.2399850  71.0201340  51.4444150  69.5756090  71.6068030  52.1222070
  68.3200190  70.8894050  51.6741940  56.7903250  58.8096520  52.2267560
  56.0761770  59.0093440  52.8320170  57.2098290  58.0336090  52.5982360
  70.8934200  68.4227000  39.6261390  70.6055900  68.8839690  40.4139270
  71.6886370  67.9624770  39.8945610  57.0775840  72.7976780  53.2134090
  57.1866960  71.8571520  53.0729480  56.4256400  73.0631530  52.5647820
  65.0688430  71.0692670  54.6132210  64.7485300  70.3501910  55.1577900
  64.3946790  71.7447740  54.6868270  63.1102600  71.9153120  39.5565360
  63.1012700  72.6482810  38.9409870  62.1900960  71.6684700  39.6492320
  58.7109240  67.1368010  40.3012120  58.1037190  67.8766910  40.3107420
  59.1858590  67.2267370  39.4750320  68.2842030  61.3018830  49.9769010
  68.6522850  60.4814040  50.3048580  67.4240230  61.3620720  50.3924660
  71.6504060  60.2575770  40.7856570  71.0217220  60.3621440  40.0714800
  71.1555980  60.4772550  41.5750450  66.0962200  71.9781360  38.2190550
  66.1974180  71.7745350  37.2892530  65.1963940  71.7239640  38.4238330
  63.6188090  62.5361720  42.2014450  62.9104240  63.0048060  42.6428060
  63.9032570  61.8783730  42.8359640  65.2444020  63.9558420  50.2006980
  65.7429270  64.4304240  50.8658830  65.3866970  63.0321940  50.4077010
  67.6503520  59.2612380  43.6410240  67.5271300  59.2798510  42.6919750
  68.5988080  59.3091320  43.7608640  61.8223110  60.8446800  39.5765160
  62.6713640  61.2816950  39.5105350  61.4554380  61.1567060  40.4037220
  70.7432890  65.4159560  44.4896730  69.8023030  65.4309790  44.6644420
  71.0576960  64.6295520  44.9357030  60.7214530  67.0979160  38.0500690
  61.4877800  66.9860520  38.6126120  60.7989220  66.4017130  37.3977460
  59.4161290  64.5304230  38.7333580  59.4964880  63.5831740  38.8450980
  60.3081040  64.8611110  38.8394240  57.1021480  70.7473190  41.7109630
  56.1761260  70.9894330  41.7015040  57.5677910  71.5747450  41.5894380
  68.0598910  69.9725560  54.9729110  67.4537070  69.9957160  54.2324860
  67.7553020  69.2408600  55.5096360  56.9432090  66.3519150  53.9689750
  57.4471110  65.7726430  54.5405980  56.2039510  66.6359380  54.5066120
  63.8455710  69.0733340  37.5236040  63.7406350  68.4585690  38.2497420
  63.6779930  68.5499230  36.7399050  63.9970030  67.7590140  53.5025270
  63.2315700  68.3275140  53.4179940  64.1785990  67.4666350  52.6093500
  67.0858440  68.1353370  38.1278030  66.5368540  68.5822670  38.7720770
  67.7077700  67.6302620  38.6515700  71.1393380  69.4895470  54.0600290
  71.8802850  69.8271230  53.5567750  70.3766060  69.6587530  53.5070060
  58.9755170  64.4948740  54.8639820  59.0160510  64.1962610  55.7725050
  59.8300670  64.8956350  54.7047340  62.7533560  67.0944290  40.0243330
  63.1749980  66.9284160  40.8674720  62.8784400  66.2844520  39.5298470
  60.9160980  63.0740840  52.8314310  60.3857440  62.5831790  52.2037650
  61.5849050  63.5025040  52.2972240  65.2661200  66.1181900  37.2720430
  65.7866860  65.4030920  36.9061580  65.9129600  66.7567770  37.5720940
  69.8139040  67.5410300  52.5955500  70.2280060  67.6955380  53.4445920
  68.8790040  67.6665520  52.7581280  70.2861210  64.8806460  54.5994650
  70.8681980  64.1258780  54.5115130  70.4622980  65.4113900  53.8226130
  61.4033280  60.0403210  52.9111600  61.3090150  59.4223960  52.1862470
  60.8230670  60.7669500  52.6841510  64.1694720  58.5976450  49.9438990
  63.7212020  58.6200710  49.0984540  63.5359920  58.1995470  50.5409290
  64.5754270  67.4930780  50.5651430  64.9942380  68.3363510  50.3927670
  63.6562900  67.6302820  50.3358210  66.9118170  65.2246960  51.9489270
  67.0314380  64.6288100  52.6884110  67.7712170  65.2616650  51.5290570
  69.2506070  65.7784150  50.5251780  68.7241290  66.3026770  49.9216920
  69.5937410  66.4111540  51.1561510  61.6492460  63.1677520  36.9701490
  61.4481520  62.3044880  37.3314830  61.4784510  63.0810880  36.0323090
  63.6786940  61.7668310  53.2065090  64.2686630  61.4584160  53.8942910
  62.8607180  61.2948060  53.3624990  68.4980370  61.3834120  53.4398110
  67.8095890  60.7215660  53.3748100  69.2186390  60.9372390  53.8846570
  69.1280770  57.9785750  39.4988370  69.4083060  57.1353650  39.8547790
  68.3546500  58.2108860  40.0127120  60.4475260  60.2678140  36.9579370
  60.7501160  60.2745570  36.0498520  61.1869850  59.9176000  37.4547030
  63.6660190  59.2112760  37.9435570  63.3182190  58.5336750  37.3638020
  63.8672960  58.7502270  38.7578960  59.4705390  69.5720560  37.7909170
  59.9080260  70.1150230  38.4466750  59.9553120  68.7467510  37.8005510
  56.6851190  72.3609590  45.2429430  57.0154200  71.4930650  45.0108070
  57.1142190  72.5668110  46.0734390  61.2813110  70.6918600  42.9031400
  60.9808650  70.5683570  43.8035310  61.1750600  69.8327190  42.4947130
  57.0065830  65.7400410  44.3399940  56.3514670  65.4712050  43.6959640
  57.8443780  65.6304890  43.8901920  71.4955220  69.4549160  50.3664530
  70.6815060  69.8846320  50.6290320  71.9029420  70.0667570  49.7533580
  69.9556270  60.5341700  38.5618430  70.3741150  60.3472680  37.7215090
  69.6492330  59.6820750  38.8721360  58.0441760  66.1252980  48.8803280
  58.4114800  66.0380380  49.7599300  57.4752580  65.3619530  48.7810140
  57.5957760  63.0362070  52.7861700  56.7013810  63.0028830  53.1255410
  58.1355310  63.2348860  53.5512950  71.2833690  59.8193790  54.6713450
  72.1603870  59.8277190  55.0547450  71.2954530  59.0824630  54.0605800
  56.2203910  62.9499340  40.2825270  55.3167990  63.2129540  40.1076930
  56.7044530  63.2210510  39.5025230  58.7631120  62.0064880  38.1919650
  59.4722820  61.5848100  37.7066930  58.0471060  62.0740110  37.5603000
  58.4105280  58.0604210  37.2322300  59.1333410  58.6013150  37.5503520
  58.6829800  57.7867630  36.3563840  58.0997470  57.3110400  47.1344920
  58.7473660  56.7607780  46.6940080  58.5199310  57.5653550  47.9560730
  57.8529470  57.4666070  49.8770240  57.5044290  57.9229890  50.6428420
  57.5217170  56.5723200  49.9592670  59.4593840  70.6385670  54.0423430
  59.4163470  70.2678580  54.9237890  59.5904850  71.5763240  54.1825250
  63.1599870  72.1945260  49.6433150  62.9191230  72.4619820  48.7563670
  64.1002510  72.3650990  49.6984010  65.3654290  58.6577950  53.3989660
  65.3043180  59.2499780  54.1485070  66.3054670  58.5503910  53.2539920
  68.0028850  58.3148010  53.0381950  68.6169260  58.6327300  52.3763030
  68.5478410  57.8296600  53.6577810  58.5250110  56.9942270  53.1521010
  59.0733100  56.8130320  52.3887120  58.5905420  56.2036380  53.6877320
  59.2981870  73.5847920  51.1621210  58.7042190  73.4532620  51.9011250
  59.2905710  72.7486060  50.6963310  68.7436890  56.8780150  49.3651240
  67.8696730  57.2115260  49.1624170  68.6347640  56.4053330  50.1903110
  69.6508870  59.0851020  50.7492960  69.3222230  58.2702780  50.3694690
  70.5991170  59.0420830  50.6258650  58.9294100  70.9506300  50.1129250
  58.2028160  70.3311590  50.0455200  58.9903250  71.3446910  49.2427330
  62.5339200  73.1651300  46.8978660  63.0504220  72.5538660  46.3726920
  63.1836580  73.6680080  47.3889670  66.4911710  57.7949990  48.3044150
  65.7083500  58.2695490  48.5840910  66.1974640  56.8904820  48.1957330
  71.0432780  58.4973090  46.3493240  71.4840870  58.4418190  45.5014840
  70.7740370  59.4131100  46.4203420  57.8352120  58.0997470  40.8257870
  58.5931480  58.2126350  40.2521900  57.3729290  58.9366670  40.7801300
  64.3765930  60.2136740  43.8160180  63.5640440  59.8393630  43.4756060
  64.8807570  59.4581820  44.1181370  68.8790910  56.8779190  45.0543250
  69.4820280  57.4499400  45.5291770  68.1383900  57.4418630  44.8317150
  72.0225510  57.2800750  40.3283530  72.2176140  58.1784200  40.5950960
  71.2355380  57.0487830  40.8216480  58.8186800  72.9613920  40.7676150
  58.2934420  73.3421950  40.0638110  58.7431380  73.5864690  41.4885860
  60.2077270  58.6261520  39.3659840  60.7370030  57.8391320  39.2367790
  60.8405590  59.3052710  39.5995370  62.4015110  58.3636660  42.4205230
  61.7717850  57.6623970  42.5875360  61.8620250  59.1240790  42.2038390
  62.5270670  57.6420640  54.8557720  62.2454940  58.1454240  54.0918540
  62.9090370  56.8442390  54.4899850  60.5794560  71.0261030  39.6471730
  59.9503440  71.4946130  40.1957560  60.6942390  70.1810250  40.0817920
  69.1286130  57.0574220  55.4338190  69.0151580  57.3768830  56.3289710
  69.9455870  57.4586730  55.1375470  68.0344280  65.0766690  25.7972930
  67.9538330  64.1621300  25.5264640  67.6208700  65.5733760  25.0912640
  66.1662320  66.8545710  27.6782200  65.3904420  66.3746150  27.9680770
  66.8175250  66.1751360  27.5038360  60.1828150  67.1665520  28.5557960
  59.3513030  66.9114230  28.9554470  60.7909130  67.2376290  29.2915880
  70.1869750  71.2605900  26.4581330  69.7251280  70.4893140  26.7868500
  70.9995300  71.2871970  26.9633780  60.1629410  71.2005610  28.7515980
  60.4657450  70.3103350  28.5726200  60.9073000  71.7575830  28.5238230
  58.5920100  62.1267410  22.3400350  57.7036800  62.4683380  22.2380230
  58.8761290  61.9267730  21.4481180  56.5553110  64.7273060  28.2240050
  57.1269220  63.9595260  28.2243690  56.5554650  65.0261820  27.3146660
  65.6071310  69.5302900  27.6852360  65.5379590  68.5892840  27.5241490
  66.3691170  69.6204310  28.2574930  57.7977980  60.1357420  30.0108980
  57.6180820  59.2383170  30.2911740  57.3958060  60.6829290  30.6855930
  66.6376480  62.3373280  27.9121290  67.0141300  61.4645160  27.7994960
  66.5395990  62.6731980  27.0211730  60.7681490  60.7098910  23.3738730
  60.8748240  61.6102640  23.6807490  59.8573850  60.6616880  23.0833380
  70.4200600  59.8323720  24.8449630  71.2410220  59.3420290  24.8875110
  70.4534680  60.4221380  25.5981470  58.4164650  62.6317920  28.6191320
  59.0974760  62.8956290  29.2378720  58.1012700  61.7918790  28.9529330
  62.6089220  63.6785280  27.7063910  63.1167440  64.1766250  28.3468930
  63.1402460  62.9020480  27.5303270  60.8925320  58.3183840  31.9727330
  60.8943760  58.8356230  31.1673230  60.0629630  57.8414020  31.9497260
  67.2796410  68.4303150  23.4717230  66.6613680  68.8952600  22.9079950
  67.7919660  69.1230630  23.8886740  62.1428170  67.9579020  30.1500830
  61.8097550  68.5847940  30.7921900  62.3194850  68.4840900  29.3702500
  70.6562080  61.7724100  27.6177170  69.9517650  62.0608990  28.1980280
  71.0174240  62.5824210  27.2576730  60.5740650  60.0293800  29.9797780
  60.9157460  60.8735850  29.6851650  59.6356460  60.1777540  30.0963120
  61.3547270  69.9259820  31.9650010  61.9721270  70.6010900  31.6834460
  60.4940390  70.3347800  31.8737510  56.6479610  69.1159680  20.8456860
  56.2707590  69.6046780  20.1141760  56.9052680  69.7884960  21.4763390
  64.2568540  57.5176070  26.3042370  64.5643520  56.9622960  25.5877870
  63.3269240  57.6520530  26.1215360  71.1029020  69.9559580  23.6840000
  70.9925350  69.0133910  23.8089420  71.0997270  70.3175220  24.5702760
  69.2069040  68.1373200  29.9232440  69.6237830  67.9233310  29.0885900
  69.9308860  68.3945990  30.4941060  66.6449300  65.5824900  23.0402490
  65.7178580  65.5162280  23.2690960  66.7974120  66.5205030  22.9257730
  66.6318380  61.8541900  20.0369650  65.6922050  62.0155860  20.1222110
  66.9501640  62.5727580  19.4905640  70.6746590  67.1445200  23.5437740
  70.0559010  66.8064750  22.8964040  70.6571040  66.5004960  24.2516930
  70.1173150  63.3229740  30.9603550  69.7044330  64.1483450  31.2143540
  69.3849100  62.7374780  30.7679910  62.2505940  66.1089640  25.8222220
  61.8462940  65.3966890  25.3268120  62.3369060  65.7642880  26.7110260
  62.7187640  69.7957200  27.9861430  62.4215930  69.1902670  27.3069210
  63.6687460  69.8334510  27.8750790  60.9634560  62.8832850  29.6021260
  61.5149150  62.9928190  28.8274510  61.4778070  63.2570450  30.3176490
  61.8106070  69.5338890  34.6369230  60.9134600  69.7578860  34.8842630
  61.8358940  69.6573830  33.6880630  68.8511290  66.3832010  20.5510490
  69.2904570  65.5454440  20.4048310  69.5639710  67.0161410  20.6374630
  60.6377290  66.4052210  33.2126600  60.4985060  67.2775010  33.5814000
  59.7558650  66.0625020  33.0674540  66.9606670  71.3228080  24.5191730
  67.4002580  72.0652410  24.1047120  66.8993560  71.5654650  25.4430690
  62.4357640  72.3473910  35.4211750  62.4073070  72.7516860  34.5540180
  62.2722610  71.4184270  35.2583350  58.9510570  65.0034620  23.3228870
  58.8308170  65.7296710  22.7110140  58.6411460  64.2337530  22.8456780
  56.5895940  68.1749760  29.1297510  56.6676360  68.3098530  28.1853230
  57.2037620  67.4665650  29.3225630  57.8343570  69.8749950  25.5403690
  57.4271650  70.0164540  24.6857290  58.7256580  69.5910110  25.3374900
  69.3302980  71.8184760  20.4352740  68.6368140  71.8162050  19.7755020
  70.0725840  71.3944080  20.0046910  56.6455460  69.2163930  31.6691970
  56.8086500  68.7469290  30.8511340  57.1107910  68.7087490  32.3340810
  61.4174230  58.3469690  26.7052540  60.9742380  59.1279230  26.3737060
  61.9759220  58.6699580  27.4123480  65.7044040  61.2138210  32.3087860
  65.2423410  61.4221230  33.1207800  65.3022150  60.3997560  32.0058530
  70.7048550  62.4347160  33.4384520  69.8542140  62.1352910  33.7593590
  70.5450340  62.6789170  32.5268340  67.7998260  63.9348910  35.5383310
  68.1251670  63.1012660  35.1985540  68.5878590  64.4577430  35.6861640
  64.5333050  57.9680390  21.5858370  63.9087230  57.9640260  22.3111680
  64.4463170  57.1011350  21.1894340  63.4550130  58.8917020  28.5642140
  63.7522460  59.7979850  28.4834160  64.0035690  58.4035800  27.9501710
  61.2088450  63.4703260  24.4333790  60.9829370  63.2540430  25.3380410
  60.4280980  63.9031720  24.0879760  68.4386210  63.4766630  23.0324440
  67.8395100  64.2002430  22.8488060  68.9865820  63.4143410  22.2500890
  63.6487660  64.3688840  35.0994060  63.5531260  63.4283570  34.9494460
  64.4919640  64.5903910  34.7042130  67.0451080  62.1130170  25.0627720
  67.4380650  62.4302370  24.2496410  67.4067930  61.2342050  25.1772240
  58.7798200  60.7802510  33.2527840  58.3861590  61.6277720  33.4600620
  58.0916600  60.1428880  33.4436480  65.3543250  60.8637480  36.3224580
  64.6641570  60.6709680  36.9570670  66.0975550  61.1472120  36.8548880
  56.0815250  58.7030970  27.2857920  55.7928300  59.2733830  27.9982900
  56.8261010  58.2235420  27.6489150  56.2685480  62.6451090  18.4960640
  56.1860150  63.5881850  18.6375630  55.9168540  62.5026000  17.6172990
  67.6306220  64.7035920  29.1578500  66.8987340  65.2122730  29.5068600
  67.2330560  63.8865900  28.8567280  64.0683610  61.3790120  27.5630990
  64.0719670  60.9380070  26.7135530  64.9634730  61.7007450  27.6702810
  59.9185990  61.2616610  26.5225200  59.5786040  61.7391840  27.2792250
  59.1563310  60.8081730  26.1626300  64.1303760  62.3802200  20.5537750
  64.2516580  62.3388680  21.5023570  63.7452270  63.2426350  20.3984480
  68.0932130  60.1569600  28.5701440  68.1104870  60.6078250  29.4143290
  67.8447710  59.2575240  28.7834880  63.1425260  64.6903340  19.9521050
  62.5742160  64.2421590  19.3256960  63.8514260  65.0496120  19.4186200
  71.5202880  57.5701780  34.4087820  71.8448650  56.8391440  34.9345800
  71.5559390  57.2515420  33.5068810  58.2194440  68.5915360  33.8287780
  57.8349230  67.9509030  34.4270740  58.5306630  69.2951480  34.3982510
  64.3691580  65.4391900  29.3096400  64.7361710  64.9650470  30.0557740
  64.1796640  66.3133470  29.6504740  57.2332070  60.1835590  25.4389870
  56.9478990  59.8191260  26.2768490  57.1710930  59.4516050  24.8253010
  62.1590950  64.4800540  31.6280610  61.8548020  65.3592520  31.8530970
  63.1137410  64.5400330  31.6638050  60.6872740  68.6861530  22.2247460
  59.9135000  68.1459150  22.0646180  61.4167370  68.1668140  21.8865220
  71.4460720  67.6826890  28.0173850  72.1659840  68.1782180  27.6269960
  71.2442540  67.0044780  27.3727720  66.9070660  59.0764850  22.1603240
  66.0935270  58.5778020  22.0848550  66.7132610  59.9163100  21.7439590
  66.8279520  67.7535950  33.9042850  66.7616830  66.8331620  33.6500440
  66.1984660  67.8511390  34.6187490  69.6219050  63.4484500  20.4565400
  70.5098670  63.7601730  20.2816740  69.5924140  62.5756750  20.0645980
  60.7310140  68.3541910  25.8626270  61.2488810  67.5510170  25.8083160
  60.2794160  68.2921050  26.7043100  65.6179640  69.6208190  21.1353570
  65.9595340  70.3650420  20.6396890  64.7892350  69.9339310  21.4978400
  58.2154680  65.3203280  32.7751970  57.8569620  65.9857130  33.3625310
  57.9209240  64.4886830  33.1464590  61.4167800  65.7787520  35.6591520
  61.1167940  65.9244700  34.7619340  62.1879040  65.2192810  35.5664910
  66.7596250  70.5756520  33.6546650  66.7740790  69.6437480  33.4365560
  66.0521350  70.6616280  34.2936420  68.5007050  68.9424030  26.4999080
  68.8530870  68.3452160  25.8400450  67.6169380  68.6168260  26.6707330
  64.5870330  69.7021720  23.9069490  65.2741460  70.2490930  24.2877080
  63.8002750  70.2462450  23.9419100  56.7262730  65.3194540  19.3986570
  57.5957580  65.6019340  19.6822490  56.2353050  66.1330410  19.2835380
  63.8897540  66.7067750  23.5194850  64.3460320  67.5173000  23.7455040
  63.5385750  66.3890890  24.3513340  66.1930150  72.2174090  30.7487150
  66.8372370  72.4233470  31.4260570  66.5559590  71.4562490  30.2958000
  59.7909320  57.0505400  23.9917370  59.6623950  57.0423300  24.9402290
  58.9671340  57.3888490  23.6408380  67.4662230  70.2206440  29.4664600
  68.1084460  69.5199600  29.5796770  67.9911580  71.0004880  29.2861490
  71.3117950  70.5055060  19.1903740  71.0855530  69.7885500  19.7828380
  70.9214150  70.2567500  18.3525490  69.2399850  71.0201340  32.6700660
  69.5756090  71.6068030  33.3478580  68.3200190  70.8894050  32.8998450
  56.7903250  58.8096520  33.4524070  56.0761770  59.0093440  34.0576680
  57.2098290  58.0336090  33.8238870  70.8934200  68.4227000  20.8517900
  70.6055900  68.8839690  21.6395780  71.6886370  67.9624770  21.1202120
  57.0775840  72.7976780  34.4390600  57.1866960  71.8571520  34.2985990
  56.4256400  73.0631530  33.7904330  65.0688430  71.0692670  35.8388720
  64.7485300  70.3501910  36.3834410  64.3946790  71.7447740  35.9124780
  63.1102600  71.9153120  20.7821870  63.1012700  72.6482810  20.1666380
  62.1900960  71.6684700  20.8748830  58.7109240  67.1368010  21.5268630
  58.1037190  67.8766910  21.5363930  59.1858590  67.2267370  20.7006830
  68.2842030  61.3018830  31.2025520  68.6522850  60.4814040  31.5305090
  67.4240230  61.3620720  31.6181170  71.6504060  60.2575770  22.0113080
  71.0217220  60.3621440  21.2971310  71.1555980  60.4772550  22.8006960
  66.0962200  71.9781360  19.4447060  66.1974180  71.7745350  18.5149040
  65.1963940  71.7239640  19.6494840  63.6188090  62.5361720  23.4270960
  62.9104240  63.0048060  23.8684570  63.9032570  61.8783730  24.0616150
  65.2444020  63.9558420  31.4263490  65.7429270  64.4304240  32.0915340
  65.3866970  63.0321940  31.6333520  67.6503520  59.2612380  24.8666750
  67.5271300  59.2798510  23.9176260  68.5988080  59.3091320  24.9865150
  61.8223110  60.8446800  20.8021670  62.6713640  61.2816950  20.7361860
  61.4554380  61.1567060  21.6293730  70.7432890  65.4159560  25.7153240
  69.8023030  65.4309790  25.8900930  71.0576960  64.6295520  26.1613540
  60.7214530  67.0979160  19.2757200  61.4877800  66.9860520  19.8382630
  60.7989220  66.4017130  18.6233970  59.4161290  64.5304230  19.9590090
  59.4964880  63.5831740  20.0707490  60.3081040  64.8611110  20.0650750
  57.1021480  70.7473190  22.9366140  56.1761260  70.9894330  22.9271550
  57.5677910  71.5747450  22.8150890  68.0598910  69.9725560  36.1985620
  67.4537070  69.9957160  35.4581370  67.7553020  69.2408600  36.7352870
  56.9432090  66.3519150  35.1946260  57.4471110  65.7726430  35.7662490
  56.2039510  66.6359380  35.7322630  63.8455710  69.0733340  18.7492550
  63.7406350  68.4585690  19.4753930  63.6779930  68.5499230  17.9655560
  63.9970030  67.7590140  34.7281780  63.2315700  68.3275140  34.6436450
  64.1785990  67.4666350  33.8350010  67.0858440  68.1353370  19.3534540
  66.5368540  68.5822670  19.9977280  67.7077700  67.6302620  19.8772210
  71.1393380  69.4895470  35.2856800  71.8802850  69.8271230  34.7824260
  70.3766060  69.6587530  34.7326570  58.9755170  64.4948740  36.0896330
  59.0160510  64.1962610  36.9981560  59.8300670  64.8956350  35.9303850
  62.7533560  67.0944290  21.2499840  63.1749980  66.9284160  22.0931230
  62.8784400  66.2844520  20.7554980  60.9160980  63.0740840  34.0570820
  60.3857440  62.5831790  33.4294160  61.5849050  63.5025040  33.5228750
  65.2661200  66.1181900  18.4976940  65.7866860  65.4030920  18.1318090
  65.9129600  66.7567770  18.7977450  69.8139040  67.5410300  33.8212010
  70.2280060  67.6955380  34.6702430  68.8790040  67.6665520  33.9837790
  70.2861210  64.8806460  35.8251160  70.8681980  64.1258780  35.7371640
  70.4622980  65.4113900  35.0482640  61.4033280  60.0403210  34.1368110
  61.3090150  59.4223960  33.4118980  60.8230670  60.7669500  33.9098020
  64.1694720  58.5976450  31.1695500  63.7212020  58.6200710  30.3241050
  63.5359920  58.1995470  31.7665800  64.5754270  67.4930780  31.7907940
  64.9942380  68.3363510  31.6184180  63.6562900  67.6302820  31.5614720
  66.9118170  65.2246960  33.1745780  67.0314380  64.6288100  33.9140620
  67.7712170  65.2616650  32.7547080  69.2506070  65.7784150  31.7508290
  68.7241290  66.3026770  31.1473430  69.5937410  66.4111540  32.3818020
  61.6492460  63.1677520  18.1958000  61.4481520  62.3044880  18.5571340
  61.4784510  63.0810880  17.2579600  63.6786940  61.7668310  34.4321600
  64.2686630  61.4584160  35.1199420  62.8607180  61.2948060  34.5881500
  68.4980370  61.3834120  34.6654620  67.8095890  60.7215660  34.6004610
  69.2186390  60.9372390  35.1103080  69.1280770  57.9785750  20.7244880
  69.4083060  57.1353650  21.0804300  68.3546500  58.2108860  21.2383630
  60.4475260  60.2678140  18.1835880  60.7501160  60.2745570  17.2755030
  61.1869850  59.9176000  18.6803540  63.6660190  59.2112760  19.1692080
  63.3182190  58.5336750  18.5894530  63.8672960  58.7502270  19.9835470
  59.4705390  69.5720560  19.0165680  59.9080260  70.1150230  19.6723260
  59.9553120  68.7467510  19.0262020  56.6851190  72.3609590  26.4685940
  57.0154200  71.4930650  26.2364580  57.1142190  72.5668110  27.2990900
  61.2813110  70.6918600  24.1287910  60.9808650  70.5683570  25.0291820
  61.1750600  69.8327190  23.7203640  57.0065830  65.7400410  25.5656450
  56.3514670  65.4712050  24.9216150  57.8443780  65.6304890  25.1158430
  71.4955220  69.4549160  31.5921040  70.6815060  69.8846320  31.8546830
  71.9029420  70.0667570  30.9790090  69.9556270  60.5341700  19.7874940
  70.3741150  60.3472680  18.9471600  69.6492330  59.6820750  20.0977870
  58.0441760  66.1252980  30.1059790  58.4114800  66.0380380  30.9855810
  57.4752580  65.3619530  30.0066650  57.5957760  63.0362070  34.0118210
  56.7013810  63.0028830  34.3511920  58.1355310  63.2348860  34.7769460
  71.2833690  59.8193790  35.8969960  72.1603870  59.8277190  36.2803960
  71.2954530  59.0824630  35.2862310  56.2203910  62.9499340  21.5081780
  55.3167990  63.2129540  21.3333440  56.7044530  63.2210510  20.7281740
  58.7631120  62.0064880  19.4176160  59.4722820  61.5848100  18.9323440
  58.0471060  62.0740110  18.7859510  58.4105280  58.0604210  18.4578810
  59.1333410  58.6013150  18.7760030  58.6829800  57.7867630  17.5820350
  58.0997470  57.3110400  28.3601430  58.7473660  56.7607780  27.9196590
  58.5199310  57.5653550  29.1817240  57.8529470  57.4666070  31.1026750
  57.5044290  57.9229890  31.8684930  57.5217170  56.5723200  31.1849180
  59.4593840  70.6385670  35.2679940  59.4163470  70.2678580  36.1494400
  59.5904850  71.5763240  35.4081760  63.1599870  72.1945260  30.8689660
  62.9191230  72.4619820  29.9820180  64.1002510  72.3650990  30.9240520
  65.3654290  58.6577950  34.6246170  65.3043180  59.2499780  35.3741580
  66.3054670  58.5503910  34.4796430  68.0028850  58.3148010  34.2638460
  68.6169260  58.6327300  33.6019540  68.5478410  57.8296600  34.8834320
  58.5250110  56.9942270  34.3777520  59.0733100  56.8130320  33.6143630
  58.5905420  56.2036380  34.9133830  59.2981870  73.5847920  32.3877720
  58.7042190  73.4532620  33.1267760  59.2905710  72.7486060  31.9219820
  68.7436890  56.8780150  30.5907750  67.8696730  57.2115260  30.3880680
  68.6347640  56.4053330  31.4159620  69.6508870  59.0851020  31.9749470
  69.3222230  58.2702780  31.5951200  70.5991170  59.0420830  31.8515160
  58.9294100  70.9506300  31.3385760  58.2028160  70.3311590  31.2711710
  58.9903250  71.3446910  30.4683840  62.5339200  73.1651300  28.1235170
  63.0504220  72.5538660  27.5983430  63.1836580  73.6680080  28.6146180
  66.4911710  57.7949990  29.5300660  65.7083500  58.2695490  29.8097420
  66.1974640  56.8904820  29.4213840  71.0432780  58.4973090  27.5749750
  71.4840870  58.4418190  26.7271350  70.7740370  59.4131100  27.6459930
  57.8352120  58.0997470  22.0514380  58.5931480  58.2126350  21.4778410
  57.3729290  58.9366670  22.0057810  64.3765930  60.2136740  25.0416690
  63.5640440  59.8393630  24.7012570  64.8807570  59.4581820  25.3437880
  68.8790910  56.8779190  26.2799760  69.4820280  57.4499400  26.7548280
  68.1383900  57.4418630  26.0573660  72.0225510  57.2800750  21.5540040
  72.2176140  58.1784200  21.8207470  71.2355380  57.0487830  22.0472990
  58.8186800  72.9613920  21.9932660  58.2934420  73.3421950  21.2894620
  58.7431380  73.5864690  22.7142370  60.2077270  58.6261520  20.5916350
  60.7370030  57.8391320  20.4624300  60.8405590  59.3052710  20.8251880
  62.4015110  58.3636660  23.6461740  61.7717850  57.6623970  23.8131870
  61.8620250  59.1240790  23.4294900  62.5270670  57.6420640  36.0814230
  62.2454940  58.1454240  35.3175050  62.9090370  56.8442390  35.7156360
  60.5794560  71.0261030  20.8728240  59.9503440  71.4946130  21.4214070
  60.6942390  70.1810250  21.3074430  69.1286130  57.0574220  36.6594700
  69.0151580  57.3768830  37.5546220  69.9455870  57.4586730  36.3631980
  68.0344280  65.0766690   7.0229440  67.9538330  64.1621300   6.7521150
  67.6208700  65.5733760   6.3169150  66.1662320  66.8545710   8.9038710
  65.3904420  66.3746150   9.1937280  66.8175250  66.1751360   8.7294870
  60.1828150  67.1665520   9.7814470  59.3513030  66.9114230  10.1810980
  60.7909130  67.2376290  10.5172390  70.1869750  71.2605900   7.6837840
  69.7251280  70.4893140   8.0125010  70.9995300  71.2871970   8.1890290
  60.1629410  71.2005610   9.9772490  60.4657450  70.3103350   9.7982710
  60.9073000  71.7575830   9.7494740  58.5920100  62.1267410   3.5656860
  57.7036800  62.4683380   3.4636740  58.8761290  61.9267730   2.6737690
  56.5553110  64.7273060   9.4496560  57.1269220  63.9595260   9.4500200
  56.5554650  65.0261820   8.5403170  65.6071310  69.5302900   8.9108870
  65.5379590  68.5892840   8.7498000  66.3691170  69.6204310   9.4831440
  57.7977980  60.1357420  11.2365490  57.6180820  59.2383170  11.5168250
  57.3958060  60.6829290  11.9112440  66.6376480  62.3373280   9.1377800
  67.0141300  61.4645160   9.0251470  66.5395990  62.6731980   8.2468240
  60.7681490  60.7098910   4.5995240  60.8748240  61.6102640   4.9064000
  59.8573850  60.6616880   4.3089890  70.4200600  59.8323720   6.0706140
  71.2410220  59.3420290   6.1131620  70.4534680  60.4221380   6.8237980
  58.4164650  62.6317920   9.8447830  59.0974760  62.8956290  10.4635230
  58.1012700  61.7918790  10.1785840  62.6089220  63.6785280   8.9320420
  63.1167440  64.1766250   9.5725440  63.1402460  62.9020480   8.7559780
  60.8925320  58.3183840  13.1983840  60.8943760  58.8356230  12.3929740
  60.0629630  57.8414020  13.1753770  67.2796410  68.4303150   4.6973740
  66.6613680  68.8952600   4.1336460  67.7919660  69.1230630   5.1143250
  62.1428170  67.9579020  11.3757340  61.8097550  68.5847940  12.0178410
  62.3194850  68.4840900  10.5959010  70.6562080  61.7724100   8.8433680
  69.9517650  62.0608990   9.4236790  71.0174240  62.5824210   8.4833240
  60.5740650  60.0293800  11.2054290  60.9157460  60.8735850  10.9108160
  59.6356460  60.1777540  11.3219630  61.3547270  69.9259820  13.1906520
  61.9721270  70.6010900  12.9090970  60.4940390  70.3347800  13.0994020
  56.6479610  69.1159680   2.0713370  56.2707590  69.6046780   1.3398270
  56.9052680  69.7884960   2.7019900  64.2568540  57.5176070   7.5298880
  64.5643520  56.9622960   6.8134380  63.3269240  57.6520530   7.3471870
  71.1029020  69.9559580   4.9096510  70.9925350  69.0133910   5.0345930
  71.0997270  70.3175220   5.7959270  69.2069040  68.1373200  11.1488950
  69.6237830  67.9233310  10.3142410  69.9308860  68.3945990  11.7197570
  66.6449300  65.5824900   4.2659000  65.7178580  65.5162280   4.4947470
  66.7974120  66.5205030   4.1514240  70.6746590  67.1445200   4.7694250
  70.0559010  66.8064750   4.1220550  70.6571040  66.5004960   5.4773440
  70.1173150  63.3229740  12.1860060  69.7044330  64.1483450  12.4400050
  69.3849100  62.7374780  11.9936420  62.2505940  66.1089640   7.0478730
  61.8462940  65.3966890   6.5524630  62.3369060  65.7642880   7.9366770
  62.7187640  69.7957200   9.2117940  62.4215930  69.1902670   8.5325720
  63.6687460  69.8334510   9.1007300  60.9634560  62.8832850  10.8277770
  61.5149150  62.9928190  10.0531020  61.4778070  63.2570450  11.5433000
  61.8106070  69.5338890  15.8625740  60.9134600  69.7578860  16.1099140
  61.8358940  69.6573830  14.9137140  68.8511290  66.3832010   1.7767000
  69.2904570  65.5454440   1.6304820  69.5639710  67.0161410   1.8631140
  60.6377290  66.4052210  14.4383110  60.4985060  67.2775010  14.8070510
  59.7558650  66.0625020  14.2931050  66.9606670  71.3228080   5.7448240
  67.4002580  72.0652410   5.3303630  66.8993560  71.5654650   6.6687200
  62.4357640  72.3473910  16.6468260  62.4073070  72.7516860  15.7796690
  62.2722610  71.4184270  16.4839860  58.9510570  65.0034620   4.5485380
  58.8308170  65.7296710   3.9366650  58.6411460  64.2337530   4.0713290
  56.5895940  68.1749760  10.3554020  56.6676360  68.3098530   9.4109740
  57.2037620  67.4665650  10.5482140  57.8343570  69.8749950   6.7660200
  57.4271650  70.0164540   5.9113800  58.7256580  69.5910110   6.5631410
  56.6455460  69.2163930  12.8948480  56.8086500  68.7469290  12.0767850
  57.1107910  68.7087490  13.5597320  61.4174230  58.3469690   7.9309050
  60.9742380  59.1279230   7.5993570  61.9759220  58.6699580   8.6379990
  65.7044040  61.2138210  13.5344370  65.2423410  61.4221230  14.3464310
  65.3022150  60.3997560  13.2315040  70.7048550  62.4347160  14.6641030
  69.8542140  62.1352910  14.9850100  70.5450340  62.6789170  13.7524850
  67.7998260  63.9348910  16.7639820  68.1251670  63.1012660  16.4242050
  68.5878590  64.4577430  16.9118150  64.5333050  57.9680390   2.8114880
  63.9087230  57.9640260   3.5368190  64.4463170  57.1011350   2.4150850
  63.4550130  58.8917020   9.7898650  63.7522460  59.7979850   9.7090670
  64.0035690  58.4035800   9.1758220  61.2088450  63.4703260   5.6590300
  60.9829370  63.2540430   6.5636920  60.4280980  63.9031720   5.3136270
  68.4386210  63.4766630   4.2580950  67.8395100  64.2002430   4.0744570
  68.9865820  63.4143410   3.4757400  63.6487660  64.3688840  16.3250570
  63.5531260  63.4283570  16.1750970  64.4919640  64.5903910  15.9298640
  67.0451080  62.1130170   6.2884230  67.4380650  62.4302370   5.4752920
  67.4067930  61.2342050   6.4028750  58.7798200  60.7802510  14.4784350
  58.3861590  61.6277720  14.6857130  58.0916600  60.1428880  14.6692990
  65.3543250  60.8637480  17.5481090  64.6641570  60.6709680  18.1827180
  66.0975550  61.1472120  18.0805390  56.0815250  58.7030970   8.5114430
  55.7928300  59.2733830   9.2239410  56.8261010  58.2235420   8.8745660
  67.6306220  64.7035920  10.3835010  66.8987340  65.2122730  10.7325110
  67.2330560  63.8865900  10.0823790  64.0683610  61.3790120   8.7887500
  64.0719670  60.9380070   7.9392040  64.9634730  61.7007450   8.8959320
  59.9185990  61.2616610   7.7481710  59.5786040  61.7391840   8.5048760
  59.1563310  60.8081730   7.3882810  64.1303760  62.3802200   1.7794260
  64.2516580  62.3388680   2.7280080  63.7452270  63.2426350   1.6240990
  68.0932130  60.1569600   9.7957950  68.1104870  60.6078250  10.6399800
  67.8447710  59.2575240  10.0091390  71.5202880  57.5701780  15.6344330
  71.8448650  56.8391440  16.1602310  71.5559390  57.2515420  14.7325320
  58.2194440  68.5915360  15.0544290  57.8349230  67.9509030  15.6527250
  58.5306630  69.2951480  15.6239020  64.3691580  65.4391900  10.5352910
  64.7361710  64.9650470  11.2814250  64.1796640  66.3133470  10.8761250
  57.2332070  60.1835590   6.6646380  56.9478990  59.8191260   7.5025000
  57.1710930  59.4516050   6.0509520  62.1590950  64.4800540  12.8537120
  61.8548020  65.3592520  13.0787480  63.1137410  64.5400330  12.8894560
  60.6872740  68.6861530   3.4503970  59.9135000  68.1459150   3.2902690
  61.4167370  68.1668140   3.1121730  71.4460720  67.6826890   9.2430360
  72.1659840  68.1782180   8.8526470  71.2442540  67.0044780   8.5984230
  66.9070660  59.0764850   3.3859750  66.0935270  58.5778020   3.3105060
  66.7132610  59.9163100   2.9696100  66.8279520  67.7535950  15.1299360
  66.7616830  66.8331620  14.8756950  66.1984660  67.8511390  15.8444000
  60.7310140  68.3541910   7.0882780  61.2488810  67.5510170   7.0339670
  60.2794160  68.2921050   7.9299610  65.6179640  69.6208190   2.3610080
  65.9595340  70.3650420   1.8653400  64.7892350  69.9339310   2.7234910
  58.2154680  65.3203280  14.0008480  57.8569620  65.9857130  14.5881820
  57.9209240  64.4886830  14.3721100  61.4167800  65.7787520  16.8848030
  61.1167940  65.9244700  15.9875850  62.1879040  65.2192810  16.7921420
  66.7596250  70.5756520  14.8803160  66.7740790  69.6437480  14.6622070
  66.0521350  70.6616280  15.5192930  68.5007050  68.9424030   7.7255590
  68.8530870  68.3452160   7.0656960  67.6169380  68.6168260   7.8963840
  64.5870330  69.7021720   5.1326000  65.2741460  70.2490930   5.5133590
  63.8002750  70.2462450   5.1675610  63.8897540  66.7067750   4.7451360
  64.3460320  67.5173000   4.9711550  63.5385750  66.3890890   5.5769850
  66.1930150  72.2174090  11.9743660  66.8372370  72.4233470  12.6517080
  66.5559590  71.4562490  11.5214510  59.7909320  57.0505400   5.2173880
  59.6623950  57.0423300   6.1658800  58.9671340  57.3888490   4.8664890
  67.4662230  70.2206440  10.6921110  68.1084460  69.5199600  10.8053280
  67.9911580  71.0004880  10.5118000  69.2399850  71.0201340  13.8957170
  69.5756090  71.6068030  14.5735090  68.3200190  70.8894050  14.1254960
  56.7903250  58.8096520  14.6780580  56.0761770  59.0093440  15.2833190
  57.2098290  58.0336090  15.0495380  70.8934200  68.4227000   2.0774410
  70.6055900  68.8839690   2.8652290  71.6886370  67.9624770   2.3458630
  57.0775840  72.7976780  15.6647110  57.1866960  71.8571520  15.5242500
  56.4256400  73.0631530  15.0160840  65.0688430  71.0692670  17.0645230
  64.7485300  70.3501910  17.6090920  64.3946790  71.7447740  17.1381290
  63.1102600  71.9153120   2.0078380  63.1012700  72.6482810   1.3922890
  62.1900960  71.6684700   2.1005340  58.7109240  67.1368010   2.7525140
  58.1037190  67.8766910   2.7620440  59.1858590  67.2267370   1.9263340
  68.2842030  61.3018830  12.4282030  68.6522850  60.4814040  12.7561600
  67.4240230  61.3620720  12.8437680  71.6504060  60.2575770   3.2369590
  71.0217220  60.3621440   2.5227820  71.1555980  60.4772550   4.0263470
  63.6188090  62.5361720   4.6527470  62.9104240  63.0048060   5.0941080
  63.9032570  61.8783730   5.2872660  65.2444020  63.9558420  12.6520000
  65.7429270  64.4304240  13.3171850  65.3866970  63.0321940  12.8590030
  67.6503520  59.2612380   6.0923260  67.5271300  59.2798510   5.1432770
  68.5988080  59.3091320   6.2121660  61.8223110  60.8446800   2.0278180
  62.6713640  61.2816950   1.9618370  61.4554380  61.1567060   2.8550240
  70.7432890  65.4159560   6.9409750  69.8023030  65.4309790   7.1157440
  71.0576960  64.6295520   7.3870050  57.1021480  70.7473190   4.1622650
  56.1761260  70.9894330   4.1528060  57.5677910  71.5747450   4.0407400
  68.0598910  69.9725560  17.4242130  67.4537070  69.9957160  16.6837880
  67.7553020  69.2408600  17.9609380  56.9432090  66.3519150  16.4202770
  57.4471110  65.7726430  16.9919000  56.2039510  66.6359380  16.9579140
  63.9970030  67.7590140  15.9538290  63.2315700  68.3275140  15.8692960
  64.1785990  67.4666350  15.0606520  71.1393380  69.4895470  16.5113310
  71.8802850  69.8271230  16.0080770  70.3766060  69.6587530  15.9583080
  58.9755170  64.4948740  17.3152840  59.0160510  64.1962610  18.2238070
  59.8300670  64.8956350  17.1560360  62.7533560  67.0944290   2.4756350
  63.1749980  66.9284160   3.3187740  62.8784400  66.2844520   1.9811490
  60.9160980  63.0740840  15.2827330  60.3857440  62.5831790  14.6550670
  61.5849050  63.5025040  14.7485260  69.8139040  67.5410300  15.0468520
  70.2280060  67.6955380  15.8958940  68.8790040  67.6665520  15.2094300
  70.2861210  64.8806460  17.0507670  70.8681980  64.1258780  16.9628150
  70.4622980  65.4113900  16.2739150  61.4033280  60.0403210  15.3624620
  61.3090150  59.4223960  14.6375490  60.8230670  60.7669500  15.1354530
  64.1694720  58.5976450  12.3952010  63.7212020  58.6200710  11.5497560
  63.5359920  58.1995470  12.9922310  64.5754270  67.4930780  13.0164450
  64.9942380  68.3363510  12.8440690  63.6562900  67.6302820  12.7871230
  66.9118170  65.2246960  14.4002290  67.0314380  64.6288100  15.1397130
  67.7712170  65.2616650  13.9803590  69.2506070  65.7784150  12.9764800
  68.7241290  66.3026770  12.3729940  69.5937410  66.4111540  13.6074530
  63.6786940  61.7668310  15.6578110  64.2686630  61.4584160  16.3455930
  62.8607180  61.2948060  15.8138010  68.4980370  61.3834120  15.8911130
  67.8095890  60.7215660  15.8261120  69.2186390  60.9372390  16.3359590
  69.1280770  57.9785750   1.9501390  69.4083060  57.1353650   2.3060810
  68.3546500  58.2108860   2.4640140  56.6851190  72.3609590   7.6942450
  57.0154200  71.4930650   7.4621090  57.1142190  72.5668110   8.5247410
  61.2813110  70.6918600   5.3544420  60.9808650  70.5683570   6.2548330
  61.1750600  69.8327190   4.9460150  57.0065830  65.7400410   6.7912960
  56.3514670  65.4712050   6.1472660  57.8443780  65.6304890   6.3414940
  71.4955220  69.4549160  12.8177550  70.6815060  69.8846320  13.0803340
  71.9029420  70.0667570  12.2046600  58.0441760  66.1252980  11.3316300
  58.4114800  66.0380380  12.2112320  57.4752580  65.3619530  11.2323160
  57.5957760  63.0362070  15.2374720  56.7013810  63.0028830  15.5768430
  58.1355310  63.2348860  16.0025970  71.2833690  59.8193790  17.1226470
  72.1603870  59.8277190  17.5060470  71.2954530  59.0824630  16.5118820
  56.2203910  62.9499340   2.7338290  55.3167990  63.2129540   2.5589950
  56.7044530  63.2210510   1.9538250  58.0997470  57.3110400   9.5857940
  58.7473660  56.7607780   9.1453100  58.5199310  57.5653550  10.4073750
  57.8529470  57.4666070  12.3283260  57.5044290  57.9229890  13.0941440
  57.5217170  56.5723200  12.4105690  59.4593840  70.6385670  16.4936450
  59.4163470  70.2678580  17.3750910  59.5904850  71.5763240  16.6338270
  63.1599870  72.1945260  12.0946170  62.9191230  72.4619820  11.2076690
  64.1002510  72.3650990  12.1497030  65.3654290  58.6577950  15.8502680
  65.3043180  59.2499780  16.5998090  66.3054670  58.5503910  15.7052940
  68.0028850  58.3148010  15.4894970  68.6169260  58.6327300  14.8276050
  68.5478410  57.8296600  16.1090830  58.5250110  56.9942270  15.6034030
  59.0733100  56.8130320  14.8400140  58.5905420  56.2036380  16.1390340
  59.2981870  73.5847920  13.6134230  58.7042190  73.4532620  14.3524270
  59.2905710  72.7486060  13.1476330  68.7436890  56.8780150  11.8164260
  67.8696730  57.2115260  11.6137190  68.6347640  56.4053330  12.6416130
  69.6508870  59.0851020  13.2005980  69.3222230  58.2702780  12.8207710
  70.5991170  59.0420830  13.0771670  58.9294100  70.9506300  12.5642270
  58.2028160  70.3311590  12.4968220  58.9903250  71.3446910  11.6940350
  62.5339200  73.1651300   9.3491680  63.0504220  72.5538660   8.8239940
  63.1836580  73.6680080   9.8402690  66.4911710  57.7949990  10.7557170
  65.7083500  58.2695490  11.0353930  66.1974640  56.8904820  10.6470350
  71.0432780  58.4973090   8.8006260  71.4840870  58.4418190   7.9527860
  70.7740370  59.4131100   8.8716440  57.8352120  58.0997470   3.2770890
  58.5931480  58.2126350   2.7034920  57.3729290  58.9366670   3.2314320
  64.3765930  60.2136740   6.2673200  63.5640440  59.8393630   5.9269080
  64.8807570  59.4581820   6.5694390  68.8790910  56.8779190   7.5056270
  69.4820280  57.4499400   7.9804790  68.1383900  57.4418630   7.2830170
  72.0225510  57.2800750   2.7796550  72.2176140  58.1784200   3.0463980
  71.2355380  57.0487830   3.2729500  58.8186800  72.9613920   3.2189170
  58.2934420  73.3421950   2.5151130  58.7431380  73.5864690   3.9398880
  60.2077270  58.6261520   1.8172860  60.7370030  57.8391320   1.6880810
  60.8405590  59.3052710   2.0508390  62.4015110  58.3636660   4.8718250
  61.7717850  57.6623970   5.0388380  61.8620250  59.1240790   4.6551410
  62.5270670  57.6420640  17.3070740  62.2454940  58.1454240  16.5431560
  62.9090370  56.8442390  16.9412870  60.5794560  71.0261030   2.0984750
  59.9503440  71.4946130   2.6470580  60.6942390  70.1810250   2.5330940
  69.1286130  57.0574220  17.8851210  69.0151580  57.3768830  18.7802730
  69.9455870  57.4586730  17.5888490  68.0344280  46.3023200  63.3459910
  67.9538330  45.3877810  63.0751620  67.6208700  46.7990270  62.6399620
  66.1662320  48.0802220  65.2269180  65.3904420  47.6002660  65.5167750
  66.8175250  47.4007870  65.0525340  60.1828150  48.3922030  66.1044940
  59.3513030  48.1370740  66.5041450  60.7909130  48.4632800  66.8402860
  70.1869750  52.4862410  64.0068310  69.7251280  51.7149650  64.3355480
  70.9995300  52.5128480  64.5120760  60.1629410  52.4262120  66.3002960
  60.4657450  51.5359860  66.1213180  60.9073000  52.9832340  66.0725210
  58.5920100  43.3523920  59.8887330  57.7036800  43.6939890  59.7867210
  58.8761290  43.1524240  58.9968160  56.5553110  45.9529570  65.7727030
  57.1269220  45.1851770  65.7730670  56.5554650  46.2518330  64.8633640
  66.4133060  54.7720420  63.6272300  65.7944500  55.2277920  63.0566740
  67.2684840  54.9271880  63.2262000  65.6071310  50.7559410  65.2339340
  65.5379590  49.8149350  65.0728470  66.3691170  50.8460820  65.8061910
  57.7977980  41.3613930  67.5595960  57.6180820  40.4639680  67.8398720
  57.3958060  41.9085800  68.2342910  66.6376480  43.5629790  65.4608270
  67.0141300  42.6901670  65.3481940  66.5395990  43.8988490  64.5698710
  60.7681490  41.9355420  60.9225710  60.8748240  42.8359150  61.2294470
  59.8573850  41.8873390  60.6320360  70.4200600  41.0580230  62.3936610
  71.2410220  40.5676800  62.4362090  70.4534680  41.6477890  63.1468450
  58.4164650  43.8574430  66.1678300  59.0974760  44.1212800  66.7865700
  58.1012700  43.0175300  66.5016310  62.6089220  44.9041790  65.2550890
  63.1167440  45.4022760  65.8955910  63.1402460  44.1276990  65.0790250
  60.8925320  39.5440350  69.5214310  60.8943760  40.0612740  68.7160210
  60.0629630  39.0670530  69.4984240  67.2796410  49.6559660  61.0204210
  66.6613680  50.1209110  60.4566930  67.7919660  50.3487140  61.4373720
  62.1428170  49.1835530  67.6987810  61.8097550  49.8104450  68.3408880
  62.3194850  49.7097410  66.9189480  70.6562080  42.9980610  65.1664150
  69.9517650  43.2865500  65.7467260  71.0174240  43.8080720  64.8063710
  60.5740650  41.2550310  67.5284760  60.9157460  42.0992360  67.2338630
  59.6356460  41.4034050  67.6450100  61.3547270  51.1516330  69.5136990
  61.9721270  51.8267410  69.2321440  60.4940390  51.5604310  69.4224490
  56.6479610  50.3416190  58.3943840  56.2707590  50.8303290  57.6628740
  56.9052680  51.0141470  59.0250370  64.2568540  38.7432580  63.8529350
  64.5643520  38.1879470  63.1364850  63.3269240  38.8777040  63.6702340
  69.8083600  54.4599870  66.1436810  69.8210760  54.0562160  65.2759070
  69.2558820  55.2347160  66.0398240  71.1029020  51.1816090  61.2326980
  70.9925350  50.2390420  61.3576400  71.0997270  51.5431730  62.1189740
  69.2069040  49.3629710  67.4719420  69.6237830  49.1489820  66.6372880
  69.9308860  49.6202500  68.0428040  66.6449300  46.8081410  60.5889470
  65.7178580  46.7418790  60.8177940  66.7974120  47.7461540  60.4744710
  66.6318380  43.0798410  57.5856630  65.6922050  43.2412370  57.6709090
  66.9501640  43.7984090  57.0392620  70.6746590  48.3701710  61.0924720
  70.0559010  48.0321260  60.4451020  70.6571040  47.7261470  61.8003910
  70.1173150  44.5486250  68.5090530  69.7044330  45.3739960  68.7630520
  69.3849100  43.9631290  68.3166890  62.2505940  47.3346150  63.3709200
  61.8462940  46.6223400  62.8755100  62.3369060  46.9899390  64.2597240
  62.7187640  51.0213710  65.5348410  62.4215930  50.4159180  64.8556190
  63.6687460  51.0591020  65.4237770  60.9634560  44.1089360  67.1508240
  61.5149150  44.2184700  66.3761490  61.4778070  44.4826960  67.8663470
  70.8073250  54.5945580  69.1971510  70.3303810  55.4017770  69.0044120
  70.1235040  53.9423910  69.3497720  68.8511290  47.6088520  58.0997470
  69.2904570  46.7710950  57.9535290  69.5639710  48.2417920  58.1861610
  60.6377290  47.6308720  70.7613580  60.4985060  48.5031520  71.1300980
  59.7558650  47.2881530  70.6161520  66.9606670  52.5484590  62.0678710
  67.4002580  53.2908920  61.6534100  66.8993560  52.7911160  62.9917670
  58.9510570  46.2291130  60.8715850  58.8308170  46.9553220  60.2597120
  58.6411460  45.4594040  60.3943760  56.5895940  49.4006270  66.6784490
  56.6676360  49.5355040  65.7340210  57.2037620  48.6922160  66.8712610
  57.8343570  51.1006460  63.0890670  57.4271650  51.2421050  62.2344270
  58.7256580  50.8166620  62.8861880  67.6522450  55.2498370  69.9957720
  68.1667120  55.1606380  70.7980150  66.8091530  55.5958070  70.2885630
  69.6276850  55.5353710  59.4241720  69.4677990  55.2456650  60.3223550
  69.4623560  54.7593840  58.8886950  62.1065230  55.3152240  61.2013340
  61.9307710  54.3987780  60.9881140  61.2520970  55.6739530  61.4411140
  69.3302980  53.0441270  57.9839720  68.6368140  53.0418560  57.3242000
  70.0725840  52.6200590  57.5533890  68.8952910  54.6703980  62.0588210
  69.3509860  53.8893360  62.3726830  69.2345430  55.3810800  62.6029390
  56.6455460  50.4420440  69.2178950  56.8086500  49.9725800  68.3998320
  57.1107910  49.9344000  69.8827790  61.4174230  39.5726200  64.2539520
  60.9742380  40.3535740  63.9224040  61.9759220  39.8956090  64.9610460
  65.7044040  42.4394720  69.8574840  65.2423410  42.6477740  70.6694780
  65.3022150  41.6254070  69.5545510  70.7048550  43.6603670  70.9871500
  69.8542140  43.3609420  71.3080570  70.5450340  43.9045680  70.0755320
  64.5333050  39.1936900  59.1345350  63.9087230  39.1896770  59.8598660
  64.4463170  38.3267860  58.7381320  63.4550130  40.1173530  66.1129120
  63.7522460  41.0236360  66.0321140  64.0035690  39.6292310  65.4988690
  61.2088450  44.6959770  61.9820770  60.9829370  44.4796940  62.8867390
  60.4280980  45.1288230  61.6366740  68.4386210  44.7023140  60.5811420
  67.8395100  45.4258940  60.3975040  68.9865820  44.6399920  59.7987870
  67.0451080  43.3386680  62.6114700  67.4380650  43.6558880  61.7983390
  67.4067930  42.4598560  62.7259220  58.7798200  42.0059020  70.8014820
  58.3861590  42.8534230  71.0087600  58.0916600  41.3685390  70.9923460
  56.0815250  39.9287480  64.8344900  55.7928300  40.4990340  65.5469880
  56.8261010  39.4491930  65.1976130  56.2685480  43.8707600  56.0447620
  56.1860150  44.8138360  56.1862610  55.9168540  43.7282510  55.1659970
  67.6306220  45.9292430  66.7065480  66.8987340  46.4379240  67.0555580
  67.2330560  45.1122410  66.4054260  64.0683610  42.6046630  65.1117970
  64.0719670  42.1636580  64.2622510  64.9634730  42.9263960  65.2189790
  59.9185990  42.4873120  64.0712180  59.5786040  42.9648350  64.8279230
  59.1563310  42.0338240  63.7113280  64.1303760  43.6058710  58.1024730
  64.2516580  43.5645190  59.0510550  63.7452270  44.4682860  57.9471460
  68.0932130  41.3826110  66.1188420  68.1104870  41.8334760  66.9630270
  67.8447710  40.4831750  66.3321860  63.1425260  45.9159850  57.5008030
  62.5742160  45.4678100  56.8743940  63.8514260  46.2752630  56.9673180
  58.2194440  49.8171870  71.3774760  57.8349230  49.1765540  71.9757720
  58.5306630  50.5207990  71.9469490  64.3691580  46.6648410  66.8583380
  64.7361710  46.1906980  67.6044720  64.1796640  47.5389980  67.1991720
  57.2332070  41.4092100  62.9876850  56.9478990  41.0447770  63.8255470
  57.1710930  40.6772560  62.3739990  62.1590950  45.7057050  69.1767590
  61.8548020  46.5849030  69.4017950  63.1137410  45.7656840  69.2125030
  60.6872740  49.9118040  59.7734440  59.9135000  49.3715660  59.6133160
  61.4167370  49.3924650  59.4352200  71.4460720  48.9083400  65.5660830
  72.1659840  49.4038690  65.1756940  71.2442540  48.2301290  64.9214700
  66.9070660  40.3021360  59.7090220  66.0935270  39.8034530  59.6335530
  66.7132610  41.1419610  59.2926570  66.8279520  48.9792460  71.4529830
  66.7616830  48.0588130  71.1987420  66.1984660  49.0767900  72.1674470
  69.6219050  44.6741010  58.0052380  70.5098670  44.9858240  57.8303720
  69.5924140  43.8013260  57.6132960  60.7310140  49.5798420  63.4113250
  61.2488810  48.7766680  63.3570140  60.2794160  49.5177560  64.2530080
  65.6179640  50.8464700  58.6840550  65.9595340  51.5906930  58.1883870
  64.7892350  51.1595820  59.0465380  58.2154680  46.5459790  70.3238950
  57.8569620  47.2113640  70.9112290  57.9209240  45.7143340  70.6951570
  66.7596250  51.8013030  71.2033630  66.7740790  50.8693990  70.9852540
  66.0521350  51.8872790  71.8423400  68.5007050  50.1680540  64.0486060
  68.8530870  49.5708670  63.3887430  67.6169380  49.8424770  64.2194310
  64.5870330  50.9278230  61.4556470  65.2741460  51.4747440  61.8364060
  63.8002750  51.4718960  61.4906080  56.7262730  46.5451050  56.9473550
  57.5957580  46.8275850  57.2309470  56.2353050  47.3586920  56.8322360
  63.8897540  47.9324260  61.0681830  64.3460320  48.7429510  61.2942020
  63.5385750  47.6147400  61.9000320  66.1930150  53.4430600  68.2974130
  66.8372370  53.6489980  68.9747550  66.5559590  52.6819000  67.8444980
  59.7909320  38.2761910  61.5404350  59.6623950  38.2679810  62.4889270
  58.9671340  38.6145000  61.1895360  67.4662230  51.4462950  67.0151580
  68.1084460  50.7456110  67.1283750  67.9911580  52.2261390  66.8348470
  71.3117950  51.7311570  56.7390720  71.0855530  51.0142010  57.3315360
  70.9214150  51.4824010  55.9012470  69.2399850  52.2457850  70.2187640
  69.5756090  52.8324540  70.8965560  68.3200190  52.1150560  70.4485430
  57.0933980  55.7578430  57.5135180  57.4531620  56.3567770  56.8592450
  56.9526320  56.3038320  58.2870210  56.7903250  40.0353030  71.0011050
  56.0761770  40.2349950  71.6063660  57.2098290  39.2592600  71.3725850
  70.8934200  49.6483510  58.4004880  70.6055900  50.1096200  59.1882760
  71.6886370  49.1881280  58.6689100  57.0775840  54.0233290  71.9877580
  57.1866960  53.0828030  71.8472970  56.4256400  54.2888040  71.3391310
  63.1102600  53.1409630  58.3308850  63.1012700  53.8739320  57.7153360
  62.1900960  52.8941210  58.4235810  58.7109240  48.3624520  59.0755610
  58.1037190  49.1023420  59.0850910  59.1858590  48.4523880  58.2493810
  68.2842030  42.5275340  68.7512500  68.6522850  41.7070550  69.0792070
  67.4240230  42.5877230  69.1668150  71.6504060  41.4832280  59.5600060
  71.0217220  41.5877950  58.8458290  71.1555980  41.7029060  60.3493940
  66.0962200  53.2037870  56.9934040  66.1974180  53.0001860  56.0636020
  65.1963940  52.9496150  57.1981820  63.6188090  43.7618230  60.9757940
  62.9104240  44.2304570  61.4171550  63.9032570  43.1040240  61.6103130
  65.2444020  45.1814930  68.9750470  65.7429270  45.6560750  69.6402320
  65.3866970  44.2578450  69.1820500  67.6503520  40.4868890  62.4153730
  67.5271300  40.5055020  61.4663240  68.5988080  40.5347830  62.5352130
  64.7380310  55.7224190  61.6881710  64.9921810  55.6845580  60.7661080
  63.7892790  55.5957520  61.6809960  61.8223110  42.0703310  58.3508650
  62.6713640  42.5073460  58.2848840  61.4554380  42.3823570  59.1780710
  70.7432890  46.6416070  63.2640220  69.8023030  46.6566300  63.4387910
  71.0576960  45.8552030  63.7100520  60.7214530  48.3235670  56.8244180
  61.4877800  48.2117030  57.3869610  60.7989220  47.6273640  56.1720950
  59.4161290  45.7560740  57.5077070  59.4964880  44.8088250  57.6194470
  60.3081040  46.0867620  57.6137730  60.2176000  55.9056130  64.6111610
  60.9538480  55.3571590  64.8820180  60.6016920  56.7712140  64.4717600
  57.1021480  51.9729700  60.4853120  56.1761260  52.2150840  60.4758530
  57.5677910  52.8003960  60.3637870  63.3278310  55.0786440  56.4337180
  64.1206920  55.3675270  55.9818970  62.8082660  54.6478610  55.7549660
  72.3808480  54.3056570  57.8573920  72.0949990  53.8921710  57.0428100
  72.1828030  55.2344280  57.7374440  63.8455710  50.2989850  56.2979530
  63.7406350  49.6842200  57.0240910  63.6779930  49.7755740  55.5142540
  67.0858440  49.3609880  56.9021520  66.5368540  49.8079180  57.5464260
  67.7077700  48.8559130  57.4259190  62.7533560  48.3200800  58.7986820
  63.1749980  48.1540670  59.6418210  62.8784400  47.5101030  58.3041960
  60.9160980  44.2997350  71.6057800  60.3857440  43.8088300  70.9781140
  61.5849050  44.7281550  71.0715730  65.2661200  47.3438410  56.0463920
  65.7866860  46.6287430  55.6805070  65.9129600  47.9824280  56.3464430
  69.8139040  48.7666810  71.3698990  70.2280060  48.9211890  72.2189410
  68.8790040  48.8922030  71.5324770  61.4033280  41.2659720  71.6855090
  61.3090150  40.6480470  70.9605960  60.8230670  41.9926010  71.4585000
  64.1694720  39.8232960  68.7182480  63.7212020  39.8457220  67.8728030
  63.5359920  39.4251980  69.3152780  64.5754270  48.7187290  69.3394920
  64.9942380  49.5620020  69.1671160  63.6562900  48.8559330  69.1101700
  66.9118170  46.4503470  70.7232760  67.0314380  45.8544610  71.4627600
  67.7712170  46.4873160  70.3034060  69.2506070  47.0040660  69.2995270
  68.7241290  47.5283280  68.6960410  69.5937410  47.6368050  69.9305000
  61.6492460  44.3934030  55.7444980  61.4481520  43.5301390  56.1058320
  61.4784510  44.3067390  54.8066580  62.4261690  55.0240300  70.4552650
  61.8882780  55.7486360  70.1361350  62.6795650  54.5470640  69.6649990
  69.1280770  39.2042260  58.2731860  69.4083060  38.3610160  58.6291280
  68.3546500  39.4365370  58.7870610  60.4475260  41.4934650  55.7322860
  60.7501160  41.5002080  54.8242010  61.1869850  41.1432510  56.2290520
  65.2823900  56.2591510  70.7139300  65.2082600  57.1626650  71.0211670
  64.3802740  55.9403410  70.6861370  63.6660190  40.4369270  56.7179060
  63.3182190  39.7593260  56.1381510  63.8672960  39.9758780  57.5322450
  65.8309230  55.4250020  58.3365660  66.7260020  55.7634990  58.3584420
  65.8626860  54.7029430  57.7089940  59.4705390  50.7977070  56.5652660
  59.9080260  51.3406740  57.2210240  59.9553120  49.9724020  56.5749000
  56.6851190  53.5866100  64.0172920  57.0154200  52.7187160  63.7851560
  57.1142190  53.7924620  64.8477880  61.2813110  51.9175110  61.6774890
  60.9808650  51.7940080  62.5778800  61.1750600  51.0583700  61.2690620
  57.1741400  54.4536690  66.7554550  56.7372390  54.6337490  67.5878700
  57.7419080  55.2111310  66.6136270  57.0065830  46.9656920  63.1143430
  56.3514670  46.6968560  62.4703130  57.8443780  46.8561400  62.6645410
  71.4955220  50.6805670  69.1408020  70.6815060  51.1102830  69.4033810
  71.9029420  51.2924080  68.5277070  69.9556270  41.7598210  57.3361920
  70.3741150  41.5729190  56.4958580  69.6492330  40.9077260  57.6464850
  58.0441760  47.3509490  67.6546770  58.4114800  47.2636890  68.5342790
  57.4752580  46.5876040  67.5553630  56.2203910  44.1755850  59.0568760
  55.3167990  44.4386050  58.8820420  56.7044530  44.4467020  58.2768720
  58.7631120  43.2321390  56.9663140  59.4722820  42.8104610  56.4810420
  58.0471060  43.2996620  56.3346490  58.4105280  39.2860720  56.0065790
  59.1333410  39.8269660  56.3247010  58.6829800  39.0124140  55.1307330
  58.0997470  38.5366910  65.9088410  58.7473660  37.9864290  65.4683570
  58.5199310  38.7910060  66.7304220  71.5531270  55.4324270  62.6676290
  72.1490340  55.1108840  61.9910710  71.8109420  54.9596090  63.4589560
  57.8529470  38.6922580  68.6513730  57.5044290  39.1486400  69.4171910
  57.5217170  37.7979710  68.7336160  63.1599870  53.4201770  68.4176640
  62.9191230  53.6876330  67.5307160  64.1002510  53.5907500  68.4727500
  59.2981870  54.8104430  69.9364700  58.7042190  54.6789130  70.6754740
  59.2905710  53.9742570  69.4706800  68.7436890  38.1036660  68.1394730
  67.8696730  38.4371770  67.9367660  68.6347640  37.6309840  68.9646600
  69.6508870  40.3107530  69.5236450  69.3222230  39.4959290  69.1438180
  70.5991170  40.2677340  69.4002140  72.1043480  56.0819570  66.4974020
  71.6446450  56.8335380  66.1232040  71.4755940  55.3626040  66.4388820
  58.9294100  52.1762810  68.8872740  58.2028160  51.5568100  68.8198690
  58.9903250  52.5703420  68.0170820  62.5339200  54.3907810  65.6722150
  63.0504220  53.7795170  65.1470410  63.1836580  54.8936590  66.1633160
  65.2734700  55.2816300  66.4991130  65.5612510  55.0270600  65.6224140
  65.7857920  54.7293660  67.0896700  66.4911710  39.0206500  67.0787640
  65.7083500  39.4952000  67.3584400  66.1974640  38.1161330  66.9700820
  71.0432780  39.7229600  65.1236730  71.4840870  39.6674700  64.2758330
  70.7740370  40.6387610  65.1946910  57.2124100  55.4937200  62.0969500
  57.0446140  54.8607880  62.7951390  56.3458610  55.6996600  61.7463690
  57.8352120  39.3253980  59.6001360  58.5931480  39.4382860  59.0265390
  57.3729290  40.1623180  59.5544790  64.3765930  41.4393250  62.5903670
  63.5640440  41.0650140  62.2499550  64.8807570  40.6838330  62.8924860
  68.8790910  38.1035700  63.8286740  69.4820280  38.6755910  64.3035260
  68.1383900  38.6675140  63.6060640  72.0225510  38.5057260  59.1027020
  72.2176140  39.4040710  59.3694450  71.2355380  38.2744340  59.5959970
  58.8186800  54.1870430  59.5419640  58.2934420  54.5678460  58.8381600
  58.7431380  54.8121200  60.2629350  60.2077270  39.8518030  58.1403330
  60.7370030  39.0647830  58.0111280  60.8405590  40.5309220  58.3738860
  62.4015110  39.5893170  61.1948720  61.7717850  38.8880480  61.3618850
  61.8620250  40.3497300  60.9781880  61.4179770  56.1352810  58.4168890
  62.1498590  55.8512090  57.8692780  61.6773440  55.8966090  59.3068270
  60.5794560  52.2517540  58.4215220  59.9503440  52.7202640  58.9701050
  60.6942390  51.4066760  58.8561410  68.0344280  46.3023200  44.5716420
  67.9538330  45.3877810  44.3008130  67.6208700  46.7990270  43.8656130
  66.1662320  48.0802220  46.4525690  65.3904420  47.6002660  46.7424260
  66.8175250  47.4007870  46.2781850  60.1828150  48.3922030  47.3301450
  59.3513030  48.1370740  47.7297960  60.7909130  48.4632800  48.0659370
  70.1869750  52.4862410  45.2324820  69.7251280  51.7149650  45.5611990
  70.9995300  52.5128480  45.7377270  60.1629410  52.4262120  47.5259470
  60.4657450  51.5359860  47.3469690  60.9073000  52.9832340  47.2981720
  58.5920100  43.3523920  41.1143840  57.7036800  43.6939890  41.0123720
  58.8761290  43.1524240  40.2224670  56.5553110  45.9529570  46.9983540
  57.1269220  45.1851770  46.9987180  56.5554650  46.2518330  46.0890150
  66.4133060  54.7720420  44.8528810  65.7944500  55.2277920  44.2823250
  67.2684840  54.9271880  44.4518510  65.6071310  50.7559410  46.4595850
  65.5379590  49.8149350  46.2984980  66.3691170  50.8460820  47.0318420
  57.7977980  41.3613930  48.7852470  57.6180820  40.4639680  49.0655230
  57.3958060  41.9085800  49.4599420  66.6376480  43.5629790  46.6864780
  67.0141300  42.6901670  46.5738450  66.5395990  43.8988490  45.7955220
  60.7681490  41.9355420  42.1482220  60.8748240  42.8359150  42.4550980
  59.8573850  41.8873390  41.8576870  70.4200600  41.0580230  43.6193120
  71.2410220  40.5676800  43.6618600  70.4534680  41.6477890  44.3724960
  58.4164650  43.8574430  47.3934810  59.0974760  44.1212800  48.0122210
  58.1012700  43.0175300  47.7272820  62.6089220  44.9041790  46.4807400
  63.1167440  45.4022760  47.1212420  63.1402460  44.1276990  46.3046760
  60.8925320  39.5440350  50.7470820  60.8943760  40.0612740  49.9416720
  60.0629630  39.0670530  50.7240750  67.2796410  49.6559660  42.2460720
  66.6613680  50.1209110  41.6823440  67.7919660  50.3487140  42.6630230
  62.1428170  49.1835530  48.9244320  61.8097550  49.8104450  49.5665390
  62.3194850  49.7097410  48.1445990  70.6562080  42.9980610  46.3920660
  69.9517650  43.2865500  46.9723770  71.0174240  43.8080720  46.0320220
  60.5740650  41.2550310  48.7541270  60.9157460  42.0992360  48.4595140
  59.6356460  41.4034050  48.8706610  61.3547270  51.1516330  50.7393500
  61.9721270  51.8267410  50.4577950  60.4940390  51.5604310  50.6481000
  56.6479610  50.3416190  39.6200350  56.2707590  50.8303290  38.8885250
  56.9052680  51.0141470  40.2506880  64.2568540  38.7432580  45.0785860
  64.5643520  38.1879470  44.3621360  63.3269240  38.8777040  44.8958850
  69.8083600  54.4599870  47.3693320  69.8210760  54.0562160  46.5015580
  69.2558820  55.2347160  47.2654750  71.1029020  51.1816090  42.4583490
  70.9925350  50.2390420  42.5832910  71.0997270  51.5431730  43.3446250
  69.2069040  49.3629710  48.6975930  69.6237830  49.1489820  47.8629390
  69.9308860  49.6202500  49.2684550  66.6449300  46.8081410  41.8145980
  65.7178580  46.7418790  42.0434450  66.7974120  47.7461540  41.7001220
  66.6318380  43.0798410  38.8113140  65.6922050  43.2412370  38.8965600
  66.9501640  43.7984090  38.2649130  70.6746590  48.3701710  42.3181230
  70.0559010  48.0321260  41.6707530  70.6571040  47.7261470  43.0260420
  70.1173150  44.5486250  49.7347040  69.7044330  45.3739960  49.9887030
  69.3849100  43.9631290  49.5423400  62.2505940  47.3346150  44.5965710
  61.8462940  46.6223400  44.1011610  62.3369060  46.9899390  45.4853750
  62.7187640  51.0213710  46.7604920  62.4215930  50.4159180  46.0812700
  63.6687460  51.0591020  46.6494280  60.9634560  44.1089360  48.3764750
  61.5149150  44.2184700  47.6018000  61.4778070  44.4826960  49.0919980
  70.8073250  54.5945580  50.4228020  70.3303810  55.4017770  50.2300630
  70.1235040  53.9423910  50.5754230  61.8106070  50.7595400  53.4112720
  60.9134600  50.9835370  53.6586120  61.8358940  50.8830340  52.4624120
  68.8511290  47.6088520  39.3253980  69.2904570  46.7710950  39.1791800
  69.5639710  48.2417920  39.4118120  60.6377290  47.6308720  51.9870090
  60.4985060  48.5031520  52.3557490  59.7558650  47.2881530  51.8418030
  66.9606670  52.5484590  43.2935220  67.4002580  53.2908920  42.8790610
  66.8993560  52.7911160  44.2174180  62.4357640  53.5730420  54.1955240
  62.4073070  53.9773370  53.3283670  62.2722610  52.6440780  54.0326840
  58.9510570  46.2291130  42.0972360  58.8308170  46.9553220  41.4853630
  58.6411460  45.4594040  41.6200270  56.5895940  49.4006270  47.9041000
  56.6676360  49.5355040  46.9596720  57.2037620  48.6922160  48.0969120
  57.8343570  51.1006460  44.3147180  57.4271650  51.2421050  43.4600780
  58.7256580  50.8166620  44.1118390  67.6522450  55.2498370  51.2214230
  68.1667120  55.1606380  52.0236660  66.8091530  55.5958070  51.5142140
  69.6276850  55.5353710  40.6498230  69.4677990  55.2456650  41.5480060
  69.4623560  54.7593840  40.1143460  62.1065230  55.3152240  42.4269850
  61.9307710  54.3987780  42.2137650  61.2520970  55.6739530  42.6667650
  69.3302980  53.0441270  39.2096230  68.6368140  53.0418560  38.5498510
  70.0725840  52.6200590  38.7790400  68.8952910  54.6703980  43.2844720
  69.3509860  53.8893360  43.5983340  69.2345430  55.3810800  43.8285900
  56.6455460  50.4420440  50.4435460  56.8086500  49.9725800  49.6254830
  57.1107910  49.9344000  51.1084300  61.4174230  39.5726200  45.4796030
  60.9742380  40.3535740  45.1480550  61.9759220  39.8956090  46.1866970
  65.7044040  42.4394720  51.0831350  65.2423410  42.6477740  51.8951290
  65.3022150  41.6254070  50.7802020  70.7048550  43.6603670  52.2128010
  69.8542140  43.3609420  52.5337080  70.5450340  43.9045680  51.3011830
  67.7998260  45.1605420  54.3126800  68.1251670  44.3269170  53.9729030
  68.5878590  45.6833940  54.4605130  64.5333050  39.1936900  40.3601860
  63.9087230  39.1896770  41.0855170  64.4463170  38.3267860  39.9637830
  63.4550130  40.1173530  47.3385630  63.7522460  41.0236360  47.2577650
  64.0035690  39.6292310  46.7245200  61.2088450  44.6959770  43.2077280
  60.9829370  44.4796940  44.1123900  60.4280980  45.1288230  42.8623250
  68.4386210  44.7023140  41.8067930  67.8395100  45.4258940  41.6231550
  68.9865820  44.6399920  41.0244380  63.6487660  45.5945350  53.8737550
  63.5531260  44.6540080  53.7237950  64.4919640  45.8160420  53.4785620
  67.0451080  43.3386680  43.8371210  67.4380650  43.6558880  43.0239900
  67.4067930  42.4598560  43.9515730  58.7798200  42.0059020  52.0271330
  58.3861590  42.8534230  52.2344110  58.0916600  41.3685390  52.2179970
  65.3543250  42.0893990  55.0968070  64.6641570  41.8966190  55.7314160
  66.0975550  42.3728630  55.6292370  56.0815250  39.9287480  46.0601410
  55.7928300  40.4990340  46.7726390  56.8261010  39.4491930  46.4232640
  56.2685480  43.8707600  37.2704130  56.1860150  44.8138360  37.4119120
  55.9168540  43.7282510  36.3916480  67.6306220  45.9292430  47.9321990
  66.8987340  46.4379240  48.2812090  67.2330560  45.1122410  47.6310770
  64.0683610  42.6046630  46.3374480  64.0719670  42.1636580  45.4879020
  64.9634730  42.9263960  46.4446300  59.9185990  42.4873120  45.2968690
  59.5786040  42.9648350  46.0535740  59.1563310  42.0338240  44.9369790
  64.1303760  43.6058710  39.3281240  64.2516580  43.5645190  40.2767060
  63.7452270  44.4682860  39.1727970  68.0932130  41.3826110  47.3444930
  68.1104870  41.8334760  48.1886780  67.8447710  40.4831750  47.5578370
  63.1425260  45.9159850  38.7264540  62.5742160  45.4678100  38.1000450
  63.8514260  46.2752630  38.1929690  71.5202880  38.7958290  53.1831310
  71.8448650  38.0647950  53.7089290  71.5559390  38.4771930  52.2812300
  58.2194440  49.8171870  52.6031270  57.8349230  49.1765540  53.2014230
  58.5306630  50.5207990  53.1726000  64.3691580  46.6648410  48.0839890
  64.7361710  46.1906980  48.8301230  64.1796640  47.5389980  48.4248230
  57.2332070  41.4092100  44.2133360  56.9478990  41.0447770  45.0511980
  57.1710930  40.6772560  43.5996500  62.1590950  45.7057050  50.4024100
  61.8548020  46.5849030  50.6274460  63.1137410  45.7656840  50.4381540
  60.6872740  49.9118040  40.9990950  59.9135000  49.3715660  40.8389670
  61.4167370  49.3924650  40.6608710  71.4460720  48.9083400  46.7917340
  72.1659840  49.4038690  46.4013450  71.2442540  48.2301290  46.1471210
  66.9070660  40.3021360  40.9346730  66.0935270  39.8034530  40.8592040
  66.7132610  41.1419610  40.5183080  66.8279520  48.9792460  52.6786340
  66.7616830  48.0588130  52.4243930  66.1984660  49.0767900  53.3930980
  69.6219050  44.6741010  39.2308890  70.5098670  44.9858240  39.0560230
  69.5924140  43.8013260  38.8389470  60.7310140  49.5798420  44.6369760
  61.2488810  48.7766680  44.5826650  60.2794160  49.5177560  45.4786590
  65.6179640  50.8464700  39.9097060  65.9595340  51.5906930  39.4140380
  64.7892350  51.1595820  40.2721890  58.2154680  46.5459790  51.5495460
  57.8569620  47.2113640  52.1368800  57.9209240  45.7143340  51.9208080
  61.4167800  47.0044030  54.4335010  61.1167940  47.1501210  53.5362830
  62.1879040  46.4449320  54.3408400  66.7596250  51.8013030  52.4290140
  66.7740790  50.8693990  52.2109050  66.0521350  51.8872790  53.0679910
  68.5007050  50.1680540  45.2742570  68.8530870  49.5708670  44.6143940
  67.6169380  49.8424770  45.4450820  64.5870330  50.9278230  42.6812980
  65.2741460  51.4747440  43.0620570  63.8002750  51.4718960  42.7162590
  56.7262730  46.5451050  38.1730060  57.5957580  46.8275850  38.4565980
  56.2353050  47.3586920  38.0578870  63.8897540  47.9324260  42.2938340
  64.3460320  48.7429510  42.5198530  63.5385750  47.6147400  43.1256830
  66.1930150  53.4430600  49.5230640  66.8372370  53.6489980  50.2004060
  66.5559590  52.6819000  49.0701490  59.7909320  38.2761910  42.7660860
  59.6623950  38.2679810  43.7145780  58.9671340  38.6145000  42.4151870
  67.4662230  51.4462950  48.2408090  68.1084460  50.7456110  48.3540260
  67.9911580  52.2261390  48.0604980  71.3117950  51.7311570  37.9647230
  71.0855530  51.0142010  38.5571870  70.9214150  51.4824010  37.1268980
  69.2399850  52.2457850  51.4444150  69.5756090  52.8324540  52.1222070
  68.3200190  52.1150560  51.6741940  57.0933980  55.7578430  38.7391690
  57.4531620  56.3567770  38.0848960  56.9526320  56.3038320  39.5126720
  56.7903250  40.0353030  52.2267560  56.0761770  40.2349950  52.8320170
  57.2098290  39.2592600  52.5982360  70.8934200  49.6483510  39.6261390
  70.6055900  50.1096200  40.4139270  71.6886370  49.1881280  39.8945610
  57.0775840  54.0233290  53.2134090  57.1866960  53.0828030  53.0729480
  56.4256400  54.2888040  52.5647820  65.0688430  52.2949180  54.6132210
  64.7485300  51.5758420  55.1577900  64.3946790  52.9704250  54.6868270
  63.1102600  53.1409630  39.5565360  63.1012700  53.8739320  38.9409870
  62.1900960  52.8941210  39.6492320  58.7109240  48.3624520  40.3012120
  58.1037190  49.1023420  40.3107420  59.1858590  48.4523880  39.4750320
  68.2842030  42.5275340  49.9769010  68.6522850  41.7070550  50.3048580
  67.4240230  42.5877230  50.3924660  71.6504060  41.4832280  40.7856570
  71.0217220  41.5877950  40.0714800  71.1555980  41.7029060  41.5750450
  66.0962200  53.2037870  38.2190550  66.1974180  53.0001860  37.2892530
  65.1963940  52.9496150  38.4238330  63.6188090  43.7618230  42.2014450
  62.9104240  44.2304570  42.6428060  63.9032570  43.1040240  42.8359640
  65.2444020  45.1814930  50.2006980  65.7429270  45.6560750  50.8658830
  65.3866970  44.2578450  50.4077010  67.6503520  40.4868890  43.6410240
  67.5271300  40.5055020  42.6919750  68.5988080  40.5347830  43.7608640
  64.7380310  55.7224190  42.9138220  64.9921810  55.6845580  41.9917590
  63.7892790  55.5957520  42.9066470  61.8223110  42.0703310  39.5765160
  62.6713640  42.5073460  39.5105350  61.4554380  42.3823570  40.4037220
  70.7432890  46.6416070  44.4896730  69.8023030  46.6566300  44.6644420
  71.0576960  45.8552030  44.9357030  60.7214530  48.3235670  38.0500690
  61.4877800  48.2117030  38.6126120  60.7989220  47.6273640  37.3977460
  59.4161290  45.7560740  38.7333580  59.4964880  44.8088250  38.8450980
  60.3081040  46.0867620  38.8394240  60.2176000  55.9056130  45.8368120
  60.9538480  55.3571590  46.1076690  60.6016920  56.7712140  45.6974110
  57.1021480  51.9729700  41.7109630  56.1761260  52.2150840  41.7015040
  57.5677910  52.8003960  41.5894380  59.2234280  55.0902200  55.0253700
  60.0247010  55.4114250  55.4389100  58.7086100  54.7297780  55.7473610
  63.3278310  55.0786440  37.6593690  64.1206920  55.3675270  37.2075480
  62.8082660  54.6478610  36.9806170  68.0598910  51.1982070  54.9729110
  67.4537070  51.2213670  54.2324860  67.7553020  50.4665110  55.5096360
  69.4899280  54.9262360  53.5838520  70.4421030  54.8420380  53.5338760
  69.3427500  55.5904070  54.2572310  72.3808480  54.3056570  39.0830430
  72.0949990  53.8921710  38.2684610  72.1828030  55.2344280  38.9630950
  56.9432090  47.5775660  53.9689750  57.4471110  46.9982940  54.5405980
  56.2039510  47.8615890  54.5066120  63.8455710  50.2989850  37.5236040
  63.7406350  49.6842200  38.2497420  63.6779930  49.7755740  36.7399050
  63.9970030  48.9846650  53.5025270  63.2315700  49.5531650  53.4179940
  64.1785990  48.6922860  52.6093500  67.0858440  49.3609880  38.1278030
  66.5368540  49.8079180  38.7720770  67.7077700  48.8559130  38.6515700
  71.1393380  50.7151980  54.0600290  71.8802850  51.0527740  53.5567750
  70.3766060  50.8844040  53.5070060  58.9755170  45.7205250  54.8639820
  59.0160510  45.4219120  55.7725050  59.8300670  46.1212860  54.7047340
  62.7533560  48.3200800  40.0243330  63.1749980  48.1540670  40.8674720
  62.8784400  47.5101030  39.5298470  60.9160980  44.2997350  52.8314310
  60.3857440  43.8088300  52.2037650  61.5849050  44.7281550  52.2972240
  65.2661200  47.3438410  37.2720430  65.7866860  46.6287430  36.9061580
  65.9129600  47.9824280  37.5720940  69.8139040  48.7666810  52.5955500
  70.2280060  48.9211890  53.4445920  68.8790040  48.8922030  52.7581280
  70.2861210  46.1062970  54.5994650  70.8681980  45.3515290  54.5115130
  70.4622980  46.6370410  53.8226130  61.4033280  41.2659720  52.9111600
  61.3090150  40.6480470  52.1862470  60.8230670  41.9926010  52.6841510
  64.1694720  39.8232960  49.9438990  63.7212020  39.8457220  49.0984540
  63.5359920  39.4251980  50.5409290  64.5754270  48.7187290  50.5651430
  64.9942380  49.5620020  50.3927670  63.6562900  48.8559330  50.3358210
  66.9118170  46.4503470  51.9489270  67.0314380  45.8544610  52.6884110
  67.7712170  46.4873160  51.5290570  69.2506070  47.0040660  50.5251780
  68.7241290  47.5283280  49.9216920  69.5937410  47.6368050  51.1561510
  61.6492460  44.3934030  36.9701490  61.4481520  43.5301390  37.3314830
  61.4784510  44.3067390  36.0323090  62.4261690  55.0240300  51.6809160
  61.8882780  55.7486360  51.3617860  62.6795650  54.5470640  50.8906500
  63.6786940  42.9924820  53.2065090  64.2686630  42.6840670  53.8942910
  62.8607180  42.5204570  53.3624990  68.4980370  42.6090630  53.4398110
  67.8095890  41.9472170  53.3748100  69.2186390  42.1628900  53.8846570
  69.1280770  39.2042260  39.4988370  69.4083060  38.3610160  39.8547790
  68.3546500  39.4365370  40.0127120  60.4475260  41.4934650  36.9579370
  60.7501160  41.5002080  36.0498520  61.1869850  41.1432510  37.4547030
  65.2823900  56.2591510  51.9395810  65.2082600  57.1626650  52.2468180
  64.3802740  55.9403410  51.9117880  63.6660190  40.4369270  37.9435570
  63.3182190  39.7593260  37.3638020  63.8672960  39.9758780  38.7578960
  65.8309230  55.4250020  39.5622170  66.7260020  55.7634990  39.5840930
  65.8626860  54.7029430  38.9346450  59.4705390  50.7977070  37.7909170
  59.9080260  51.3406740  38.4466750  59.9553120  49.9724020  37.8005510
  56.6851190  53.5866100  45.2429430  57.0154200  52.7187160  45.0108070
  57.1142190  53.7924620  46.0734390  61.2813110  51.9175110  42.9031400
  60.9808650  51.7940080  43.8035310  61.1750600  51.0583700  42.4947130
  57.1741400  54.4536690  47.9811060  56.7372390  54.6337490  48.8135210
  57.7419080  55.2111310  47.8392780  57.0065830  46.9656920  44.3399940
  56.3514670  46.6968560  43.6959640  57.8443780  46.8561400  43.8901920
  71.4955220  50.6805670  50.3664530  70.6815060  51.1102830  50.6290320
  71.9029420  51.2924080  49.7533580  69.9556270  41.7598210  38.5618430
  70.3741150  41.5729190  37.7215090  69.6492330  40.9077260  38.8721360
  58.0441760  47.3509490  48.8803280  58.4114800  47.2636890  49.7599300
  57.4752580  46.5876040  48.7810140  57.5957760  44.2618580  52.7861700
  56.7013810  44.2285340  53.1255410  58.1355310  44.4605370  53.5512950
  71.2833690  41.0450300  54.6713450  72.1603870  41.0533700  55.0547450
  71.2954530  40.3081140  54.0605800  56.2203910  44.1755850  40.2825270
  55.3167990  44.4386050  40.1076930  56.7044530  44.4467020  39.5025230
  58.7631120  43.2321390  38.1919650  59.4722820  42.8104610  37.7066930
  58.0471060  43.2996620  37.5603000  58.4105280  39.2860720  37.2322300
  59.1333410  39.8269660  37.5503520  58.6829800  39.0124140  36.3563840
  58.0997470  38.5366910  47.1344920  58.7473660  37.9864290  46.6940080
  58.5199310  38.7910060  47.9560730  71.5531270  55.4324270  43.8932800
  72.1490340  55.1108840  43.2167220  71.8109420  54.9596090  44.6846070
  57.8529470  38.6922580  49.8770240  57.5044290  39.1486400  50.6428420
  57.5217170  37.7979710  49.9592670  59.4593840  51.8642180  54.0423430
  59.4163470  51.4935090  54.9237890  59.5904850  52.8019750  54.1825250
  63.1599870  53.4201770  49.6433150  62.9191230  53.6876330  48.7563670
  64.1002510  53.5907500  49.6984010  65.3654290  39.8834460  53.3989660
  65.3043180  40.4756290  54.1485070  66.3054670  39.7760420  53.2539920
  68.0028850  39.5404520  53.0381950  68.6169260  39.8583810  52.3763030
  68.5478410  39.0553110  53.6577810  58.5250110  38.2198780  53.1521010
  59.0733100  38.0386830  52.3887120  58.5905420  37.4292890  53.6877320
  59.2981870  54.8104430  51.1621210  58.7042190  54.6789130  51.9011250
  59.2905710  53.9742570  50.6963310  68.7436890  38.1036660  49.3651240
  67.8696730  38.4371770  49.1624170  68.6347640  37.6309840  50.1903110
  69.6508870  40.3107530  50.7492960  69.3222230  39.4959290  50.3694690
  70.5991170  40.2677340  50.6258650  72.1043480  56.0819570  47.7230530
  71.6446450  56.8335380  47.3488550  71.4755940  55.3626040  47.6645330
  58.9294100  52.1762810  50.1129250  58.2028160  51.5568100  50.0455200
  58.9903250  52.5703420  49.2427330  62.5339200  54.3907810  46.8978660
  63.0504220  53.7795170  46.3726920  63.1836580  54.8936590  47.3889670
  65.2734700  55.2816300  47.7247640  65.5612510  55.0270600  46.8480650
  65.7857920  54.7293660  48.3153210  66.4911710  39.0206500  48.3044150
  65.7083500  39.4952000  48.5840910  66.1974640  38.1161330  48.1957330
  71.0432780  39.7229600  46.3493240  71.4840870  39.6674700  45.5014840
  70.7740370  40.6387610  46.4203420  57.2124100  55.4937200  43.3226010
  57.0446140  54.8607880  44.0207900  56.3458610  55.6996600  42.9720200
  57.8352120  39.3253980  40.8257870  58.5931480  39.4382860  40.2521900
  57.3729290  40.1623180  40.7801300  64.3765930  41.4393250  43.8160180
  63.5640440  41.0650140  43.4756060  64.8807570  40.6838330  44.1181370
  68.8790910  38.1035700  45.0543250  69.4820280  38.6755910  45.5291770
  68.1383900  38.6675140  44.8317150  72.0225510  38.5057260  40.3283530
  72.2176140  39.4040710  40.5950960  71.2355380  38.2744340  40.8216480
  58.8186800  54.1870430  40.7676150  58.2934420  54.5678460  40.0638110
  58.7431380  54.8121200  41.4885860  60.2077270  39.8518030  39.3659840
  60.7370030  39.0647830  39.2367790  60.8405590  40.5309220  39.5995370
  62.4015110  39.5893170  42.4205230  61.7717850  38.8880480  42.5875360
  61.8620250  40.3497300  42.2038390  65.3407060  56.2032400  55.0915840
  66.2674370  55.9676670  55.1351800  65.3257490  57.0304400  54.6101870
  62.5270670  38.8677150  54.8557720  62.2454940  39.3710750  54.0918540
  62.9090370  38.0698900  54.4899850  61.4179770  56.1352810  39.6425400
  62.1498590  55.8512090  39.0949290  61.6773440  55.8966090  40.5324780
  60.5794560  52.2517540  39.6471730  59.9503440  52.7202640  40.1957560
  60.6942390  51.4066760  40.0817920  69.1286130  38.2830730  55.4338190
  69.0151580  38.6025340  56.3289710  69.9455870  38.6843240  55.1375470
  68.0344280  46.3023200  25.7972930  67.9538330  45.3877810  25.5264640
  67.6208700  46.7990270  25.0912640  66.1662320  48.0802220  27.6782200
  65.3904420  47.6002660  27.9680770  66.8175250  47.4007870  27.5038360
  60.1828150  48.3922030  28.5557960  59.3513030  48.1370740  28.9554470
  60.7909130  48.4632800  29.2915880  70.1869750  52.4862410  26.4581330
  69.7251280  51.7149650  26.7868500  70.9995300  52.5128480  26.9633780
  60.1629410  52.4262120  28.7515980  60.4657450  51.5359860  28.5726200
  60.9073000  52.9832340  28.5238230  58.5920100  43.3523920  22.3400350
  57.7036800  43.6939890  22.2380230  58.8761290  43.1524240  21.4481180
  56.5553110  45.9529570  28.2240050  57.1269220  45.1851770  28.2243690
  56.5554650  46.2518330  27.3146660  66.4133060  54.7720420  26.0785320
  65.7944500  55.2277920  25.5079760  67.2684840  54.9271880  25.6775020
  65.6071310  50.7559410  27.6852360  65.5379590  49.8149350  27.5241490
  66.3691170  50.8460820  28.2574930  57.7977980  41.3613930  30.0108980
  57.6180820  40.4639680  30.2911740  57.3958060  41.9085800  30.6855930
  66.6376480  43.5629790  27.9121290  67.0141300  42.6901670  27.7994960
  66.5395990  43.8988490  27.0211730  60.7681490  41.9355420  23.3738730
  60.8748240  42.8359150  23.6807490  59.8573850  41.8873390  23.0833380
  70.4200600  41.0580230  24.8449630  71.2410220  40.5676800  24.8875110
  70.4534680  41.6477890  25.5981470  58.4164650  43.8574430  28.6191320
  59.0974760  44.1212800  29.2378720  58.1012700  43.0175300  28.9529330
  62.6089220  44.9041790  27.7063910  63.1167440  45.4022760  28.3468930
  63.1402460  44.1276990  27.5303270  60.8925320  39.5440350  31.9727330
  60.8943760  40.0612740  31.1673230  60.0629630  39.0670530  31.9497260
  67.2796410  49.6559660  23.4717230  66.6613680  50.1209110  22.9079950
  67.7919660  50.3487140  23.8886740  62.1428170  49.1835530  30.1500830
  61.8097550  49.8104450  30.7921900  62.3194850  49.7097410  29.3702500
  70.6562080  42.9980610  27.6177170  69.9517650  43.2865500  28.1980280
  71.0174240  43.8080720  27.2576730  60.5740650  41.2550310  29.9797780
  60.9157460  42.0992360  29.6851650  59.6356460  41.4034050  30.0963120
  61.3547270  51.1516330  31.9650010  61.9721270  51.8267410  31.6834460
  60.4940390  51.5604310  31.8737510  56.6479610  50.3416190  20.8456860
  56.2707590  50.8303290  20.1141760  56.9052680  51.0141470  21.4763390
  64.2568540  38.7432580  26.3042370  64.5643520  38.1879470  25.5877870
  63.3269240  38.8777040  26.1215360  69.8083600  54.4599870  28.5949830
  69.8210760  54.0562160  27.7272090  69.2558820  55.2347160  28.4911260
  71.1029020  51.1816090  23.6840000  70.9925350  50.2390420  23.8089420
  71.0997270  51.5431730  24.5702760  69.2069040  49.3629710  29.9232440
  69.6237830  49.1489820  29.0885900  69.9308860  49.6202500  30.4941060
  66.6449300  46.8081410  23.0402490  65.7178580  46.7418790  23.2690960
  66.7974120  47.7461540  22.9257730  66.6318380  43.0798410  20.0369650
  65.6922050  43.2412370  20.1222110  66.9501640  43.7984090  19.4905640
  70.6746590  48.3701710  23.5437740  70.0559010  48.0321260  22.8964040
  70.6571040  47.7261470  24.2516930  70.1173150  44.5486250  30.9603550
  69.7044330  45.3739960  31.2143540  69.3849100  43.9631290  30.7679910
  62.2505940  47.3346150  25.8222220  61.8462940  46.6223400  25.3268120
  62.3369060  46.9899390  26.7110260  62.7187640  51.0213710  27.9861430
  62.4215930  50.4159180  27.3069210  63.6687460  51.0591020  27.8750790
  60.9634560  44.1089360  29.6021260  61.5149150  44.2184700  28.8274510
  61.4778070  44.4826960  30.3176490  70.8073250  54.5945580  31.6484530
  70.3303810  55.4017770  31.4557140  70.1235040  53.9423910  31.8010740
  61.8106070  50.7595400  34.6369230  60.9134600  50.9835370  34.8842630
  61.8358940  50.8830340  33.6880630  68.8511290  47.6088520  20.5510490
  69.2904570  46.7710950  20.4048310  69.5639710  48.2417920  20.6374630
  60.6377290  47.6308720  33.2126600  60.4985060  48.5031520  33.5814000
  59.7558650  47.2881530  33.0674540  66.9606670  52.5484590  24.5191730
  67.4002580  53.2908920  24.1047120  66.8993560  52.7911160  25.4430690
  62.4357640  53.5730420  35.4211750  62.4073070  53.9773370  34.5540180
  62.2722610  52.6440780  35.2583350  58.9510570  46.2291130  23.3228870
  58.8308170  46.9553220  22.7110140  58.6411460  45.4594040  22.8456780
  56.5895940  49.4006270  29.1297510  56.6676360  49.5355040  28.1853230
  57.2037620  48.6922160  29.3225630  57.8343570  51.1006460  25.5403690
  57.4271650  51.2421050  24.6857290  58.7256580  50.8166620  25.3374900
  67.6522450  55.2498370  32.4470740  68.1667120  55.1606380  33.2493170
  66.8091530  55.5958070  32.7398650  69.6276850  55.5353710  21.8754740
  69.4677990  55.2456650  22.7736570  69.4623560  54.7593840  21.3399970
  62.1065230  55.3152240  23.6526360  61.9307710  54.3987780  23.4394160
  61.2520970  55.6739530  23.8924160  69.3302980  53.0441270  20.4352740
  68.6368140  53.0418560  19.7755020  70.0725840  52.6200590  20.0046910
  68.8952910  54.6703980  24.5101230  69.3509860  53.8893360  24.8239850
  69.2345430  55.3810800  25.0542410  56.6455460  50.4420440  31.6691970
  56.8086500  49.9725800  30.8511340  57.1107910  49.9344000  32.3340810
  61.4174230  39.5726200  26.7052540  60.9742380  40.3535740  26.3737060
  61.9759220  39.8956090  27.4123480  65.7044040  42.4394720  32.3087860
  65.2423410  42.6477740  33.1207800  65.3022150  41.6254070  32.0058530
  70.7048550  43.6603670  33.4384520  69.8542140  43.3609420  33.7593590
  70.5450340  43.9045680  32.5268340  67.7998260  45.1605420  35.5383310
  68.1251670  44.3269170  35.1985540  68.5878590  45.6833940  35.6861640
  64.5333050  39.1936900  21.5858370  63.9087230  39.1896770  22.3111680
  64.4463170  38.3267860  21.1894340  63.4550130  40.1173530  28.5642140
  63.7522460  41.0236360  28.4834160  64.0035690  39.6292310  27.9501710
  61.2088450  44.6959770  24.4333790  60.9829370  44.4796940  25.3380410
  60.4280980  45.1288230  24.0879760  68.4386210  44.7023140  23.0324440
  67.8395100  45.4258940  22.8488060  68.9865820  44.6399920  22.2500890
  63.6487660  45.5945350  35.0994060  63.5531260  44.6540080  34.9494460
  64.4919640  45.8160420  34.7042130  67.0451080  43.3386680  25.0627720
  67.4380650  43.6558880  24.2496410  67.4067930  42.4598560  25.1772240
  58.7798200  42.0059020  33.2527840  58.3861590  42.8534230  33.4600620
  58.0916600  41.3685390  33.4436480  65.3543250  42.0893990  36.3224580
  64.6641570  41.8966190  36.9570670  66.0975550  42.3728630  36.8548880
  56.0815250  39.9287480  27.2857920  55.7928300  40.4990340  27.9982900
  56.8261010  39.4491930  27.6489150  56.2685480  43.8707600  18.4960640
  56.1860150  44.8138360  18.6375630  55.9168540  43.7282510  17.6172990
  67.6306220  45.9292430  29.1578500  66.8987340  46.4379240  29.5068600
  67.2330560  45.1122410  28.8567280  64.0683610  42.6046630  27.5630990
  64.0719670  42.1636580  26.7135530  64.9634730  42.9263960  27.6702810
  59.9185990  42.4873120  26.5225200  59.5786040  42.9648350  27.2792250
  59.1563310  42.0338240  26.1626300  64.1303760  43.6058710  20.5537750
  64.2516580  43.5645190  21.5023570  63.7452270  44.4682860  20.3984480
  68.0932130  41.3826110  28.5701440  68.1104870  41.8334760  29.4143290
  67.8447710  40.4831750  28.7834880  63.1425260  45.9159850  19.9521050
  62.5742160  45.4678100  19.3256960  63.8514260  46.2752630  19.4186200
  71.5202880  38.7958290  34.4087820  71.8448650  38.0647950  34.9345800
  71.5559390  38.4771930  33.5068810  58.2194440  49.8171870  33.8287780
  57.8349230  49.1765540  34.4270740  58.5306630  50.5207990  34.3982510
  64.3691580  46.6648410  29.3096400  64.7361710  46.1906980  30.0557740
  64.1796640  47.5389980  29.6504740  57.2332070  41.4092100  25.4389870
  56.9478990  41.0447770  26.2768490  57.1710930  40.6772560  24.8253010
  62.1590950  45.7057050  31.6280610  61.8548020  46.5849030  31.8530970
  63.1137410  45.7656840  31.6638050  60.6872740  49.9118040  22.2247460
  59.9135000  49.3715660  22.0646180  61.4167370  49.3924650  21.8865220
  71.4460720  48.9083400  28.0173850  72.1659840  49.4038690  27.6269960
  71.2442540  48.2301290  27.3727720  66.9070660  40.3021360  22.1603240
  66.0935270  39.8034530  22.0848550  66.7132610  41.1419610  21.7439590
  66.8279520  48.9792460  33.9042850  66.7616830  48.0588130  33.6500440
  66.1984660  49.0767900  34.6187490  69.6219050  44.6741010  20.4565400
  70.5098670  44.9858240  20.2816740  69.5924140  43.8013260  20.0645980
  60.7310140  49.5798420  25.8626270  61.2488810  48.7766680  25.8083160
  60.2794160  49.5177560  26.7043100  65.6179640  50.8464700  21.1353570
  65.9595340  51.5906930  20.6396890  64.7892350  51.1595820  21.4978400
  58.2154680  46.5459790  32.7751970  57.8569620  47.2113640  33.3625310
  57.9209240  45.7143340  33.1464590  61.4167800  47.0044030  35.6591520
  61.1167940  47.1501210  34.7619340  62.1879040  46.4449320  35.5664910
  66.7596250  51.8013030  33.6546650  66.7740790  50.8693990  33.4365560
  66.0521350  51.8872790  34.2936420  68.5007050  50.1680540  26.4999080
  68.8530870  49.5708670  25.8400450  67.6169380  49.8424770  26.6707330
  64.5870330  50.9278230  23.9069490  65.2741460  51.4747440  24.2877080
  63.8002750  51.4718960  23.9419100  56.7262730  46.5451050  19.3986570
  57.5957580  46.8275850  19.6822490  56.2353050  47.3586920  19.2835380
  63.8897540  47.9324260  23.5194850  64.3460320  48.7429510  23.7455040
  63.5385750  47.6147400  24.3513340  66.1930150  53.4430600  30.7487150
  66.8372370  53.6489980  31.4260570  66.5559590  52.6819000  30.2958000
  59.7909320  38.2761910  23.9917370  59.6623950  38.2679810  24.9402290
  58.9671340  38.6145000  23.6408380  67.4662230  51.4462950  29.4664600
  68.1084460  50.7456110  29.5796770  67.9911580  52.2261390  29.2861490
  71.3117950  51.7311570  19.1903740  71.0855530  51.0142010  19.7828380
  70.9214150  51.4824010  18.3525490  69.2399850  52.2457850  32.6700660
  69.5756090  52.8324540  33.3478580  68.3200190  52.1150560  32.8998450
  57.0933980  55.7578430  19.9648200  57.4531620  56.3567770  19.3105470
  56.9526320  56.3038320  20.7383230  56.7903250  40.0353030  33.4524070
  56.0761770  40.2349950  34.0576680  57.2098290  39.2592600  33.8238870
  70.8934200  49.6483510  20.8517900  70.6055900  50.1096200  21.6395780
  71.6886370  49.1881280  21.1202120  57.0775840  54.0233290  34.4390600
  57.1866960  53.0828030  34.2985990  56.4256400  54.2888040  33.7904330
  65.0688430  52.2949180  35.8388720  64.7485300  51.5758420  36.3834410
  64.3946790  52.9704250  35.9124780  63.1102600  53.1409630  20.7821870
  63.1012700  53.8739320  20.1666380  62.1900960  52.8941210  20.8748830
  58.7109240  48.3624520  21.5268630  58.1037190  49.1023420  21.5363930
  59.1858590  48.4523880  20.7006830  68.2842030  42.5275340  31.2025520
  68.6522850  41.7070550  31.5305090  67.4240230  42.5877230  31.6181170
  71.6504060  41.4832280  22.0113080  71.0217220  41.5877950  21.2971310
  71.1555980  41.7029060  22.8006960  66.0962200  53.2037870  19.4447060
  66.1974180  53.0001860  18.5149040  65.1963940  52.9496150  19.6494840
  63.6188090  43.7618230  23.4270960  62.9104240  44.2304570  23.8684570
  63.9032570  43.1040240  24.0616150  65.2444020  45.1814930  31.4263490
  65.7429270  45.6560750  32.0915340  65.3866970  44.2578450  31.6333520
  67.6503520  40.4868890  24.8666750  67.5271300  40.5055020  23.9176260
  68.5988080  40.5347830  24.9865150  64.7380310  55.7224190  24.1394730
  64.9921810  55.6845580  23.2174100  63.7892790  55.5957520  24.1322980
  61.8223110  42.0703310  20.8021670  62.6713640  42.5073460  20.7361860
  61.4554380  42.3823570  21.6293730  70.7432890  46.6416070  25.7153240
  69.8023030  46.6566300  25.8900930  71.0576960  45.8552030  26.1613540
  60.7214530  48.3235670  19.2757200  61.4877800  48.2117030  19.8382630
  60.7989220  47.6273640  18.6233970  59.4161290  45.7560740  19.9590090
  59.4964880  44.8088250  20.0707490  60.3081040  46.0867620  20.0650750
  60.2176000  55.9056130  27.0624630  60.9538480  55.3571590  27.3333200
  60.6016920  56.7712140  26.9230620  57.1021480  51.9729700  22.9366140
  56.1761260  52.2150840  22.9271550  57.5677910  52.8003960  22.8150890
  59.2234280  55.0902200  36.2510210  60.0247010  55.4114250  36.6645610
  58.7086100  54.7297780  36.9730120  63.3278310  55.0786440  18.8850200
  64.1206920  55.3675270  18.4331990  62.8082660  54.6478610  18.2062680
  68.0598910  51.1982070  36.1985620  67.4537070  51.2213670  35.4581370
  67.7553020  50.4665110  36.7352870  69.4899280  54.9262360  34.8095030
  70.4421030  54.8420380  34.7595270  69.3427500  55.5904070  35.4828820
  72.3808480  54.3056570  20.3086940  72.0949990  53.8921710  19.4941120
  72.1828030  55.2344280  20.1887460  56.9432090  47.5775660  35.1946260
  57.4471110  46.9982940  35.7662490  56.2039510  47.8615890  35.7322630
  63.8455710  50.2989850  18.7492550  63.7406350  49.6842200  19.4753930
  63.6779930  49.7755740  17.9655560  63.9970030  48.9846650  34.7281780
  63.2315700  49.5531650  34.6436450  64.1785990  48.6922860  33.8350010
  67.0858440  49.3609880  19.3534540  66.5368540  49.8079180  19.9977280
  67.7077700  48.8559130  19.8772210  71.1393380  50.7151980  35.2856800
  71.8802850  51.0527740  34.7824260  70.3766060  50.8844040  34.7326570
  58.9755170  45.7205250  36.0896330  59.0160510  45.4219120  36.9981560
  59.8300670  46.1212860  35.9303850  62.7533560  48.3200800  21.2499840
  63.1749980  48.1540670  22.0931230  62.8784400  47.5101030  20.7554980
  60.9160980  44.2997350  34.0570820  60.3857440  43.8088300  33.4294160
  61.5849050  44.7281550  33.5228750  65.2661200  47.3438410  18.4976940
  65.7866860  46.6287430  18.1318090  65.9129600  47.9824280  18.7977450
  69.8139040  48.7666810  33.8212010  70.2280060  48.9211890  34.6702430
  68.8790040  48.8922030  33.9837790  70.2861210  46.1062970  35.8251160
  70.8681980  45.3515290  35.7371640  70.4622980  46.6370410  35.0482640
  61.4033280  41.2659720  34.1368110  61.3090150  40.6480470  33.4118980
  60.8230670  41.9926010  33.9098020  64.1694720  39.8232960  31.1695500
  63.7212020  39.8457220  30.3241050  63.5359920  39.4251980  31.7665800
  64.5754270  48.7187290  31.7907940  64.9942380  49.5620020  31.6184180
  63.6562900  48.8559330  31.5614720  66.9118170  46.4503470  33.1745780
  67.0314380  45.8544610  33.9140620  67.7712170  46.4873160  32.7547080
  69.2506070  47.0040660  31.7508290  68.7241290  47.5283280  31.1473430
  69.5937410  47.6368050  32.3818020  61.6492460  44.3934030  18.1958000
  61.4481520  43.5301390  18.5571340  61.4784510  44.3067390  17.2579600
  62.4261690  55.0240300  32.9065670  61.8882780  55.7486360  32.5874370
  62.6795650  54.5470640  32.1163010  63.6786940  42.9924820  34.4321600
  64.2686630  42.6840670  35.1199420  62.8607180  42.5204570  34.5881500
  68.4980370  42.6090630  34.6654620  67.8095890  41.9472170  34.6004610
  69.2186390  42.1628900  35.1103080  69.1280770  39.2042260  20.7244880
  69.4083060  38.3610160  21.0804300  68.3546500  39.4365370  21.2383630
  60.4475260  41.4934650  18.1835880  60.7501160  41.5002080  17.2755030
  61.1869850  41.1432510  18.6803540  65.2823900  56.2591510  33.1652320
  65.2082600  57.1626650  33.4724690  64.3802740  55.9403410  33.1374390
  63.6660190  40.4369270  19.1692080  63.3182190  39.7593260  18.5894530
  63.8672960  39.9758780  19.9835470  65.8309230  55.4250020  20.7878680
  66.7260020  55.7634990  20.8097440  65.8626860  54.7029430  20.1602960
  59.4705390  50.7977070  19.0165680  59.9080260  51.3406740  19.6723260
  59.9553120  49.9724020  19.0262020  56.6851190  53.5866100  26.4685940
  57.0154200  52.7187160  26.2364580  57.1142190  53.7924620  27.2990900
  61.2813110  51.9175110  24.1287910  60.9808650  51.7940080  25.0291820
  61.1750600  51.0583700  23.7203640  57.1741400  54.4536690  29.2067570
  56.7372390  54.6337490  30.0391720  57.7419080  55.2111310  29.0649290
  57.0065830  46.9656920  25.5656450  56.3514670  46.6968560  24.9216150
  57.8443780  46.8561400  25.1158430  71.4955220  50.6805670  31.5921040
  70.6815060  51.1102830  31.8546830  71.9029420  51.2924080  30.9790090
  69.9556270  41.7598210  19.7874940  70.3741150  41.5729190  18.9471600
  69.6492330  40.9077260  20.0977870  58.0441760  47.3509490  30.1059790
  58.4114800  47.2636890  30.9855810  57.4752580  46.5876040  30.0066650
  57.5957760  44.2618580  34.0118210  56.7013810  44.2285340  34.3511920
  58.1355310  44.4605370  34.7769460  71.2833690  41.0450300  35.8969960
  72.1603870  41.0533700  36.2803960  71.2954530  40.3081140  35.2862310
  56.2203910  44.1755850  21.5081780  55.3167990  44.4386050  21.3333440
  56.7044530  44.4467020  20.7281740  58.7631120  43.2321390  19.4176160
  59.4722820  42.8104610  18.9323440  58.0471060  43.2996620  18.7859510
  58.4105280  39.2860720  18.4578810  59.1333410  39.8269660  18.7760030
  58.6829800  39.0124140  17.5820350  58.0997470  38.5366910  28.3601430
  58.7473660  37.9864290  27.9196590  58.5199310  38.7910060  29.1817240
  71.5531270  55.4324270  25.1189310  72.1490340  55.1108840  24.4423730
  71.8109420  54.9596090  25.9102580  57.8529470  38.6922580  31.1026750
  57.5044290  39.1486400  31.8684930  57.5217170  37.7979710  31.1849180
  59.4593840  51.8642180  35.2679940  59.4163470  51.4935090  36.1494400
  59.5904850  52.8019750  35.4081760  63.1599870  53.4201770  30.8689660
  62.9191230  53.6876330  29.9820180  64.1002510  53.5907500  30.9240520
  65.3654290  39.8834460  34.6246170  65.3043180  40.4756290  35.3741580
  66.3054670  39.7760420  34.4796430  68.0028850  39.5404520  34.2638460
  68.6169260  39.8583810  33.6019540  68.5478410  39.0553110  34.8834320
  58.5250110  38.2198780  34.3777520  59.0733100  38.0386830  33.6143630
  58.5905420  37.4292890  34.9133830  59.2981870  54.8104430  32.3877720
  58.7042190  54.6789130  33.1267760  59.2905710  53.9742570  31.9219820
  68.7436890  38.1036660  30.5907750  67.8696730  38.4371770  30.3880680
  68.6347640  37.6309840  31.4159620  69.6508870  40.3107530  31.9749470
  69.3222230  39.4959290  31.5951200  70.5991170  40.2677340  31.8515160
  72.1043480  56.0819570  28.9487040  71.6446450  56.8335380  28.5745060
  71.4755940  55.3626040  28.8901840  58.9294100  52.1762810  31.3385760
  58.2028160  51.5568100  31.2711710  58.9903250  52.5703420  30.4683840
  62.5339200  54.3907810  28.1235170  63.0504220  53.7795170  27.5983430
  63.1836580  54.8936590  28.6146180  65.2734700  55.2816300  28.9504150
  65.5612510  55.0270600  28.0737160  65.7857920  54.7293660  29.5409720
  66.4911710  39.0206500  29.5300660  65.7083500  39.4952000  29.8097420
  66.1974640  38.1161330  29.4213840  71.0432780  39.7229600  27.5749750
  71.4840870  39.6674700  26.7271350  70.7740370  40.6387610  27.6459930
  57.2124100  55.4937200  24.5482520  57.0446140  54.8607880  25.2464410
  56.3458610  55.6996600  24.1976710  57.8352120  39.3253980  22.0514380
  58.5931480  39.4382860  21.4778410  57.3729290  40.1623180  22.0057810
  64.3765930  41.4393250  25.0416690  63.5640440  41.0650140  24.7012570
  64.8807570  40.6838330  25.3437880  68.8790910  38.1035700  26.2799760
  69.4820280  38.6755910  26.7548280  68.1383900  38.6675140  26.0573660
  72.0225510  38.5057260  21.5540040  72.2176140  39.4040710  21.8207470
  71.2355380  38.2744340  22.0472990  58.8186800  54.1870430  21.9932660
  58.2934420  54.5678460  21.2894620  58.7431380  54.8121200  22.7142370
  60.2077270  39.8518030  20.5916350  60.7370030  39.0647830  20.4624300
  60.8405590  40.5309220  20.8251880  62.4015110  39.5893170  23.6461740
  61.7717850  38.8880480  23.8131870  61.8620250  40.3497300  23.4294900
  65.3407060  56.2032400  36.3172350  66.2674370  55.9676670  36.3608310
  65.3257490  57.0304400  35.8358380  62.5270670  38.8677150  36.0814230
  62.2454940  39.3710750  35.3175050  62.9090370  38.0698900  35.7156360
  61.4179770  56.1352810  20.8681910  62.1498590  55.8512090  20.3205800
  61.6773440  55.8966090  21.7581290  60.5794560  52.2517540  20.8728240
  59.9503440  52.7202640  21.4214070  60.6942390  51.4066760  21.3074430
  69.1286130  38.2830730  36.6594700  69.0151580  38.6025340  37.5546220
  69.9455870  38.6843240  36.3631980  68.0344280  46.3023200   7.0229440
  67.9538330  45.3877810   6.7521150  67.6208700  46.7990270   6.3169150
  66.1662320  48.0802220   8.9038710  65.3904420  47.6002660   9.1937280
  66.8175250  47.4007870   8.7294870  60.1828150  48.3922030   9.7814470
  59.3513030  48.1370740  10.1810980  60.7909130  48.4632800  10.5172390
  70.1869750  52.4862410   7.6837840  69.7251280  51.7149650   8.0125010
  70.9995300  52.5128480   8.1890290  60.1629410  52.4262120   9.9772490
  60.4657450  51.5359860   9.7982710  60.9073000  52.9832340   9.7494740
  58.5920100  43.3523920   3.5656860  57.7036800  43.6939890   3.4636740
  58.8761290  43.1524240   2.6737690  56.5553110  45.9529570   9.4496560
  57.1269220  45.1851770   9.4500200  56.5554650  46.2518330   8.5403170
  66.4133060  54.7720420   7.3041830  65.7944500  55.2277920   6.7336270
  67.2684840  54.9271880   6.9031530  65.6071310  50.7559410   8.9108870
  65.5379590  49.8149350   8.7498000  66.3691170  50.8460820   9.4831440
  57.7977980  41.3613930  11.2365490  57.6180820  40.4639680  11.5168250
  57.3958060  41.9085800  11.9112440  66.6376480  43.5629790   9.1377800
  67.0141300  42.6901670   9.0251470  66.5395990  43.8988490   8.2468240
  60.7681490  41.9355420   4.5995240  60.8748240  42.8359150   4.9064000
  59.8573850  41.8873390   4.3089890  70.4200600  41.0580230   6.0706140
  71.2410220  40.5676800   6.1131620  70.4534680  41.6477890   6.8237980
  58.4164650  43.8574430   9.8447830  59.0974760  44.1212800  10.4635230
  58.1012700  43.0175300  10.1785840  62.6089220  44.9041790   8.9320420
  63.1167440  45.4022760   9.5725440  63.1402460  44.1276990   8.7559780
  60.8925320  39.5440350  13.1983840  60.8943760  40.0612740  12.3929740
  60.0629630  39.0670530  13.1753770  67.2796410  49.6559660   4.6973740
  66.6613680  50.1209110   4.1336460  67.7919660  50.3487140   5.1143250
  62.1428170  49.1835530  11.3757340  61.8097550  49.8104450  12.0178410
  62.3194850  49.7097410  10.5959010  70.6562080  42.9980610   8.8433680
  69.9517650  43.2865500   9.4236790  71.0174240  43.8080720   8.4833240
  60.5740650  41.2550310  11.2054290  60.9157460  42.0992360  10.9108160
  59.6356460  41.4034050  11.3219630  61.3547270  51.1516330  13.1906520
  61.9721270  51.8267410  12.9090970  60.4940390  51.5604310  13.0994020
  56.6479610  50.3416190   2.0713370  56.2707590  50.8303290   1.3398270
  56.9052680  51.0141470   2.7019900  64.2568540  38.7432580   7.5298880
  64.5643520  38.1879470   6.8134380  63.3269240  38.8777040   7.3471870
  69.8083600  54.4599870   9.8206340  69.8210760  54.0562160   8.9528600
  69.2558820  55.2347160   9.7167770  71.1029020  51.1816090   4.9096510
  70.9925350  50.2390420   5.0345930  71.0997270  51.5431730   5.7959270
  69.2069040  49.3629710  11.1488950  69.6237830  49.1489820  10.3142410
  69.9308860  49.6202500  11.7197570  66.6449300  46.8081410   4.2659000
  65.7178580  46.7418790   4.4947470  66.7974120  47.7461540   4.1514240
  70.6746590  48.3701710   4.7694250  70.0559010  48.0321260   4.1220550
  70.6571040  47.7261470   5.4773440  70.1173150  44.5486250  12.1860060
  69.7044330  45.3739960  12.4400050  69.3849100  43.9631290  11.9936420
  62.2505940  47.3346150   7.0478730  61.8462940  46.6223400   6.5524630
  62.3369060  46.9899390   7.9366770  62.7187640  51.0213710   9.2117940
  62.4215930  50.4159180   8.5325720  63.6687460  51.0591020   9.1007300
  60.9634560  44.1089360  10.8277770  61.5149150  44.2184700  10.0531020
  61.4778070  44.4826960  11.5433000  70.8073250  54.5945580  12.8741040
  70.3303810  55.4017770  12.6813650  70.1235040  53.9423910  13.0267250
  61.8106070  50.7595400  15.8625740  60.9134600  50.9835370  16.1099140
  61.8358940  50.8830340  14.9137140  68.8511290  47.6088520   1.7767000
  69.2904570  46.7710950   1.6304820  69.5639710  48.2417920   1.8631140
  60.6377290  47.6308720  14.4383110  60.4985060  48.5031520  14.8070510
  59.7558650  47.2881530  14.2931050  66.9606670  52.5484590   5.7448240
  67.4002580  53.2908920   5.3303630  66.8993560  52.7911160   6.6687200
  62.4357640  53.5730420  16.6468260  62.4073070  53.9773370  15.7796690
  62.2722610  52.6440780  16.4839860  58.9510570  46.2291130   4.5485380
  58.8308170  46.9553220   3.9366650  58.6411460  45.4594040   4.0713290
  56.5895940  49.4006270  10.3554020  56.6676360  49.5355040   9.4109740
  57.2037620  48.6922160  10.5482140  57.8343570  51.1006460   6.7660200
  57.4271650  51.2421050   5.9113800  58.7256580  50.8166620   6.5631410
  67.6522450  55.2498370  13.6727250  68.1667120  55.1606380  14.4749680
  66.8091530  55.5958070  13.9655160  69.6276850  55.5353710   3.1011250
  69.4677990  55.2456650   3.9993080  69.4623560  54.7593840   2.5656480
  62.1065230  55.3152240   4.8782870  61.9307710  54.3987780   4.6650670
  61.2520970  55.6739530   5.1180670  68.8952910  54.6703980   5.7357740
  69.3509860  53.8893360   6.0496360  69.2345430  55.3810800   6.2798920
  56.6455460  50.4420440  12.8948480  56.8086500  49.9725800  12.0767850
  57.1107910  49.9344000  13.5597320  61.4174230  39.5726200   7.9309050
  60.9742380  40.3535740   7.5993570  61.9759220  39.8956090   8.6379990
  65.7044040  42.4394720  13.5344370  65.2423410  42.6477740  14.3464310
  65.3022150  41.6254070  13.2315040  70.7048550  43.6603670  14.6641030
  69.8542140  43.3609420  14.9850100  70.5450340  43.9045680  13.7524850
  67.7998260  45.1605420  16.7639820  68.1251670  44.3269170  16.4242050
  68.5878590  45.6833940  16.9118150  64.5333050  39.1936900   2.8114880
  63.9087230  39.1896770   3.5368190  64.4463170  38.3267860   2.4150850
  63.4550130  40.1173530   9.7898650  63.7522460  41.0236360   9.7090670
  64.0035690  39.6292310   9.1758220  61.2088450  44.6959770   5.6590300
  60.9829370  44.4796940   6.5636920  60.4280980  45.1288230   5.3136270
  68.4386210  44.7023140   4.2580950  67.8395100  45.4258940   4.0744570
  68.9865820  44.6399920   3.4757400  63.6487660  45.5945350  16.3250570
  63.5531260  44.6540080  16.1750970  64.4919640  45.8160420  15.9298640
  67.0451080  43.3386680   6.2884230  67.4380650  43.6558880   5.4752920
  67.4067930  42.4598560   6.4028750  58.7798200  42.0059020  14.4784350
  58.3861590  42.8534230  14.6857130  58.0916600  41.3685390  14.6692990
  65.3543250  42.0893990  17.5481090  64.6641570  41.8966190  18.1827180
  66.0975550  42.3728630  18.0805390  56.0815250  39.9287480   8.5114430
  55.7928300  40.4990340   9.2239410  56.8261010  39.4491930   8.8745660
  67.6306220  45.9292430  10.3835010  66.8987340  46.4379240  10.7325110
  67.2330560  45.1122410  10.0823790  64.0683610  42.6046630   8.7887500
  64.0719670  42.1636580   7.9392040  64.9634730  42.9263960   8.8959320
  59.9185990  42.4873120   7.7481710  59.5786040  42.9648350   8.5048760
  59.1563310  42.0338240   7.3882810  64.1303760  43.6058710   1.7794260
  64.2516580  43.5645190   2.7280080  63.7452270  44.4682860   1.6240990
  68.0932130  41.3826110   9.7957950  68.1104870  41.8334760  10.6399800
  67.8447710  40.4831750  10.0091390  71.5202880  38.7958290  15.6344330
  71.8448650  38.0647950  16.1602310  71.5559390  38.4771930  14.7325320
  58.2194440  49.8171870  15.0544290  57.8349230  49.1765540  15.6527250
  58.5306630  50.5207990  15.6239020  64.3691580  46.6648410  10.5352910
  64.7361710  46.1906980  11.2814250  64.1796640  47.5389980  10.8761250
  57.2332070  41.4092100   6.6646380  56.9478990  41.0447770   7.5025000
  57.1710930  40.6772560   6.0509520  62.1590950  45.7057050  12.8537120
  61.8548020  46.5849030  13.0787480  63.1137410  45.7656840  12.8894560
  60.6872740  49.9118040   3.4503970  59.9135000  49.3715660   3.2902690
  61.4167370  49.3924650   3.1121730  71.4460720  48.9083400   9.2430360
  72.1659840  49.4038690   8.8526470  71.2442540  48.2301290   8.5984230
  66.9070660  40.3021360   3.3859750  66.0935270  39.8034530   3.3105060
  66.7132610  41.1419610   2.9696100  66.8279520  48.9792460  15.1299360
  66.7616830  48.0588130  14.8756950  66.1984660  49.0767900  15.8444000
  60.7310140  49.5798420   7.0882780  61.2488810  48.7766680   7.0339670
  60.2794160  49.5177560   7.9299610  65.6179640  50.8464700   2.3610080
  65.9595340  51.5906930   1.8653400  64.7892350  51.1595820   2.7234910
  58.2154680  46.5459790  14.0008480  57.8569620  47.2113640  14.5881820
  57.9209240  45.7143340  14.3721100  61.4167800  47.0044030  16.8848030
  61.1167940  47.1501210  15.9875850  62.1879040  46.4449320  16.7921420
  66.7596250  51.8013030  14.8803160  66.7740790  50.8693990  14.6622070
  66.0521350  51.8872790  15.5192930  68.5007050  50.1680540   7.7255590
  68.8530870  49.5708670   7.0656960  67.6169380  49.8424770   7.8963840
  64.5870330  50.9278230   5.1326000  65.2741460  51.4747440   5.5133590
  63.8002750  51.4718960   5.1675610  63.8897540  47.9324260   4.7451360
  64.3460320  48.7429510   4.9711550  63.5385750  47.6147400   5.5769850
  66.1930150  53.4430600  11.9743660  66.8372370  53.6489980  12.6517080
  66.5559590  52.6819000  11.5214510  59.7909320  38.2761910   5.2173880
  59.6623950  38.2679810   6.1658800  58.9671340  38.6145000   4.8664890
  67.4662230  51.4462950  10.6921110  68.1084460  50.7456110  10.8053280
  67.9911580  52.2261390  10.5118000  69.2399850  52.2457850  13.8957170
  69.5756090  52.8324540  14.5735090  68.3200190  52.1150560  14.1254960
  56.7903250  40.0353030  14.6780580  56.0761770  40.2349950  15.2833190
  57.2098290  39.2592600  15.0495380  70.8934200  49.6483510   2.0774410
  70.6055900  50.1096200   2.8652290  71.6886370  49.1881280   2.3458630
  57.0775840  54.0233290  15.6647110  57.1866960  53.0828030  15.5242500
  56.4256400  54.2888040  15.0160840  65.0688430  52.2949180  17.0645230
  64.7485300  51.5758420  17.6090920  64.3946790  52.9704250  17.1381290
  63.1102600  53.1409630   2.0078380  63.1012700  53.8739320   1.3922890
  62.1900960  52.8941210   2.1005340  58.7109240  48.3624520   2.7525140
  58.1037190  49.1023420   2.7620440  59.1858590  48.4523880   1.9263340
  68.2842030  42.5275340  12.4282030  68.6522850  41.7070550  12.7561600
  67.4240230  42.5877230  12.8437680  71.6504060  41.4832280   3.2369590
  71.0217220  41.5877950   2.5227820  71.1555980  41.7029060   4.0263470
  63.6188090  43.7618230   4.6527470  62.9104240  44.2304570   5.0941080
  63.9032570  43.1040240   5.2872660  65.2444020  45.1814930  12.6520000
  65.7429270  45.6560750  13.3171850  65.3866970  44.2578450  12.8590030
  67.6503520  40.4868890   6.0923260  67.5271300  40.5055020   5.1432770
  68.5988080  40.5347830   6.2121660  64.7380310  55.7224190   5.3651240
  64.9921810  55.6845580   4.4430610  63.7892790  55.5957520   5.3579490
  61.8223110  42.0703310   2.0278180  62.6713640  42.5073460   1.9618370
  61.4554380  42.3823570   2.8550240  70.7432890  46.6416070   6.9409750
  69.8023030  46.6566300   7.1157440  71.0576960  45.8552030   7.3870050
  60.2176000  55.9056130   8.2881140  60.9538480  55.3571590   8.5589710
  60.6016920  56.7712140   8.1487130  57.1021480  51.9729700   4.1622650
  56.1761260  52.2150840   4.1528060  57.5677910  52.8003960   4.0407400
  59.2234280  55.0902200  17.4766720  60.0247010  55.4114250  17.8902120
  58.7086100  54.7297780  18.1986630  68.0598910  51.1982070  17.4242130
  67.4537070  51.2213670  16.6837880  67.7553020  50.4665110  17.9609380
  69.4899280  54.9262360  16.0351540  70.4421030  54.8420380  15.9851780
  69.3427500  55.5904070  16.7085330  56.9432090  47.5775660  16.4202770
  57.4471110  46.9982940  16.9919000  56.2039510  47.8615890  16.9579140
  63.9970030  48.9846650  15.9538290  63.2315700  49.5531650  15.8692960
  64.1785990  48.6922860  15.0606520  71.1393380  50.7151980  16.5113310
  71.8802850  51.0527740  16.0080770  70.3766060  50.8844040  15.9583080
  58.9755170  45.7205250  17.3152840  59.0160510  45.4219120  18.2238070
  59.8300670  46.1212860  17.1560360  62.7533560  48.3200800   2.4756350
  63.1749980  48.1540670   3.3187740  62.8784400  47.5101030   1.9811490
  60.9160980  44.2997350  15.2827330  60.3857440  43.8088300  14.6550670
  61.5849050  44.7281550  14.7485260  69.8139040  48.7666810  15.0468520
  70.2280060  48.9211890  15.8958940  68.8790040  48.8922030  15.2094300
  70.2861210  46.1062970  17.0507670  70.8681980  45.3515290  16.9628150
  70.4622980  46.6370410  16.2739150  61.4033280  41.2659720  15.3624620
  61.3090150  40.6480470  14.6375490  60.8230670  41.9926010  15.1354530
  64.1694720  39.8232960  12.3952010  63.7212020  39.8457220  11.5497560
  63.5359920  39.4251980  12.9922310  64.5754270  48.7187290  13.0164450
  64.9942380  49.5620020  12.8440690  63.6562900  48.8559330  12.7871230
  66.9118170  46.4503470  14.4002290  67.0314380  45.8544610  15.1397130
  67.7712170  46.4873160  13.9803590  69.2506070  47.0040660  12.9764800
  68.7241290  47.5283280  12.3729940  69.5937410  47.6368050  13.6074530
  62.4261690  55.0240300  14.1322180  61.8882780  55.7486360  13.8130880
  62.6795650  54.5470640  13.3419520  63.6786940  42.9924820  15.6578110
  64.2686630  42.6840670  16.3455930  62.8607180  42.5204570  15.8138010
  68.4980370  42.6090630  15.8911130  67.8095890  41.9472170  15.8261120
  69.2186390  42.1628900  16.3359590  69.1280770  39.2042260   1.9501390
  69.4083060  38.3610160   2.3060810  68.3546500  39.4365370   2.4640140
  65.2823900  56.2591510  14.3908830  65.2082600  57.1626650  14.6981200
  64.3802740  55.9403410  14.3630900  65.8309230  55.4250020   2.0135190
  66.7260020  55.7634990   2.0353950  65.8626860  54.7029430   1.3859470
  56.6851190  53.5866100   7.6942450  57.0154200  52.7187160   7.4621090
  57.1142190  53.7924620   8.5247410  61.2813110  51.9175110   5.3544420
  60.9808650  51.7940080   6.2548330  61.1750600  51.0583700   4.9460150
  57.1741400  54.4536690  10.4324080  56.7372390  54.6337490  11.2648230
  57.7419080  55.2111310  10.2905800  57.0065830  46.9656920   6.7912960
  56.3514670  46.6968560   6.1472660  57.8443780  46.8561400   6.3414940
  71.4955220  50.6805670  12.8177550  70.6815060  51.1102830  13.0803340
  71.9029420  51.2924080  12.2046600  58.0441760  47.3509490  11.3316300
  58.4114800  47.2636890  12.2112320  57.4752580  46.5876040  11.2323160
  57.5957760  44.2618580  15.2374720  56.7013810  44.2285340  15.5768430
  58.1355310  44.4605370  16.0025970  71.2833690  41.0450300  17.1226470
  72.1603870  41.0533700  17.5060470  71.2954530  40.3081140  16.5118820
  56.2203910  44.1755850   2.7338290  55.3167990  44.4386050   2.5589950
  56.7044530  44.4467020   1.9538250  58.0997470  38.5366910   9.5857940
  58.7473660  37.9864290   9.1453100  58.5199310  38.7910060  10.4073750
  71.5531270  55.4324270   6.3445820  72.1490340  55.1108840   5.6680240
  71.8109420  54.9596090   7.1359090  57.8529470  38.6922580  12.3283260
  57.5044290  39.1486400  13.0941440  57.5217170  37.7979710  12.4105690
  59.4593840  51.8642180  16.4936450  59.4163470  51.4935090  17.3750910
  59.5904850  52.8019750  16.6338270  63.1599870  53.4201770  12.0946170
  62.9191230  53.6876330  11.2076690  64.1002510  53.5907500  12.1497030
  65.3654290  39.8834460  15.8502680  65.3043180  40.4756290  16.5998090
  66.3054670  39.7760420  15.7052940  68.0028850  39.5404520  15.4894970
  68.6169260  39.8583810  14.8276050  68.5478410  39.0553110  16.1090830
  58.5250110  38.2198780  15.6034030  59.0733100  38.0386830  14.8400140
  58.5905420  37.4292890  16.1390340  59.2981870  54.8104430  13.6134230
  58.7042190  54.6789130  14.3524270  59.2905710  53.9742570  13.1476330
  68.7436890  38.1036660  11.8164260  67.8696730  38.4371770  11.6137190
  68.6347640  37.6309840  12.6416130  69.6508870  40.3107530  13.2005980
  69.3222230  39.4959290  12.8207710  70.5991170  40.2677340  13.0771670
  72.1043480  56.0819570  10.1743550  71.6446450  56.8335380   9.8001570
  71.4755940  55.3626040  10.1158350  58.9294100  52.1762810  12.5642270
  58.2028160  51.5568100  12.4968220  58.9903250  52.5703420  11.6940350
  62.5339200  54.3907810   9.3491680  63.0504220  53.7795170   8.8239940
  63.1836580  54.8936590   9.8402690  65.2734700  55.2816300  10.1760660
  65.5612510  55.0270600   9.2993670  65.7857920  54.7293660  10.7666230
  66.4911710  39.0206500  10.7557170  65.7083500  39.4952000  11.0353930
  66.1974640  38.1161330  10.6470350  71.0432780  39.7229600   8.8006260
  71.4840870  39.6674700   7.9527860  70.7740370  40.6387610   8.8716440
  57.2124100  55.4937200   5.7739030  57.0446140  54.8607880   6.4720920
  56.3458610  55.6996600   5.4233220  57.8352120  39.3253980   3.2770890
  58.5931480  39.4382860   2.7034920  57.3729290  40.1623180   3.2314320
  64.3765930  41.4393250   6.2673200  63.5640440  41.0650140   5.9269080
  64.8807570  40.6838330   6.5694390  68.8790910  38.1035700   7.5056270
  69.4820280  38.6755910   7.9804790  68.1383900  38.6675140   7.2830170
  72.0225510  38.5057260   2.7796550  72.2176140  39.4040710   3.0463980
  71.2355380  38.2744340   3.2729500  58.8186800  54.1870430   3.2189170
  58.2934420  54.5678460   2.5151130  58.7431380  54.8121200   3.9398880
  60.2077270  39.8518030   1.8172860  60.7370030  39.0647830   1.6880810
  60.8405590  40.5309220   2.0508390  62.4015110  39.5893170   4.8718250
  61.7717850  38.8880480   5.0388380  61.8620250  40.3497300   4.6551410
  65.3407060  56.2032400  17.5428860  66.2674370  55.9676670  17.5864820
  65.3257490  57.0304400  17.0614890  62.5270670  38.8677150  17.3070740
  62.2454940  39.3710750  16.5431560  62.9090370  38.0698900  16.9412870
  61.4179770  56.1352810   2.0938420  62.1498590  55.8512090   1.5462310
  61.6773440  55.8966090   2.9837800  60.5794560  52.2517540   2.0984750
  59.9503440  52.7202640   2.6470580  60.6942390  51.4066760   2.5330940
  69.1286130  38.2830730  17.8851210  69.0151580  38.6025340  18.7802730
  69.9455870  38.6843240  17.5888490  68.0344280  27.5279710  63.3459910
  67.9538330  26.6134320  63.0751620  67.6208700  28.0246780  62.6399620
  66.1662320  29.3058730  65.2269180  65.3904420  28.8259170  65.5167750
  66.8175250  28.6264380  65.0525340  60.1828150  29.6178540  66.1044940
  59.3513030  29.3627250  66.5041450  60.7909130  29.6889310  66.8402860
  70.1869750  33.7118920  64.0068310  69.7251280  32.9406160  64.3355480
  70.9995300  33.7384990  64.5120760  60.1629410  33.6518630  66.3002960
  60.4657450  32.7616370  66.1213180  60.9073000  34.2088850  66.0725210
  58.5920100  24.5780430  59.8887330  57.7036800  24.9196400  59.7867210
  58.8761290  24.3780750  58.9968160  56.5553110  27.1786080  65.7727030
  57.1269220  26.4108280  65.7730670  56.5554650  27.4774840  64.8633640
  66.4133060  35.9976930  63.6272300  65.7944500  36.4534430  63.0566740
  67.2684840  36.1528390  63.2262000  65.6071310  31.9815920  65.2339340
  65.5379590  31.0405860  65.0728470  66.3691170  32.0717330  65.8061910
  57.7977980  22.5870440  67.5595960  57.6180820  21.6896190  67.8398720
  57.3958060  23.1342310  68.2342910  66.6376480  24.7886300  65.4608270
  67.0141300  23.9158180  65.3481940  66.5395990  25.1245000  64.5698710
  60.7681490  23.1611930  60.9225710  60.8748240  24.0615660  61.2294470
  59.8573850  23.1129900  60.6320360  70.4200600  22.2836740  62.3936610
  71.2410220  21.7933310  62.4362090  70.4534680  22.8734400  63.1468450
  58.4164650  25.0830940  66.1678300  59.0974760  25.3469310  66.7865700
  58.1012700  24.2431810  66.5016310  62.6089220  26.1298300  65.2550890
  63.1167440  26.6279270  65.8955910  63.1402460  25.3533500  65.0790250
  60.8925320  20.7696860  69.5214310  60.8943760  21.2869250  68.7160210
  60.0629630  20.2927040  69.4984240  67.2796410  30.8816170  61.0204210
  66.6613680  31.3465620  60.4566930  67.7919660  31.5743650  61.4373720
  62.1428170  30.4092040  67.6987810  61.8097550  31.0360960  68.3408880
  62.3194850  30.9353920  66.9189480  70.6562080  24.2237120  65.1664150
  69.9517650  24.5122010  65.7467260  71.0174240  25.0337230  64.8063710
  60.5740650  22.4806820  67.5284760  60.9157460  23.3248870  67.2338630
  59.6356460  22.6290560  67.6450100  61.3547270  32.3772840  69.5136990
  61.9721270  33.0523920  69.2321440  60.4940390  32.7860820  69.4224490
  56.6479610  31.5672700  58.3943840  56.2707590  32.0559800  57.6628740
  56.9052680  32.2397980  59.0250370  64.2568540  19.9689090  63.8529350
  64.5643520  19.4135980  63.1364850  63.3269240  20.1033550  63.6702340
  69.8083600  35.6856380  66.1436810  69.8210760  35.2818670  65.2759070
  69.2558820  36.4603670  66.0398240  71.1029020  32.4072600  61.2326980
  70.9925350  31.4646930  61.3576400  71.0997270  32.7688240  62.1189740
  69.2069040  30.5886220  67.4719420  69.6237830  30.3746330  66.6372880
  69.9308860  30.8459010  68.0428040  66.6449300  28.0337920  60.5889470
  65.7178580  27.9675300  60.8177940  66.7974120  28.9718050  60.4744710
  66.6318380  24.3054920  57.5856630  65.6922050  24.4668880  57.6709090
  66.9501640  25.0240600  57.0392620  70.6746590  29.5958220  61.0924720
  70.0559010  29.2577770  60.4451020  70.6571040  28.9517980  61.8003910
  70.1173150  25.7742760  68.5090530  69.7044330  26.5996470  68.7630520
  69.3849100  25.1887800  68.3166890  62.2505940  28.5602660  63.3709200
  61.8462940  27.8479910  62.8755100  62.3369060  28.2155900  64.2597240
  62.7187640  32.2470220  65.5348410  62.4215930  31.6415690  64.8556190
  63.6687460  32.2847530  65.4237770  60.9634560  25.3345870  67.1508240
  61.5149150  25.4441210  66.3761490  61.4778070  25.7083470  67.8663470
  70.8073250  35.8202090  69.1971510  70.3303810  36.6274280  69.0044120
  70.1235040  35.1680420  69.3497720  68.8511290  28.8345030  58.0997470
  69.2904570  27.9967460  57.9535290  69.5639710  29.4674430  58.1861610
  60.6377290  28.8565230  70.7613580  60.4985060  29.7288030  71.1300980
  59.7558650  28.5138040  70.6161520  66.9606670  33.7741100  62.0678710
  67.4002580  34.5165430  61.6534100  66.8993560  34.0167670  62.9917670
  58.9510570  27.4547640  60.8715850  58.8308170  28.1809730  60.2597120
  58.6411460  26.6850550  60.3943760  56.5895940  30.6262780  66.6784490
  56.6676360  30.7611550  65.7340210  57.2037620  29.9178670  66.8712610
  57.8343570  32.3262970  63.0890670  57.4271650  32.4677560  62.2344270
  58.7256580  32.0423130  62.8861880  67.6522450  36.4754880  69.9957720
  68.1667120  36.3862890  70.7980150  66.8091530  36.8214580  70.2885630
  69.6276850  36.7610220  59.4241720  69.4677990  36.4713160  60.3223550
  69.4623560  35.9850350  58.8886950  62.1065230  36.5408750  61.2013340
  61.9307710  35.6244290  60.9881140  61.2520970  36.8996040  61.4411140
  69.3302980  34.2697780  57.9839720  68.6368140  34.2675070  57.3242000
  70.0725840  33.8457100  57.5533890  68.8952910  35.8960490  62.0588210
  69.3509860  35.1149870  62.3726830  69.2345430  36.6067310  62.6029390
  56.6455460  31.6676950  69.2178950  56.8086500  31.1982310  68.3998320
  57.1107910  31.1600510  69.8827790  61.4174230  20.7982710  64.2539520
  60.9742380  21.5792250  63.9224040  61.9759220  21.1212600  64.9610460
  65.7044040  23.6651230  69.8574840  65.2423410  23.8734250  70.6694780
  65.3022150  22.8510580  69.5545510  70.7048550  24.8860180  70.9871500
  69.8542140  24.5865930  71.3080570  70.5450340  25.1302190  70.0755320
  64.5333050  20.4193410  59.1345350  63.9087230  20.4153280  59.8598660
  64.4463170  19.5524370  58.7381320  63.4550130  21.3430040  66.1129120
  63.7522460  22.2492870  66.0321140  64.0035690  20.8548820  65.4988690
  61.2088450  25.9216280  61.9820770  60.9829370  25.7053450  62.8867390
  60.4280980  26.3544740  61.6366740  68.4386210  25.9279650  60.5811420
  67.8395100  26.6515450  60.3975040  68.9865820  25.8656430  59.7987870
  67.0451080  24.5643190  62.6114700  67.4380650  24.8815390  61.7983390
  67.4067930  23.6855070  62.7259220  58.7798200  23.2315530  70.8014820
  58.3861590  24.0790740  71.0087600  58.0916600  22.5941900  70.9923460
  56.0815250  21.1543990  64.8344900  55.7928300  21.7246850  65.5469880
  56.8261010  20.6748440  65.1976130  56.2685480  25.0964110  56.0447620
  56.1860150  26.0394870  56.1862610  55.9168540  24.9539020  55.1659970
  67.6306220  27.1548940  66.7065480  66.8987340  27.6635750  67.0555580
  67.2330560  26.3378920  66.4054260  64.0683610  23.8303140  65.1117970
  64.0719670  23.3893090  64.2622510  64.9634730  24.1520470  65.2189790
  59.9185990  23.7129630  64.0712180  59.5786040  24.1904860  64.8279230
  59.1563310  23.2594750  63.7113280  64.1303760  24.8315220  58.1024730
  64.2516580  24.7901700  59.0510550  63.7452270  25.6939370  57.9471460
  68.0932130  22.6082620  66.1188420  68.1104870  23.0591270  66.9630270
  67.8447710  21.7088260  66.3321860  63.1425260  27.1416360  57.5008030
  62.5742160  26.6934610  56.8743940  63.8514260  27.5009140  56.9673180
  58.2194440  31.0428380  71.3774760  57.8349230  30.4022050  71.9757720
  58.5306630  31.7464500  71.9469490  64.3691580  27.8904920  66.8583380
  64.7361710  27.4163490  67.6044720  64.1796640  28.7646490  67.1991720
  57.2332070  22.6348610  62.9876850  56.9478990  22.2704280  63.8255470
  57.1710930  21.9029070  62.3739990  62.1590950  26.9313560  69.1767590
  61.8548020  27.8105540  69.4017950  63.1137410  26.9913350  69.2125030
  60.6872740  31.1374550  59.7734440  59.9135000  30.5972170  59.6133160
  61.4167370  30.6181160  59.4352200  71.4460720  30.1339910  65.5660830
  72.1659840  30.6295200  65.1756940  71.2442540  29.4557800  64.9214700
  66.9070660  21.5277870  59.7090220  66.0935270  21.0291040  59.6335530
  66.7132610  22.3676120  59.2926570  66.8279520  30.2048970  71.4529830
  66.7616830  29.2844640  71.1987420  66.1984660  30.3024410  72.1674470
  69.6219050  25.8997520  58.0052380  70.5098670  26.2114750  57.8303720
  69.5924140  25.0269770  57.6132960  60.7310140  30.8054930  63.4113250
  61.2488810  30.0023190  63.3570140  60.2794160  30.7434070  64.2530080
  65.6179640  32.0721210  58.6840550  65.9595340  32.8163440  58.1883870
  64.7892350  32.3852330  59.0465380  58.2154680  27.7716300  70.3238950
  57.8569620  28.4370150  70.9112290  57.9209240  26.9399850  70.6951570
  66.7596250  33.0269540  71.2033630  66.7740790  32.0950500  70.9852540
  66.0521350  33.1129300  71.8423400  68.5007050  31.3937050  64.0486060
  68.8530870  30.7965180  63.3887430  67.6169380  31.0681280  64.2194310
  64.5870330  32.1534740  61.4556470  65.2741460  32.7003950  61.8364060
  63.8002750  32.6975470  61.4906080  56.7262730  27.7707560  56.9473550
  57.5957580  28.0532360  57.2309470  56.2353050  28.5843430  56.8322360
  63.8897540  29.1580770  61.0681830  64.3460320  29.9686020  61.2942020
  63.5385750  28.8403910  61.9000320  66.1930150  34.6687110  68.2974130
  66.8372370  34.8746490  68.9747550  66.5559590  33.9075510  67.8444980
  59.7909320  19.5018420  61.5404350  59.6623950  19.4936320  62.4889270
  58.9671340  19.8401510  61.1895360  67.4662230  32.6719460  67.0151580
  68.1084460  31.9712620  67.1283750  67.9911580  33.4517900  66.8348470
  71.3117950  32.9568080  56.7390720  71.0855530  32.2398520  57.3315360
  70.9214150  32.7080520  55.9012470  69.2399850  33.4714360  70.2187640
  69.5756090  34.0581050  70.8965560  68.3200190  33.3407070  70.4485430
  57.0933980  36.9834940  57.5135180  57.4531620  37.5824280  56.8592450
  56.9526320  37.5294830  58.2870210  56.7903250  21.2609540  71.0011050
  56.0761770  21.4606460  71.6063660  57.2098290  20.4849110  71.3725850
  70.8934200  30.8740020  58.4004880  70.6055900  31.3352710  59.1882760
  71.6886370  30.4137790  58.6689100  57.0775840  35.2489800  71.9877580
  57.1866960  34.3084540  71.8472970  56.4256400  35.5144550  71.3391310
  63.1102600  34.3666140  58.3308850  63.1012700  35.0995830  57.7153360
  62.1900960  34.1197720  58.4235810  58.7109240  29.5881030  59.0755610
  58.1037190  30.3279930  59.0850910  59.1858590  29.6780390  58.2493810
  68.2842030  23.7531850  68.7512500  68.6522850  22.9327060  69.0792070
  67.4240230  23.8133740  69.1668150  71.6504060  22.7088790  59.5600060
  71.0217220  22.8134460  58.8458290  71.1555980  22.9285570  60.3493940
  66.0962200  34.4294380  56.9934040  66.1974180  34.2258370  56.0636020
  65.1963940  34.1752660  57.1981820  63.6188090  24.9874740  60.9757940
  62.9104240  25.4561080  61.4171550  63.9032570  24.3296750  61.6103130
  65.2444020  26.4071440  68.9750470  65.7429270  26.8817260  69.6402320
  65.3866970  25.4834960  69.1820500  67.6503520  21.7125400  62.4153730
  67.5271300  21.7311530  61.4663240  68.5988080  21.7604340  62.5352130
  64.7380310  36.9480700  61.6881710  64.9921810  36.9102090  60.7661080
  63.7892790  36.8214030  61.6809960  61.8223110  23.2959820  58.3508650
  62.6713640  23.7329970  58.2848840  61.4554380  23.6080080  59.1780710
  70.7432890  27.8672580  63.2640220  69.8023030  27.8822810  63.4387910
  71.0576960  27.0808540  63.7100520  60.7214530  29.5492180  56.8244180
  61.4877800  29.4373540  57.3869610  60.7989220  28.8530150  56.1720950
  59.4161290  26.9817250  57.5077070  59.4964880  26.0344760  57.6194470
  60.3081040  27.3124130  57.6137730  60.2176000  37.1312640  64.6111610
  60.9538480  36.5828100  64.8820180  60.6016920  37.9968650  64.4717600
  57.1021480  33.1986210  60.4853120  56.1761260  33.4407350  60.4758530
  57.5677910  34.0260470  60.3637870  63.3278310  36.3042950  56.4337180
  64.1206920  36.5931780  55.9818970  62.8082660  35.8735120  55.7549660
  72.3808480  35.5313080  57.8573920  72.0949990  35.1178220  57.0428100
  72.1828030  36.4600790  57.7374440  63.8455710  31.5246360  56.2979530
  63.7406350  30.9098710  57.0240910  63.6779930  31.0012250  55.5142540
  67.0858440  30.5866390  56.9021520  66.5368540  31.0335690  57.5464260
  67.7077700  30.0815640  57.4259190  62.7533560  29.5457310  58.7986820
  63.1749980  29.3797180  59.6418210  62.8784400  28.7357540  58.3041960
  60.9160980  25.5253860  71.6057800  60.3857440  25.0344810  70.9781140
  61.5849050  25.9538060  71.0715730  65.2661200  28.5694920  56.0463920
  65.7866860  27.8543940  55.6805070  65.9129600  29.2080790  56.3464430
  69.8139040  29.9923320  71.3698990  70.2280060  30.1468400  72.2189410
  68.8790040  30.1178540  71.5324770  61.4033280  22.4916230  71.6855090
  61.3090150  21.8736980  70.9605960  60.8230670  23.2182520  71.4585000
  64.1694720  21.0489470  68.7182480  63.7212020  21.0713730  67.8728030
  63.5359920  20.6508490  69.3152780  64.5754270  29.9443800  69.3394920
  64.9942380  30.7876530  69.1671160  63.6562900  30.0815840  69.1101700
  66.9118170  27.6759980  70.7232760  67.0314380  27.0801120  71.4627600
  67.7712170  27.7129670  70.3034060  69.2506070  28.2297170  69.2995270
  68.7241290  28.7539790  68.6960410  69.5937410  28.8624560  69.9305000
  61.6492460  25.6190540  55.7444980  61.4481520  24.7557900  56.1058320
  61.4784510  25.5323900  54.8066580  62.4261690  36.2496810  70.4552650
  61.8882780  36.9742870  70.1361350  62.6795650  35.7727150  69.6649990
  69.1280770  20.4298770  58.2731860  69.4083060  19.5866670  58.6291280
  68.3546500  20.6621880  58.7870610  60.4475260  22.7191160  55.7322860
  60.7501160  22.7258590  54.8242010  61.1869850  22.3689020  56.2290520
  65.2823900  37.4848020  70.7139300  65.2082600  38.3883160  71.0211670
  64.3802740  37.1659920  70.6861370  63.6660190  21.6625780  56.7179060
  63.3182190  20.9849770  56.1381510  63.8672960  21.2015290  57.5322450
  65.8309230  36.6506530  58.3365660  66.7260020  36.9891500  58.3584420
  65.8626860  35.9285940  57.7089940  59.4705390  32.0233580  56.5652660
  59.9080260  32.5663250  57.2210240  59.9553120  31.1980530  56.5749000
  56.6851190  34.8122610  64.0172920  57.0154200  33.9443670  63.7851560
  57.1142190  35.0181130  64.8477880  61.2813110  33.1431620  61.6774890
  60.9808650  33.0196590  62.5778800  61.1750600  32.2840210  61.2690620
  57.1741400  35.6793200  66.7554550  56.7372390  35.8594000  67.5878700
  57.7419080  36.4367820  66.6136270  57.0065830  28.1913430  63.1143430
  56.3514670  27.9225070  62.4703130  57.8443780  28.0817910  62.6645410
  71.4955220  31.9062180  69.1408020  70.6815060  32.3359340  69.4033810
  71.9029420  32.5180590  68.5277070  69.9556270  22.9854720  57.3361920
  70.3741150  22.7985700  56.4958580  69.6492330  22.1333770  57.6464850
  58.0441760  28.5766000  67.6546770  58.4114800  28.4893400  68.5342790
  57.4752580  27.8132550  67.5553630  56.2203910  25.4012360  59.0568760
  55.3167990  25.6642560  58.8820420  56.7044530  25.6723530  58.2768720
  58.7631120  24.4577900  56.9663140  59.4722820  24.0361120  56.4810420
  58.0471060  24.5253130  56.3346490  58.4105280  20.5117230  56.0065790
  59.1333410  21.0526170  56.3247010  58.6829800  20.2380650  55.1307330
  58.0997470  19.7623420  65.9088410  58.7473660  19.2120800  65.4683570
  58.5199310  20.0166570  66.7304220  71.5531270  36.6580780  62.6676290
  72.1490340  36.3365350  61.9910710  71.8109420  36.1852600  63.4589560
  57.8529470  19.9179090  68.6513730  57.5044290  20.3742910  69.4171910
  57.5217170  19.0236220  68.7336160  63.1599870  34.6458280  68.4176640
  62.9191230  34.9132840  67.5307160  64.1002510  34.8164010  68.4727500
  59.2981870  36.0360940  69.9364700  58.7042190  35.9045640  70.6754740
  59.2905710  35.1999080  69.4706800  68.7436890  19.3293170  68.1394730
  67.8696730  19.6628280  67.9367660  68.6347640  18.8566350  68.9646600
  69.6508870  21.5364040  69.5236450  69.3222230  20.7215800  69.1438180
  70.5991170  21.4933850  69.4002140  72.1043480  37.3076080  66.4974020
  71.6446450  38.0591890  66.1232040  71.4755940  36.5882550  66.4388820
  58.9294100  33.4019320  68.8872740  58.2028160  32.7824610  68.8198690
  58.9903250  33.7959930  68.0170820  62.5339200  35.6164320  65.6722150
  63.0504220  35.0051680  65.1470410  63.1836580  36.1193100  66.1633160
  65.2734700  36.5072810  66.4991130  65.5612510  36.2527110  65.6224140
  65.7857920  35.9550170  67.0896700  66.4911710  20.2463010  67.0787640
  65.7083500  20.7208510  67.3584400  66.1974640  19.3417840  66.9700820
  71.0432780  20.9486110  65.1236730  71.4840870  20.8931210  64.2758330
  70.7740370  21.8644120  65.1946910  57.2124100  36.7193710  62.0969500
  57.0446140  36.0864390  62.7951390  56.3458610  36.9253110  61.7463690
  57.8352120  20.5510490  59.6001360  58.5931480  20.6639370  59.0265390
  57.3729290  21.3879690  59.5544790  64.3765930  22.6649760  62.5903670
  63.5640440  22.2906650  62.2499550  64.8807570  21.9094840  62.8924860
  68.8790910  19.3292210  63.8286740  69.4820280  19.9012420  64.3035260
  68.1383900  19.8931650  63.6060640  72.0225510  19.7313770  59.1027020
  72.2176140  20.6297220  59.3694450  71.2355380  19.5000850  59.5959970
  58.8186800  35.4126940  59.5419640  58.2934420  35.7934970  58.8381600
  58.7431380  36.0377710  60.2629350  60.2077270  21.0774540  58.1403330
  60.7370030  20.2904340  58.0111280  60.8405590  21.7565730  58.3738860
  62.4015110  20.8149680  61.1948720  61.7717850  20.1136990  61.3618850
  61.8620250  21.5753810  60.9781880  61.4179770  37.3609320  58.4168890
  62.1498590  37.0768600  57.8692780  61.6773440  37.1222600  59.3068270
  60.5794560  33.4774050  58.4215220  59.9503440  33.9459150  58.9701050
  60.6942390  32.6323270  58.8561410  68.0344280  27.5279710  44.5716420
  67.9538330  26.6134320  44.3008130  67.6208700  28.0246780  43.8656130
  66.1662320  29.3058730  46.4525690  65.3904420  28.8259170  46.7424260
  66.8175250  28.6264380  46.2781850  60.1828150  29.6178540  47.3301450
  59.3513030  29.3627250  47.7297960  60.7909130  29.6889310  48.0659370
  70.1869750  33.7118920  45.2324820  69.7251280  32.9406160  45.5611990
  70.9995300  33.7384990  45.7377270  60.1629410  33.6518630  47.5259470
  60.4657450  32.7616370  47.3469690  60.9073000  34.2088850  47.2981720
  58.5920100  24.5780430  41.1143840  57.7036800  24.9196400  41.0123720
  58.8761290  24.3780750  40.2224670  56.5553110  27.1786080  46.9983540
  57.1269220  26.4108280  46.9987180  56.5554650  27.4774840  46.0890150
  66.4133060  35.9976930  44.8528810  65.7944500  36.4534430  44.2823250
  67.2684840  36.1528390  44.4518510  65.6071310  31.9815920  46.4595850
  65.5379590  31.0405860  46.2984980  66.3691170  32.0717330  47.0318420
  57.7977980  22.5870440  48.7852470  57.6180820  21.6896190  49.0655230
  57.3958060  23.1342310  49.4599420  66.6376480  24.7886300  46.6864780
  67.0141300  23.9158180  46.5738450  66.5395990  25.1245000  45.7955220
  60.7681490  23.1611930  42.1482220  60.8748240  24.0615660  42.4550980
  59.8573850  23.1129900  41.8576870  70.4200600  22.2836740  43.6193120
  71.2410220  21.7933310  43.6618600  70.4534680  22.8734400  44.3724960
  58.4164650  25.0830940  47.3934810  59.0974760  25.3469310  48.0122210
  58.1012700  24.2431810  47.7272820  62.6089220  26.1298300  46.4807400
  63.1167440  26.6279270  47.1212420  63.1402460  25.3533500  46.3046760
  60.8925320  20.7696860  50.7470820  60.8943760  21.2869250  49.9416720
  60.0629630  20.2927040  50.7240750  67.2796410  30.8816170  42.2460720
  66.6613680  31.3465620  41.6823440  67.7919660  31.5743650  42.6630230
  62.1428170  30.4092040  48.9244320  61.8097550  31.0360960  49.5665390
  62.3194850  30.9353920  48.1445990  70.6562080  24.2237120  46.3920660
  69.9517650  24.5122010  46.9723770  71.0174240  25.0337230  46.0320220
  60.5740650  22.4806820  48.7541270  60.9157460  23.3248870  48.4595140
  59.6356460  22.6290560  48.8706610  61.3547270  32.3772840  50.7393500
  61.9721270  33.0523920  50.4577950  60.4940390  32.7860820  50.6481000
  56.6479610  31.5672700  39.6200350  56.2707590  32.0559800  38.8885250
  56.9052680  32.2397980  40.2506880  64.2568540  19.9689090  45.0785860
  64.5643520  19.4135980  44.3621360  63.3269240  20.1033550  44.8958850
  69.8083600  35.6856380  47.3693320  69.8210760  35.2818670  46.5015580
  69.2558820  36.4603670  47.2654750  71.1029020  32.4072600  42.4583490
  70.9925350  31.4646930  42.5832910  71.0997270  32.7688240  43.3446250
  69.2069040  30.5886220  48.6975930  69.6237830  30.3746330  47.8629390
  69.9308860  30.8459010  49.2684550  66.6449300  28.0337920  41.8145980
  65.7178580  27.9675300  42.0434450  66.7974120  28.9718050  41.7001220
  66.6318380  24.3054920  38.8113140  65.6922050  24.4668880  38.8965600
  66.9501640  25.0240600  38.2649130  70.6746590  29.5958220  42.3181230
  70.0559010  29.2577770  41.6707530  70.6571040  28.9517980  43.0260420
  70.1173150  25.7742760  49.7347040  69.7044330  26.5996470  49.9887030
  69.3849100  25.1887800  49.5423400  62.2505940  28.5602660  44.5965710
  61.8462940  27.8479910  44.1011610  62.3369060  28.2155900  45.4853750
  62.7187640  32.2470220  46.7604920  62.4215930  31.6415690  46.0812700
  63.6687460  32.2847530  46.6494280  60.9634560  25.3345870  48.3764750
  61.5149150  25.4441210  47.6018000  61.4778070  25.7083470  49.0919980
  70.8073250  35.8202090  50.4228020  70.3303810  36.6274280  50.2300630
  70.1235040  35.1680420  50.5754230  61.8106070  31.9851910  53.4112720
  60.9134600  32.2091880  53.6586120  61.8358940  32.1086850  52.4624120
  68.8511290  28.8345030  39.3253980  69.2904570  27.9967460  39.1791800
  69.5639710  29.4674430  39.4118120  60.6377290  28.8565230  51.9870090
  60.4985060  29.7288030  52.3557490  59.7558650  28.5138040  51.8418030
  66.9606670  33.7741100  43.2935220  67.4002580  34.5165430  42.8790610
  66.8993560  34.0167670  44.2174180  62.4357640  34.7986930  54.1955240
  62.4073070  35.2029880  53.3283670  62.2722610  33.8697290  54.0326840
  58.9510570  27.4547640  42.0972360  58.8308170  28.1809730  41.4853630
  58.6411460  26.6850550  41.6200270  56.5895940  30.6262780  47.9041000
  56.6676360  30.7611550  46.9596720  57.2037620  29.9178670  48.0969120
  57.8343570  32.3262970  44.3147180  57.4271650  32.4677560  43.4600780
  58.7256580  32.0423130  44.1118390  67.6522450  36.4754880  51.2214230
  68.1667120  36.3862890  52.0236660  66.8091530  36.8214580  51.5142140
  69.6276850  36.7610220  40.6498230  69.4677990  36.4713160  41.5480060
  69.4623560  35.9850350  40.1143460  62.1065230  36.5408750  42.4269850
  61.9307710  35.6244290  42.2137650  61.2520970  36.8996040  42.6667650
  69.3302980  34.2697780  39.2096230  68.6368140  34.2675070  38.5498510
  70.0725840  33.8457100  38.7790400  68.8952910  35.8960490  43.2844720
  69.3509860  35.1149870  43.5983340  69.2345430  36.6067310  43.8285900
  56.6455460  31.6676950  50.4435460  56.8086500  31.1982310  49.6254830
  57.1107910  31.1600510  51.1084300  61.4174230  20.7982710  45.4796030
  60.9742380  21.5792250  45.1480550  61.9759220  21.1212600  46.1866970
  65.7044040  23.6651230  51.0831350  65.2423410  23.8734250  51.8951290
  65.3022150  22.8510580  50.7802020  70.7048550  24.8860180  52.2128010
  69.8542140  24.5865930  52.5337080  70.5450340  25.1302190  51.3011830
  67.7998260  26.3861930  54.3126800  68.1251670  25.5525680  53.9729030
  68.5878590  26.9090450  54.4605130  64.5333050  20.4193410  40.3601860
  63.9087230  20.4153280  41.0855170  64.4463170  19.5524370  39.9637830
  63.4550130  21.3430040  47.3385630  63.7522460  22.2492870  47.2577650
  64.0035690  20.8548820  46.7245200  61.2088450  25.9216280  43.2077280
  60.9829370  25.7053450  44.1123900  60.4280980  26.3544740  42.8623250
  68.4386210  25.9279650  41.8067930  67.8395100  26.6515450  41.6231550
  68.9865820  25.8656430  41.0244380  63.6487660  26.8201860  53.8737550
  63.5531260  25.8796590  53.7237950  64.4919640  27.0416930  53.4785620
  67.0451080  24.5643190  43.8371210  67.4380650  24.8815390  43.0239900
  67.4067930  23.6855070  43.9515730  58.7798200  23.2315530  52.0271330
  58.3861590  24.0790740  52.2344110  58.0916600  22.5941900  52.2179970
  65.3543250  23.3150500  55.0968070  64.6641570  23.1222700  55.7314160
  66.0975550  23.5985140  55.6292370  56.0815250  21.1543990  46.0601410
  55.7928300  21.7246850  46.7726390  56.8261010  20.6748440  46.4232640
  56.2685480  25.0964110  37.2704130  56.1860150  26.0394870  37.4119120
  55.9168540  24.9539020  36.3916480  67.6306220  27.1548940  47.9321990
  66.8987340  27.6635750  48.2812090  67.2330560  26.3378920  47.6310770
  64.0683610  23.8303140  46.3374480  64.0719670  23.3893090  45.4879020
  64.9634730  24.1520470  46.4446300  59.9185990  23.7129630  45.2968690
  59.5786040  24.1904860  46.0535740  59.1563310  23.2594750  44.9369790
  64.1303760  24.8315220  39.3281240  64.2516580  24.7901700  40.2767060
  63.7452270  25.6939370  39.1727970  68.0932130  22.6082620  47.3444930
  68.1104870  23.0591270  48.1886780  67.8447710  21.7088260  47.5578370
  63.1425260  27.1416360  38.7264540  62.5742160  26.6934610  38.1000450
  63.8514260  27.5009140  38.1929690  71.5202880  20.0214800  53.1831310
  71.8448650  19.2904460  53.7089290  71.5559390  19.7028440  52.2812300
  58.2194440  31.0428380  52.6031270  57.8349230  30.4022050  53.2014230
  58.5306630  31.7464500  53.1726000  64.3691580  27.8904920  48.0839890
  64.7361710  27.4163490  48.8301230  64.1796640  28.7646490  48.4248230
  57.2332070  22.6348610  44.2133360  56.9478990  22.2704280  45.0511980
  57.1710930  21.9029070  43.5996500  62.1590950  26.9313560  50.4024100
  61.8548020  27.8105540  50.6274460  63.1137410  26.9913350  50.4381540
  60.6872740  31.1374550  40.9990950  59.9135000  30.5972170  40.8389670
  61.4167370  30.6181160  40.6608710  71.4460720  30.1339910  46.7917340
  72.1659840  30.6295200  46.4013450  71.2442540  29.4557800  46.1471210
  66.9070660  21.5277870  40.9346730  66.0935270  21.0291040  40.8592040
  66.7132610  22.3676120  40.5183080  66.8279520  30.2048970  52.6786340
  66.7616830  29.2844640  52.4243930  66.1984660  30.3024410  53.3930980
  69.6219050  25.8997520  39.2308890  70.5098670  26.2114750  39.0560230
  69.5924140  25.0269770  38.8389470  60.7310140  30.8054930  44.6369760
  61.2488810  30.0023190  44.5826650  60.2794160  30.7434070  45.4786590
  65.6179640  32.0721210  39.9097060  65.9595340  32.8163440  39.4140380
  64.7892350  32.3852330  40.2721890  58.2154680  27.7716300  51.5495460
  57.8569620  28.4370150  52.1368800  57.9209240  26.9399850  51.9208080
  61.4167800  28.2300540  54.4335010  61.1167940  28.3757720  53.5362830
  62.1879040  27.6705830  54.3408400  66.7596250  33.0269540  52.4290140
  66.7740790  32.0950500  52.2109050  66.0521350  33.1129300  53.0679910
  68.5007050  31.3937050  45.2742570  68.8530870  30.7965180  44.6143940
  67.6169380  31.0681280  45.4450820  64.5870330  32.1534740  42.6812980
  65.2741460  32.7003950  43.0620570  63.8002750  32.6975470  42.7162590
  56.7262730  27.7707560  38.1730060  57.5957580  28.0532360  38.4565980
  56.2353050  28.5843430  38.0578870  63.8897540  29.1580770  42.2938340
  64.3460320  29.9686020  42.5198530  63.5385750  28.8403910  43.1256830
  66.1930150  34.6687110  49.5230640  66.8372370  34.8746490  50.2004060
  66.5559590  33.9075510  49.0701490  59.7909320  19.5018420  42.7660860
  59.6623950  19.4936320  43.7145780  58.9671340  19.8401510  42.4151870
  67.4662230  32.6719460  48.2408090  68.1084460  31.9712620  48.3540260
  67.9911580  33.4517900  48.0604980  71.3117950  32.9568080  37.9647230
  71.0855530  32.2398520  38.5571870  70.9214150  32.7080520  37.1268980
  69.2399850  33.4714360  51.4444150  69.5756090  34.0581050  52.1222070
  68.3200190  33.3407070  51.6741940  57.0933980  36.9834940  38.7391690
  57.4531620  37.5824280  38.0848960  56.9526320  37.5294830  39.5126720
  56.7903250  21.2609540  52.2267560  56.0761770  21.4606460  52.8320170
  57.2098290  20.4849110  52.5982360  70.8934200  30.8740020  39.6261390
  70.6055900  31.3352710  40.4139270  71.6886370  30.4137790  39.8945610
  57.0775840  35.2489800  53.2134090  57.1866960  34.3084540  53.0729480
  56.4256400  35.5144550  52.5647820  65.0688430  33.5205690  54.6132210
  64.7485300  32.8014930  55.1577900  64.3946790  34.1960760  54.6868270
  63.1102600  34.3666140  39.5565360  63.1012700  35.0995830  38.9409870
  62.1900960  34.1197720  39.6492320  58.7109240  29.5881030  40.3012120
  58.1037190  30.3279930  40.3107420  59.1858590  29.6780390  39.4750320
  68.2842030  23.7531850  49.9769010  68.6522850  22.9327060  50.3048580
  67.4240230  23.8133740  50.3924660  71.6504060  22.7088790  40.7856570
  71.0217220  22.8134460  40.0714800  71.1555980  22.9285570  41.5750450
  66.0962200  34.4294380  38.2190550  66.1974180  34.2258370  37.2892530
  65.1963940  34.1752660  38.4238330  63.6188090  24.9874740  42.2014450
  62.9104240  25.4561080  42.6428060  63.9032570  24.3296750  42.8359640
  65.2444020  26.4071440  50.2006980  65.7429270  26.8817260  50.8658830
  65.3866970  25.4834960  50.4077010  67.6503520  21.7125400  43.6410240
  67.5271300  21.7311530  42.6919750  68.5988080  21.7604340  43.7608640
  64.7380310  36.9480700  42.9138220  64.9921810  36.9102090  41.9917590
  63.7892790  36.8214030  42.9066470  61.8223110  23.2959820  39.5765160
  62.6713640  23.7329970  39.5105350  61.4554380  23.6080080  40.4037220
  70.7432890  27.8672580  44.4896730  69.8023030  27.8822810  44.6644420
  71.0576960  27.0808540  44.9357030  60.7214530  29.5492180  38.0500690
  61.4877800  29.4373540  38.6126120  60.7989220  28.8530150  37.3977460
  59.4161290  26.9817250  38.7333580  59.4964880  26.0344760  38.8450980
  60.3081040  27.3124130  38.8394240  60.2176000  37.1312640  45.8368120
  60.9538480  36.5828100  46.1076690  60.6016920  37.9968650  45.6974110
  57.1021480  33.1986210  41.7109630  56.1761260  33.4407350  41.7015040
  57.5677910  34.0260470  41.5894380  59.2234280  36.3158710  55.0253700
  60.0247010  36.6370760  55.4389100  58.7086100  35.9554290  55.7473610
  63.3278310  36.3042950  37.6593690  64.1206920  36.5931780  37.2075480
  62.8082660  35.8735120  36.9806170  68.0598910  32.4238580  54.9729110
  67.4537070  32.4470180  54.2324860  67.7553020  31.6921620  55.5096360
  69.4899280  36.1518870  53.5838520  70.4421030  36.0676890  53.5338760
  69.3427500  36.8160580  54.2572310  72.3808480  35.5313080  39.0830430
  72.0949990  35.1178220  38.2684610  72.1828030  36.4600790  38.9630950
  56.9432090  28.8032170  53.9689750  57.4471110  28.2239450  54.5405980
  56.2039510  29.0872400  54.5066120  63.8455710  31.5246360  37.5236040
  63.7406350  30.9098710  38.2497420  63.6779930  31.0012250  36.7399050
  63.9970030  30.2103160  53.5025270  63.2315700  30.7788160  53.4179940
  64.1785990  29.9179370  52.6093500  67.0858440  30.5866390  38.1278030
  66.5368540  31.0335690  38.7720770  67.7077700  30.0815640  38.6515700
  71.1393380  31.9408490  54.0600290  71.8802850  32.2784250  53.5567750
  70.3766060  32.1100550  53.5070060  58.9755170  26.9461760  54.8639820
  59.0160510  26.6475630  55.7725050  59.8300670  27.3469370  54.7047340
  62.7533560  29.5457310  40.0243330  63.1749980  29.3797180  40.8674720
  62.8784400  28.7357540  39.5298470  60.9160980  25.5253860  52.8314310
  60.3857440  25.0344810  52.2037650  61.5849050  25.9538060  52.2972240
  65.2661200  28.5694920  37.2720430  65.7866860  27.8543940  36.9061580
  65.9129600  29.2080790  37.5720940  69.8139040  29.9923320  52.5955500
  70.2280060  30.1468400  53.4445920  68.8790040  30.1178540  52.7581280
  70.2861210  27.3319480  54.5994650  70.8681980  26.5771800  54.5115130
  70.4622980  27.8626920  53.8226130  61.4033280  22.4916230  52.9111600
  61.3090150  21.8736980  52.1862470  60.8230670  23.2182520  52.6841510
  64.1694720  21.0489470  49.9438990  63.7212020  21.0713730  49.0984540
  63.5359920  20.6508490  50.5409290  64.5754270  29.9443800  50.5651430
  64.9942380  30.7876530  50.3927670  63.6562900  30.0815840  50.3358210
  66.9118170  27.6759980  51.9489270  67.0314380  27.0801120  52.6884110
  67.7712170  27.7129670  51.5290570  69.2506070  28.2297170  50.5251780
  68.7241290  28.7539790  49.9216920  69.5937410  28.8624560  51.1561510
  61.6492460  25.6190540  36.9701490  61.4481520  24.7557900  37.3314830
  61.4784510  25.5323900  36.0323090  62.4261690  36.2496810  51.6809160
  61.8882780  36.9742870  51.3617860  62.6795650  35.7727150  50.8906500
  63.6786940  24.2181330  53.2065090  64.2686630  23.9097180  53.8942910
  62.8607180  23.7461080  53.3624990  68.4980370  23.8347140  53.4398110
  67.8095890  23.1728680  53.3748100  69.2186390  23.3885410  53.8846570
  69.1280770  20.4298770  39.4988370  69.4083060  19.5866670  39.8547790
  68.3546500  20.6621880  40.0127120  60.4475260  22.7191160  36.9579370
  60.7501160  22.7258590  36.0498520  61.1869850  22.3689020  37.4547030
  65.2823900  37.4848020  51.9395810  65.2082600  38.3883160  52.2468180
  64.3802740  37.1659920  51.9117880  63.6660190  21.6625780  37.9435570
  63.3182190  20.9849770  37.3638020  63.8672960  21.2015290  38.7578960
  65.8309230  36.6506530  39.5622170  66.7260020  36.9891500  39.5840930
  65.8626860  35.9285940  38.9346450  59.4705390  32.0233580  37.7909170
  59.9080260  32.5663250  38.4466750  59.9553120  31.1980530  37.8005510
  56.6851190  34.8122610  45.2429430  57.0154200  33.9443670  45.0108070
  57.1142190  35.0181130  46.0734390  61.2813110  33.1431620  42.9031400
  60.9808650  33.0196590  43.8035310  61.1750600  32.2840210  42.4947130
  57.1741400  35.6793200  47.9811060  56.7372390  35.8594000  48.8135210
  57.7419080  36.4367820  47.8392780  57.0065830  28.1913430  44.3399940
  56.3514670  27.9225070  43.6959640  57.8443780  28.0817910  43.8901920
  71.4955220  31.9062180  50.3664530  70.6815060  32.3359340  50.6290320
  71.9029420  32.5180590  49.7533580  69.9556270  22.9854720  38.5618430
  70.3741150  22.7985700  37.7215090  69.6492330  22.1333770  38.8721360
  58.0441760  28.5766000  48.8803280  58.4114800  28.4893400  49.7599300
  57.4752580  27.8132550  48.7810140  57.5957760  25.4875090  52.7861700
  56.7013810  25.4541850  53.1255410  58.1355310  25.6861880  53.5512950
  71.2833690  22.2706810  54.6713450  72.1603870  22.2790210  55.0547450
  71.2954530  21.5337650  54.0605800  56.2203910  25.4012360  40.2825270
  55.3167990  25.6642560  40.1076930  56.7044530  25.6723530  39.5025230
  58.7631120  24.4577900  38.1919650  59.4722820  24.0361120  37.7066930
  58.0471060  24.5253130  37.5603000  58.4105280  20.5117230  37.2322300
  59.1333410  21.0526170  37.5503520  58.6829800  20.2380650  36.3563840
  58.0997470  19.7623420  47.1344920  58.7473660  19.2120800  46.6940080
  58.5199310  20.0166570  47.9560730  71.5531270  36.6580780  43.8932800
  72.1490340  36.3365350  43.2167220  71.8109420  36.1852600  44.6846070
  57.8529470  19.9179090  49.8770240  57.5044290  20.3742910  50.6428420
  57.5217170  19.0236220  49.9592670  59.4593840  33.0898690  54.0423430
  59.4163470  32.7191600  54.9237890  59.5904850  34.0276260  54.1825250
  63.1599870  34.6458280  49.6433150  62.9191230  34.9132840  48.7563670
  64.1002510  34.8164010  49.6984010  65.3654290  21.1090970  53.3989660
  65.3043180  21.7012800  54.1485070  66.3054670  21.0016930  53.2539920
  68.0028850  20.7661030  53.0381950  68.6169260  21.0840320  52.3763030
  68.5478410  20.2809620  53.6577810  58.5250110  19.4455290  53.1521010
  59.0733100  19.2643340  52.3887120  58.5905420  18.6549400  53.6877320
  59.2981870  36.0360940  51.1621210  58.7042190  35.9045640  51.9011250
  59.2905710  35.1999080  50.6963310  68.7436890  19.3293170  49.3651240
  67.8696730  19.6628280  49.1624170  68.6347640  18.8566350  50.1903110
  69.6508870  21.5364040  50.7492960  69.3222230  20.7215800  50.3694690
  70.5991170  21.4933850  50.6258650  72.1043480  37.3076080  47.7230530
  71.6446450  38.0591890  47.3488550  71.4755940  36.5882550  47.6645330
  58.9294100  33.4019320  50.1129250  58.2028160  32.7824610  50.0455200
  58.9903250  33.7959930  49.2427330  62.5339200  35.6164320  46.8978660
  63.0504220  35.0051680  46.3726920  63.1836580  36.1193100  47.3889670
  65.2734700  36.5072810  47.7247640  65.5612510  36.2527110  46.8480650
  65.7857920  35.9550170  48.3153210  66.4911710  20.2463010  48.3044150
  65.7083500  20.7208510  48.5840910  66.1974640  19.3417840  48.1957330
  71.0432780  20.9486110  46.3493240  71.4840870  20.8931210  45.5014840
  70.7740370  21.8644120  46.4203420  57.2124100  36.7193710  43.3226010
  57.0446140  36.0864390  44.0207900  56.3458610  36.9253110  42.9720200
  57.8352120  20.5510490  40.8257870  58.5931480  20.6639370  40.2521900
  57.3729290  21.3879690  40.7801300  64.3765930  22.6649760  43.8160180
  63.5640440  22.2906650  43.4756060  64.8807570  21.9094840  44.1181370
  68.8790910  19.3292210  45.0543250  69.4820280  19.9012420  45.5291770
  68.1383900  19.8931650  44.8317150  72.0225510  19.7313770  40.3283530
  72.2176140  20.6297220  40.5950960  71.2355380  19.5000850  40.8216480
  58.8186800  35.4126940  40.7676150  58.2934420  35.7934970  40.0638110
  58.7431380  36.0377710  41.4885860  60.2077270  21.0774540  39.3659840
  60.7370030  20.2904340  39.2367790  60.8405590  21.7565730  39.5995370
  62.4015110  20.8149680  42.4205230  61.7717850  20.1136990  42.5875360
  61.8620250  21.5753810  42.2038390  65.3407060  37.4288910  55.0915840
  66.2674370  37.1933180  55.1351800  65.3257490  38.2560910  54.6101870
  62.5270670  20.0933660  54.8557720  62.2454940  20.5967260  54.0918540
  62.9090370  19.2955410  54.4899850  61.4179770  37.3609320  39.6425400
  62.1498590  37.0768600  39.0949290  61.6773440  37.1222600  40.5324780
  60.5794560  33.4774050  39.6471730  59.9503440  33.9459150  40.1957560
  60.6942390  32.6323270  40.0817920  69.1286130  19.5087240  55.4338190
  69.0151580  19.8281850  56.3289710  69.9455870  19.9099750  55.1375470
  68.0344280  27.5279710  25.7972930  67.9538330  26.6134320  25.5264640
  67.6208700  28.0246780  25.0912640  66.1662320  29.3058730  27.6782200
  65.3904420  28.8259170  27.9680770  66.8175250  28.6264380  27.5038360
  60.1828150  29.6178540  28.5557960  59.3513030  29.3627250  28.9554470
  60.7909130  29.6889310  29.2915880  70.1869750  33.7118920  26.4581330
  69.7251280  32.9406160  26.7868500  70.9995300  33.7384990  26.9633780
  60.1629410  33.6518630  28.7515980  60.4657450  32.7616370  28.5726200
  60.9073000  34.2088850  28.5238230  58.5920100  24.5780430  22.3400350
  57.7036800  24.9196400  22.2380230  58.8761290  24.3780750  21.4481180
  56.5553110  27.1786080  28.2240050  57.1269220  26.4108280  28.2243690
  56.5554650  27.4774840  27.3146660  66.4133060  35.9976930  26.0785320
  65.7944500  36.4534430  25.5079760  67.2684840  36.1528390  25.6775020
  65.6071310  31.9815920  27.6852360  65.5379590  31.0405860  27.5241490
  66.3691170  32.0717330  28.2574930  57.7977980  22.5870440  30.0108980
  57.6180820  21.6896190  30.2911740  57.3958060  23.1342310  30.6855930
  66.6376480  24.7886300  27.9121290  67.0141300  23.9158180  27.7994960
  66.5395990  25.1245000  27.0211730  60.7681490  23.1611930  23.3738730
  60.8748240  24.0615660  23.6807490  59.8573850  23.1129900  23.0833380
  70.4200600  22.2836740  24.8449630  71.2410220  21.7933310  24.8875110
  70.4534680  22.8734400  25.5981470  58.4164650  25.0830940  28.6191320
  59.0974760  25.3469310  29.2378720  58.1012700  24.2431810  28.9529330
  62.6089220  26.1298300  27.7063910  63.1167440  26.6279270  28.3468930
  63.1402460  25.3533500  27.5303270  60.8925320  20.7696860  31.9727330
  60.8943760  21.2869250  31.1673230  60.0629630  20.2927040  31.9497260
  67.2796410  30.8816170  23.4717230  66.6613680  31.3465620  22.9079950
  67.7919660  31.5743650  23.8886740  62.1428170  30.4092040  30.1500830
  61.8097550  31.0360960  30.7921900  62.3194850  30.9353920  29.3702500
  70.6562080  24.2237120  27.6177170  69.9517650  24.5122010  28.1980280
  71.0174240  25.0337230  27.2576730  60.5740650  22.4806820  29.9797780
  60.9157460  23.3248870  29.6851650  59.6356460  22.6290560  30.0963120
  61.3547270  32.3772840  31.9650010  61.9721270  33.0523920  31.6834460
  60.4940390  32.7860820  31.8737510  56.6479610  31.5672700  20.8456860
  56.2707590  32.0559800  20.1141760  56.9052680  32.2397980  21.4763390
  64.2568540  19.9689090  26.3042370  64.5643520  19.4135980  25.5877870
  63.3269240  20.1033550  26.1215360  69.8083600  35.6856380  28.5949830
  69.8210760  35.2818670  27.7272090  69.2558820  36.4603670  28.4911260
  71.1029020  32.4072600  23.6840000  70.9925350  31.4646930  23.8089420
  71.0997270  32.7688240  24.5702760  69.2069040  30.5886220  29.9232440
  69.6237830  30.3746330  29.0885900  69.9308860  30.8459010  30.4941060
  66.6449300  28.0337920  23.0402490  65.7178580  27.9675300  23.2690960
  66.7974120  28.9718050  22.9257730  66.6318380  24.3054920  20.0369650
  65.6922050  24.4668880  20.1222110  66.9501640  25.0240600  19.4905640
  70.6746590  29.5958220  23.5437740  70.0559010  29.2577770  22.8964040
  70.6571040  28.9517980  24.2516930  70.1173150  25.7742760  30.9603550
  69.7044330  26.5996470  31.2143540  69.3849100  25.1887800  30.7679910
  62.2505940  28.5602660  25.8222220  61.8462940  27.8479910  25.3268120
  62.3369060  28.2155900  26.7110260  62.7187640  32.2470220  27.9861430
  62.4215930  31.6415690  27.3069210  63.6687460  32.2847530  27.8750790
  60.9634560  25.3345870  29.6021260  61.5149150  25.4441210  28.8274510
  61.4778070  25.7083470  30.3176490  70.8073250  35.8202090  31.6484530
  70.3303810  36.6274280  31.4557140  70.1235040  35.1680420  31.8010740
  61.8106070  31.9851910  34.6369230  60.9134600  32.2091880  34.8842630
  61.8358940  32.1086850  33.6880630  68.8511290  28.8345030  20.5510490
  69.2904570  27.9967460  20.4048310  69.5639710  29.4674430  20.6374630
  60.6377290  28.8565230  33.2126600  60.4985060  29.7288030  33.5814000
  59.7558650  28.5138040  33.0674540  66.9606670  33.7741100  24.5191730
  67.4002580  34.5165430  24.1047120  66.8993560  34.0167670  25.4430690
  62.4357640  34.7986930  35.4211750  62.4073070  35.2029880  34.5540180
  62.2722610  33.8697290  35.2583350  58.9510570  27.4547640  23.3228870
  58.8308170  28.1809730  22.7110140  58.6411460  26.6850550  22.8456780
  56.5895940  30.6262780  29.1297510  56.6676360  30.7611550  28.1853230
  57.2037620  29.9178670  29.3225630  57.8343570  32.3262970  25.5403690
  57.4271650  32.4677560  24.6857290  58.7256580  32.0423130  25.3374900
  67.6522450  36.4754880  32.4470740  68.1667120  36.3862890  33.2493170
  66.8091530  36.8214580  32.7398650  69.6276850  36.7610220  21.8754740
  69.4677990  36.4713160  22.7736570  69.4623560  35.9850350  21.3399970
  62.1065230  36.5408750  23.6526360  61.9307710  35.6244290  23.4394160
  61.2520970  36.8996040  23.8924160  69.3302980  34.2697780  20.4352740
  68.6368140  34.2675070  19.7755020  70.0725840  33.8457100  20.0046910
  68.8952910  35.8960490  24.5101230  69.3509860  35.1149870  24.8239850
  69.2345430  36.6067310  25.0542410  56.6455460  31.6676950  31.6691970
  56.8086500  31.1982310  30.8511340  57.1107910  31.1600510  32.3340810
  61.4174230  20.7982710  26.7052540  60.9742380  21.5792250  26.3737060
  61.9759220  21.1212600  27.4123480  65.7044040  23.6651230  32.3087860
  65.2423410  23.8734250  33.1207800  65.3022150  22.8510580  32.0058530
  70.7048550  24.8860180  33.4384520  69.8542140  24.5865930  33.7593590
  70.5450340  25.1302190  32.5268340  67.7998260  26.3861930  35.5383310
  68.1251670  25.5525680  35.1985540  68.5878590  26.9090450  35.6861640
  64.5333050  20.4193410  21.5858370  63.9087230  20.4153280  22.3111680
  64.4463170  19.5524370  21.1894340  63.4550130  21.3430040  28.5642140
  63.7522460  22.2492870  28.4834160  64.0035690  20.8548820  27.9501710
  61.2088450  25.9216280  24.4333790  60.9829370  25.7053450  25.3380410
  60.4280980  26.3544740  24.0879760  68.4386210  25.9279650  23.0324440
  67.8395100  26.6515450  22.8488060  68.9865820  25.8656430  22.2500890
  63.6487660  26.8201860  35.0994060  63.5531260  25.8796590  34.9494460
  64.4919640  27.0416930  34.7042130  67.0451080  24.5643190  25.0627720
  67.4380650  24.8815390  24.2496410  67.4067930  23.6855070  25.1772240
  58.7798200  23.2315530  33.2527840  58.3861590  24.0790740  33.4600620
  58.0916600  22.5941900  33.4436480  65.3543250  23.3150500  36.3224580
  64.6641570  23.1222700  36.9570670  66.0975550  23.5985140  36.8548880
  56.0815250  21.1543990  27.2857920  55.7928300  21.7246850  27.9982900
  56.8261010  20.6748440  27.6489150  56.2685480  25.0964110  18.4960640
  56.1860150  26.0394870  18.6375630  55.9168540  24.9539020  17.6172990
  67.6306220  27.1548940  29.1578500  66.8987340  27.6635750  29.5068600
  67.2330560  26.3378920  28.8567280  64.0683610  23.8303140  27.5630990
  64.0719670  23.3893090  26.7135530  64.9634730  24.1520470  27.6702810
  59.9185990  23.7129630  26.5225200  59.5786040  24.1904860  27.2792250
  59.1563310  23.2594750  26.1626300  64.1303760  24.8315220  20.5537750
  64.2516580  24.7901700  21.5023570  63.7452270  25.6939370  20.3984480
  68.0932130  22.6082620  28.5701440  68.1104870  23.0591270  29.4143290
  67.8447710  21.7088260  28.7834880  63.1425260  27.1416360  19.9521050
  62.5742160  26.6934610  19.3256960  63.8514260  27.5009140  19.4186200
  71.5202880  20.0214800  34.4087820  71.8448650  19.2904460  34.9345800
  71.5559390  19.7028440  33.5068810  58.2194440  31.0428380  33.8287780
  57.8349230  30.4022050  34.4270740  58.5306630  31.7464500  34.3982510
  64.3691580  27.8904920  29.3096400  64.7361710  27.4163490  30.0557740
  64.1796640  28.7646490  29.6504740  57.2332070  22.6348610  25.4389870
  56.9478990  22.2704280  26.2768490  57.1710930  21.9029070  24.8253010
  62.1590950  26.9313560  31.6280610  61.8548020  27.8105540  31.8530970
  63.1137410  26.9913350  31.6638050  60.6872740  31.1374550  22.2247460
  59.9135000  30.5972170  22.0646180  61.4167370  30.6181160  21.8865220
  71.4460720  30.1339910  28.0173850  72.1659840  30.6295200  27.6269960
  71.2442540  29.4557800  27.3727720  66.9070660  21.5277870  22.1603240
  66.0935270  21.0291040  22.0848550  66.7132610  22.3676120  21.7439590
  66.8279520  30.2048970  33.9042850  66.7616830  29.2844640  33.6500440
  66.1984660  30.3024410  34.6187490  69.6219050  25.8997520  20.4565400
  70.5098670  26.2114750  20.2816740  69.5924140  25.0269770  20.0645980
  60.7310140  30.8054930  25.8626270  61.2488810  30.0023190  25.8083160
  60.2794160  30.7434070  26.7043100  65.6179640  32.0721210  21.1353570
  65.9595340  32.8163440  20.6396890  64.7892350  32.3852330  21.4978400
  58.2154680  27.7716300  32.7751970  57.8569620  28.4370150  33.3625310
  57.9209240  26.9399850  33.1464590  61.4167800  28.2300540  35.6591520
  61.1167940  28.3757720  34.7619340  62.1879040  27.6705830  35.5664910
  66.7596250  33.0269540  33.6546650  66.7740790  32.0950500  33.4365560
  66.0521350  33.1129300  34.2936420  68.5007050  31.3937050  26.4999080
  68.8530870  30.7965180  25.8400450  67.6169380  31.0681280  26.6707330
  64.5870330  32.1534740  23.9069490  65.2741460  32.7003950  24.2877080
  63.8002750  32.6975470  23.9419100  56.7262730  27.7707560  19.3986570
  57.5957580  28.0532360  19.6822490  56.2353050  28.5843430  19.2835380
  63.8897540  29.1580770  23.5194850  64.3460320  29.9686020  23.7455040
  63.5385750  28.8403910  24.3513340  66.1930150  34.6687110  30.7487150
  66.8372370  34.8746490  31.4260570  66.5559590  33.9075510  30.2958000
  59.7909320  19.5018420  23.9917370  59.6623950  19.4936320  24.9402290
  58.9671340  19.8401510  23.6408380  67.4662230  32.6719460  29.4664600
  68.1084460  31.9712620  29.5796770  67.9911580  33.4517900  29.2861490
  71.3117950  32.9568080  19.1903740  71.0855530  32.2398520  19.7828380
  70.9214150  32.7080520  18.3525490  69.2399850  33.4714360  32.6700660
  69.5756090  34.0581050  33.3478580  68.3200190  33.3407070  32.8998450
  57.0933980  36.9834940  19.9648200  57.4531620  37.5824280  19.3105470
  56.9526320  37.5294830  20.7383230  56.7903250  21.2609540  33.4524070
  56.0761770  21.4606460  34.0576680  57.2098290  20.4849110  33.8238870
  70.8934200  30.8740020  20.8517900  70.6055900  31.3352710  21.6395780
  71.6886370  30.4137790  21.1202120  57.0775840  35.2489800  34.4390600
  57.1866960  34.3084540  34.2985990  56.4256400  35.5144550  33.7904330
  65.0688430  33.5205690  35.8388720  64.7485300  32.8014930  36.3834410
  64.3946790  34.1960760  35.9124780  63.1102600  34.3666140  20.7821870
  63.1012700  35.0995830  20.1666380  62.1900960  34.1197720  20.8748830
  58.7109240  29.5881030  21.5268630  58.1037190  30.3279930  21.5363930
  59.1858590  29.6780390  20.7006830  68.2842030  23.7531850  31.2025520
  68.6522850  22.9327060  31.5305090  67.4240230  23.8133740  31.6181170
  71.6504060  22.7088790  22.0113080  71.0217220  22.8134460  21.2971310
  71.1555980  22.9285570  22.8006960  66.0962200  34.4294380  19.4447060
  66.1974180  34.2258370  18.5149040  65.1963940  34.1752660  19.6494840
  63.6188090  24.9874740  23.4270960  62.9104240  25.4561080  23.8684570
  63.9032570  24.3296750  24.0616150  65.2444020  26.4071440  31.4263490
  65.7429270  26.8817260  32.0915340  65.3866970  25.4834960  31.6333520
  67.6503520  21.7125400  24.8666750  67.5271300  21.7311530  23.9176260
  68.5988080  21.7604340  24.9865150  64.7380310  36.9480700  24.1394730
  64.9921810  36.9102090  23.2174100  63.7892790  36.8214030  24.1322980
  61.8223110  23.2959820  20.8021670  62.6713640  23.7329970  20.7361860
  61.4554380  23.6080080  21.6293730  70.7432890  27.8672580  25.7153240
  69.8023030  27.8822810  25.8900930  71.0576960  27.0808540  26.1613540
  60.7214530  29.5492180  19.2757200  61.4877800  29.4373540  19.8382630
  60.7989220  28.8530150  18.6233970  59.4161290  26.9817250  19.9590090
  59.4964880  26.0344760  20.0707490  60.3081040  27.3124130  20.0650750
  60.2176000  37.1312640  27.0624630  60.9538480  36.5828100  27.3333200
  60.6016920  37.9968650  26.9230620  57.1021480  33.1986210  22.9366140
  56.1761260  33.4407350  22.9271550  57.5677910  34.0260470  22.8150890
  59.2234280  36.3158710  36.2510210  60.0247010  36.6370760  36.6645610
  58.7086100  35.9554290  36.9730120  63.3278310  36.3042950  18.8850200
  64.1206920  36.5931780  18.4331990  62.8082660  35.8735120  18.2062680
  68.0598910  32.4238580  36.1985620  67.4537070  32.4470180  35.4581370
  67.7553020  31.6921620  36.7352870  69.4899280  36.1518870  34.8095030
  70.4421030  36.0676890  34.7595270  69.3427500  36.8160580  35.4828820
  72.3808480  35.5313080  20.3086940  72.0949990  35.1178220  19.4941120
  72.1828030  36.4600790  20.1887460  56.9432090  28.8032170  35.1946260
  57.4471110  28.2239450  35.7662490  56.2039510  29.0872400  35.7322630
  63.8455710  31.5246360  18.7492550  63.7406350  30.9098710  19.4753930
  63.6779930  31.0012250  17.9655560  63.9970030  30.2103160  34.7281780
  63.2315700  30.7788160  34.6436450  64.1785990  29.9179370  33.8350010
  67.0858440  30.5866390  19.3534540  66.5368540  31.0335690  19.9977280
  67.7077700  30.0815640  19.8772210  71.1393380  31.9408490  35.2856800
  71.8802850  32.2784250  34.7824260  70.3766060  32.1100550  34.7326570
  58.9755170  26.9461760  36.0896330  59.0160510  26.6475630  36.9981560
  59.8300670  27.3469370  35.9303850  62.7533560  29.5457310  21.2499840
  63.1749980  29.3797180  22.0931230  62.8784400  28.7357540  20.7554980
  60.9160980  25.5253860  34.0570820  60.3857440  25.0344810  33.4294160
  61.5849050  25.9538060  33.5228750  65.2661200  28.5694920  18.4976940
  65.7866860  27.8543940  18.1318090  65.9129600  29.2080790  18.7977450
  69.8139040  29.9923320  33.8212010  70.2280060  30.1468400  34.6702430
  68.8790040  30.1178540  33.9837790  70.2861210  27.3319480  35.8251160
  70.8681980  26.5771800  35.7371640  70.4622980  27.8626920  35.0482640
  61.4033280  22.4916230  34.1368110  61.3090150  21.8736980  33.4118980
  60.8230670  23.2182520  33.9098020  64.1694720  21.0489470  31.1695500
  63.7212020  21.0713730  30.3241050  63.5359920  20.6508490  31.7665800
  64.5754270  29.9443800  31.7907940  64.9942380  30.7876530  31.6184180
  63.6562900  30.0815840  31.5614720  66.9118170  27.6759980  33.1745780
  67.0314380  27.0801120  33.9140620  67.7712170  27.7129670  32.7547080
  69.2506070  28.2297170  31.7508290  68.7241290  28.7539790  31.1473430
  69.5937410  28.8624560  32.3818020  61.6492460  25.6190540  18.1958000
  61.4481520  24.7557900  18.5571340  61.4784510  25.5323900  17.2579600
  62.4261690  36.2496810  32.9065670  61.8882780  36.9742870  32.5874370
  62.6795650  35.7727150  32.1163010  63.6786940  24.2181330  34.4321600
  64.2686630  23.9097180  35.1199420  62.8607180  23.7461080  34.5881500
  68.4980370  23.8347140  34.6654620  67.8095890  23.1728680  34.6004610
  69.2186390  23.3885410  35.1103080  69.1280770  20.4298770  20.7244880
  69.4083060  19.5866670  21.0804300  68.3546500  20.6621880  21.2383630
  60.4475260  22.7191160  18.1835880  60.7501160  22.7258590  17.2755030
  61.1869850  22.3689020  18.6803540  65.2823900  37.4848020  33.1652320
  65.2082600  38.3883160  33.4724690  64.3802740  37.1659920  33.1374390
  63.6660190  21.6625780  19.1692080  63.3182190  20.9849770  18.5894530
  63.8672960  21.2015290  19.9835470  65.8309230  36.6506530  20.7878680
  66.7260020  36.9891500  20.8097440  65.8626860  35.9285940  20.1602960
  59.4705390  32.0233580  19.0165680  59.9080260  32.5663250  19.6723260
  59.9553120  31.1980530  19.0262020  56.6851190  34.8122610  26.4685940
  57.0154200  33.9443670  26.2364580  57.1142190  35.0181130  27.2990900
  61.2813110  33.1431620  24.1287910  60.9808650  33.0196590  25.0291820
  61.1750600  32.2840210  23.7203640  57.1741400  35.6793200  29.2067570
  56.7372390  35.8594000  30.0391720  57.7419080  36.4367820  29.0649290
  57.0065830  28.1913430  25.5656450  56.3514670  27.9225070  24.9216150
  57.8443780  28.0817910  25.1158430  71.4955220  31.9062180  31.5921040
  70.6815060  32.3359340  31.8546830  71.9029420  32.5180590  30.9790090
  69.9556270  22.9854720  19.7874940  70.3741150  22.7985700  18.9471600
  69.6492330  22.1333770  20.0977870  58.0441760  28.5766000  30.1059790
  58.4114800  28.4893400  30.9855810  57.4752580  27.8132550  30.0066650
  57.5957760  25.4875090  34.0118210  56.7013810  25.4541850  34.3511920
  58.1355310  25.6861880  34.7769460  71.2833690  22.2706810  35.8969960
  72.1603870  22.2790210  36.2803960  71.2954530  21.5337650  35.2862310
  56.2203910  25.4012360  21.5081780  55.3167990  25.6642560  21.3333440
  56.7044530  25.6723530  20.7281740  58.7631120  24.4577900  19.4176160
  59.4722820  24.0361120  18.9323440  58.0471060  24.5253130  18.7859510
  58.4105280  20.5117230  18.4578810  59.1333410  21.0526170  18.7760030
  58.6829800  20.2380650  17.5820350  58.0997470  19.7623420  28.3601430
  58.7473660  19.2120800  27.9196590  58.5199310  20.0166570  29.1817240
  71.5531270  36.6580780  25.1189310  72.1490340  36.3365350  24.4423730
  71.8109420  36.1852600  25.9102580  57.8529470  19.9179090  31.1026750
  57.5044290  20.3742910  31.8684930  57.5217170  19.0236220  31.1849180
  59.4593840  33.0898690  35.2679940  59.4163470  32.7191600  36.1494400
  59.5904850  34.0276260  35.4081760  63.1599870  34.6458280  30.8689660
  62.9191230  34.9132840  29.9820180  64.1002510  34.8164010  30.9240520
  65.3654290  21.1090970  34.6246170  65.3043180  21.7012800  35.3741580
  66.3054670  21.0016930  34.4796430  68.0028850  20.7661030  34.2638460
  68.6169260  21.0840320  33.6019540  68.5478410  20.2809620  34.8834320
  58.5250110  19.4455290  34.3777520  59.0733100  19.2643340  33.6143630
  58.5905420  18.6549400  34.9133830  59.2981870  36.0360940  32.3877720
  58.7042190  35.9045640  33.1267760  59.2905710  35.1999080  31.9219820
  68.7436890  19.3293170  30.5907750  67.8696730  19.6628280  30.3880680
  68.6347640  18.8566350  31.4159620  69.6508870  21.5364040  31.9749470
  69.3222230  20.7215800  31.5951200  70.5991170  21.4933850  31.8515160
  72.1043480  37.3076080  28.9487040  71.6446450  38.0591890  28.5745060
  71.4755940  36.5882550  28.8901840  58.9294100  33.4019320  31.3385760
  58.2028160  32.7824610  31.2711710  58.9903250  33.7959930  30.4683840
  62.5339200  35.6164320  28.1235170  63.0504220  35.0051680  27.5983430
  63.1836580  36.1193100  28.6146180  65.2734700  36.5072810  28.9504150
  65.5612510  36.2527110  28.0737160  65.7857920  35.9550170  29.5409720
  66.4911710  20.2463010  29.5300660  65.7083500  20.7208510  29.8097420
  66.1974640  19.3417840  29.4213840  71.0432780  20.9486110  27.5749750
  71.4840870  20.8931210  26.7271350  70.7740370  21.8644120  27.6459930
  57.2124100  36.7193710  24.5482520  57.0446140  36.0864390  25.2464410
  56.3458610  36.9253110  24.1976710  57.8352120  20.5510490  22.0514380
  58.5931480  20.6639370  21.4778410  57.3729290  21.3879690  22.0057810
  64.3765930  22.6649760  25.0416690  63.5640440  22.2906650  24.7012570
  64.8807570  21.9094840  25.3437880  68.8790910  19.3292210  26.2799760
  69.4820280  19.9012420  26.7548280  68.1383900  19.8931650  26.0573660
  72.0225510  19.7313770  21.5540040  72.2176140  20.6297220  21.8207470
  71.2355380  19.5000850  22.0472990  58.8186800  35.4126940  21.9932660
  58.2934420  35.7934970  21.2894620  58.7431380  36.0377710  22.7142370
  60.2077270  21.0774540  20.5916350  60.7370030  20.2904340  20.4624300
  60.8405590  21.7565730  20.8251880  62.4015110  20.8149680  23.6461740
  61.7717850  20.1136990  23.8131870  61.8620250  21.5753810  23.4294900
  65.3407060  37.4288910  36.3172350  66.2674370  37.1933180  36.3608310
  65.3257490  38.2560910  35.8358380  62.5270670  20.0933660  36.0814230
  62.2454940  20.5967260  35.3175050  62.9090370  19.2955410  35.7156360
  61.4179770  37.3609320  20.8681910  62.1498590  37.0768600  20.3205800
  61.6773440  37.1222600  21.7581290  60.5794560  33.4774050  20.8728240
  59.9503440  33.9459150  21.4214070  60.6942390  32.6323270  21.3074430
  69.1286130  19.5087240  36.6594700  69.0151580  19.8281850  37.5546220
  69.9455870  19.9099750  36.3631980  68.0344280  27.5279710   7.0229440
  67.9538330  26.6134320   6.7521150  67.6208700  28.0246780   6.3169150
  66.1662320  29.3058730   8.9038710  65.3904420  28.8259170   9.1937280
  66.8175250  28.6264380   8.7294870  60.1828150  29.6178540   9.7814470
  59.3513030  29.3627250  10.1810980  60.7909130  29.6889310  10.5172390
  70.1869750  33.7118920   7.6837840  69.7251280  32.9406160   8.0125010
  70.9995300  33.7384990   8.1890290  60.1629410  33.6518630   9.9772490
  60.4657450  32.7616370   9.7982710  60.9073000  34.2088850   9.7494740
  58.5920100  24.5780430   3.5656860  57.7036800  24.9196400   3.4636740
  58.8761290  24.3780750   2.6737690  56.5553110  27.1786080   9.4496560
  57.1269220  26.4108280   9.4500200  56.5554650  27.4774840   8.5403170
  66.4133060  35.9976930   7.3041830  65.7944500  36.4534430   6.7336270
  67.2684840  36.1528390   6.9031530  65.6071310  31.9815920   8.9108870
  65.5379590  31.0405860   8.7498000  66.3691170  32.0717330   9.4831440
  57.7977980  22.5870440  11.2365490  57.6180820  21.6896190  11.5168250
  57.3958060  23.1342310  11.9112440  66.6376480  24.7886300   9.1377800
  67.0141300  23.9158180   9.0251470  66.5395990  25.1245000   8.2468240
  60.7681490  23.1611930   4.5995240  60.8748240  24.0615660   4.9064000
  59.8573850  23.1129900   4.3089890  70.4200600  22.2836740   6.0706140
  71.2410220  21.7933310   6.1131620  70.4534680  22.8734400   6.8237980
  58.4164650  25.0830940   9.8447830  59.0974760  25.3469310  10.4635230
  58.1012700  24.2431810  10.1785840  62.6089220  26.1298300   8.9320420
  63.1167440  26.6279270   9.5725440  63.1402460  25.3533500   8.7559780
  60.8925320  20.7696860  13.1983840  60.8943760  21.2869250  12.3929740
  60.0629630  20.2927040  13.1753770  67.2796410  30.8816170   4.6973740
  66.6613680  31.3465620   4.1336460  67.7919660  31.5743650   5.1143250
  62.1428170  30.4092040  11.3757340  61.8097550  31.0360960  12.0178410
  62.3194850  30.9353920  10.5959010  70.6562080  24.2237120   8.8433680
  69.9517650  24.5122010   9.4236790  71.0174240  25.0337230   8.4833240
  60.5740650  22.4806820  11.2054290  60.9157460  23.3248870  10.9108160
  59.6356460  22.6290560  11.3219630  61.3547270  32.3772840  13.1906520
  61.9721270  33.0523920  12.9090970  60.4940390  32.7860820  13.0994020
  56.6479610  31.5672700   2.0713370  56.2707590  32.0559800   1.3398270
  56.9052680  32.2397980   2.7019900  64.2568540  19.9689090   7.5298880
  64.5643520  19.4135980   6.8134380  63.3269240  20.1033550   7.3471870
  69.8083600  35.6856380   9.8206340  69.8210760  35.2818670   8.9528600
  69.2558820  36.4603670   9.7167770  71.1029020  32.4072600   4.9096510
  70.9925350  31.4646930   5.0345930  71.0997270  32.7688240   5.7959270
  69.2069040  30.5886220  11.1488950  69.6237830  30.3746330  10.3142410
  69.9308860  30.8459010  11.7197570  66.6449300  28.0337920   4.2659000
  65.7178580  27.9675300   4.4947470  66.7974120  28.9718050   4.1514240
  70.6746590  29.5958220   4.7694250  70.0559010  29.2577770   4.1220550
  70.6571040  28.9517980   5.4773440  70.1173150  25.7742760  12.1860060
  69.7044330  26.5996470  12.4400050  69.3849100  25.1887800  11.9936420
  62.2505940  28.5602660   7.0478730  61.8462940  27.8479910   6.5524630
  62.3369060  28.2155900   7.9366770  62.7187640  32.2470220   9.2117940
  62.4215930  31.6415690   8.5325720  63.6687460  32.2847530   9.1007300
  60.9634560  25.3345870  10.8277770  61.5149150  25.4441210  10.0531020
  61.4778070  25.7083470  11.5433000  70.8073250  35.8202090  12.8741040
  70.3303810  36.6274280  12.6813650  70.1235040  35.1680420  13.0267250
  61.8106070  31.9851910  15.8625740  60.9134600  32.2091880  16.1099140
  61.8358940  32.1086850  14.9137140  68.8511290  28.8345030   1.7767000
  69.2904570  27.9967460   1.6304820  69.5639710  29.4674430   1.8631140
  60.6377290  28.8565230  14.4383110  60.4985060  29.7288030  14.8070510
  59.7558650  28.5138040  14.2931050  66.9606670  33.7741100   5.7448240
  67.4002580  34.5165430   5.3303630  66.8993560  34.0167670   6.6687200
  62.4357640  34.7986930  16.6468260  62.4073070  35.2029880  15.7796690
  62.2722610  33.8697290  16.4839860  58.9510570  27.4547640   4.5485380
  58.8308170  28.1809730   3.9366650  58.6411460  26.6850550   4.0713290
  56.5895940  30.6262780  10.3554020  56.6676360  30.7611550   9.4109740
  57.2037620  29.9178670  10.5482140  57.8343570  32.3262970   6.7660200
  57.4271650  32.4677560   5.9113800  58.7256580  32.0423130   6.5631410
  67.6522450  36.4754880  13.6727250  68.1667120  36.3862890  14.4749680
  66.8091530  36.8214580  13.9655160  69.6276850  36.7610220   3.1011250
  69.4677990  36.4713160   3.9993080  69.4623560  35.9850350   2.5656480
  62.1065230  36.5408750   4.8782870  61.9307710  35.6244290   4.6650670
  61.2520970  36.8996040   5.1180670  68.8952910  35.8960490   5.7357740
  69.3509860  35.1149870   6.0496360  69.2345430  36.6067310   6.2798920
  56.6455460  31.6676950  12.8948480  56.8086500  31.1982310  12.0767850
  57.1107910  31.1600510  13.5597320  61.4174230  20.7982710   7.9309050
  60.9742380  21.5792250   7.5993570  61.9759220  21.1212600   8.6379990
  65.7044040  23.6651230  13.5344370  65.2423410  23.8734250  14.3464310
  65.3022150  22.8510580  13.2315040  70.7048550  24.8860180  14.6641030
  69.8542140  24.5865930  14.9850100  70.5450340  25.1302190  13.7524850
  67.7998260  26.3861930  16.7639820  68.1251670  25.5525680  16.4242050
  68.5878590  26.9090450  16.9118150  64.5333050  20.4193410   2.8114880
  63.9087230  20.4153280   3.5368190  64.4463170  19.5524370   2.4150850
  63.4550130  21.3430040   9.7898650  63.7522460  22.2492870   9.7090670
  64.0035690  20.8548820   9.1758220  61.2088450  25.9216280   5.6590300
  60.9829370  25.7053450   6.5636920  60.4280980  26.3544740   5.3136270
  68.4386210  25.9279650   4.2580950  67.8395100  26.6515450   4.0744570
  68.9865820  25.8656430   3.4757400  63.6487660  26.8201860  16.3250570
  63.5531260  25.8796590  16.1750970  64.4919640  27.0416930  15.9298640
  67.0451080  24.5643190   6.2884230  67.4380650  24.8815390   5.4752920
  67.4067930  23.6855070   6.4028750  58.7798200  23.2315530  14.4784350
  58.3861590  24.0790740  14.6857130  58.0916600  22.5941900  14.6692990
  65.3543250  23.3150500  17.5481090  64.6641570  23.1222700  18.1827180
  66.0975550  23.5985140  18.0805390  56.0815250  21.1543990   8.5114430
  55.7928300  21.7246850   9.2239410  56.8261010  20.6748440   8.8745660
  67.6306220  27.1548940  10.3835010  66.8987340  27.6635750  10.7325110
  67.2330560  26.3378920  10.0823790  64.0683610  23.8303140   8.7887500
  64.0719670  23.3893090   7.9392040  64.9634730  24.1520470   8.8959320
  59.9185990  23.7129630   7.7481710  59.5786040  24.1904860   8.5048760
  59.1563310  23.2594750   7.3882810  64.1303760  24.8315220   1.7794260
  64.2516580  24.7901700   2.7280080  63.7452270  25.6939370   1.6240990
  68.0932130  22.6082620   9.7957950  68.1104870  23.0591270  10.6399800
  67.8447710  21.7088260  10.0091390  71.5202880  20.0214800  15.6344330
  71.8448650  19.2904460  16.1602310  71.5559390  19.7028440  14.7325320
  58.2194440  31.0428380  15.0544290  57.8349230  30.4022050  15.6527250
  58.5306630  31.7464500  15.6239020  64.3691580  27.8904920  10.5352910
  64.7361710  27.4163490  11.2814250  64.1796640  28.7646490  10.8761250
  57.2332070  22.6348610   6.6646380  56.9478990  22.2704280   7.5025000
  57.1710930  21.9029070   6.0509520  62.1590950  26.9313560  12.8537120
  61.8548020  27.8105540  13.0787480  63.1137410  26.9913350  12.8894560
  60.6872740  31.1374550   3.4503970  59.9135000  30.5972170   3.2902690
  61.4167370  30.6181160   3.1121730  71.4460720  30.1339910   9.2430360
  72.1659840  30.6295200   8.8526470  71.2442540  29.4557800   8.5984230
  66.9070660  21.5277870   3.3859750  66.0935270  21.0291040   3.3105060
  66.7132610  22.3676120   2.9696100  66.8279520  30.2048970  15.1299360
  66.7616830  29.2844640  14.8756950  66.1984660  30.3024410  15.8444000
  60.7310140  30.8054930   7.0882780  61.2488810  30.0023190   7.0339670
  60.2794160  30.7434070   7.9299610  65.6179640  32.0721210   2.3610080
  65.9595340  32.8163440   1.8653400  64.7892350  32.3852330   2.7234910
  58.2154680  27.7716300  14.0008480  57.8569620  28.4370150  14.5881820
  57.9209240  26.9399850  14.3721100  61.4167800  28.2300540  16.8848030
  61.1167940  28.3757720  15.9875850  62.1879040  27.6705830  16.7921420
  66.7596250  33.0269540  14.8803160  66.7740790  32.0950500  14.6622070
  66.0521350  33.1129300  15.5192930  68.5007050  31.3937050   7.7255590
  68.8530870  30.7965180   7.0656960  67.6169380  31.0681280   7.8963840
  64.5870330  32.1534740   5.1326000  65.2741460  32.7003950   5.5133590
  63.8002750  32.6975470   5.1675610  63.8897540  29.1580770   4.7451360
  64.3460320  29.9686020   4.9711550  63.5385750  28.8403910   5.5769850
  66.1930150  34.6687110  11.9743660  66.8372370  34.8746490  12.6517080
  66.5559590  33.9075510  11.5214510  59.7909320  19.5018420   5.2173880
  59.6623950  19.4936320   6.1658800  58.9671340  19.8401510   4.8664890
  67.4662230  32.6719460  10.6921110  68.1084460  31.9712620  10.8053280
  67.9911580  33.4517900  10.5118000  69.2399850  33.4714360  13.8957170
  69.5756090  34.0581050  14.5735090  68.3200190  33.3407070  14.1254960
  56.7903250  21.2609540  14.6780580  56.0761770  21.4606460  15.2833190
  57.2098290  20.4849110  15.0495380  70.8934200  30.8740020   2.0774410
  70.6055900  31.3352710   2.8652290  71.6886370  30.4137790   2.3458630
  57.0775840  35.2489800  15.6647110  57.1866960  34.3084540  15.5242500
  56.4256400  35.5144550  15.0160840  65.0688430  33.5205690  17.0645230
  64.7485300  32.8014930  17.6090920  64.3946790  34.1960760  17.1381290
  63.1102600  34.3666140   2.0078380  63.1012700  35.0995830   1.3922890
  62.1900960  34.1197720   2.1005340  58.7109240  29.5881030   2.7525140
  58.1037190  30.3279930   2.7620440  59.1858590  29.6780390   1.9263340
  68.2842030  23.7531850  12.4282030  68.6522850  22.9327060  12.7561600
  67.4240230  23.8133740  12.8437680  71.6504060  22.7088790   3.2369590
  71.0217220  22.8134460   2.5227820  71.1555980  22.9285570   4.0263470
  63.6188090  24.9874740   4.6527470  62.9104240  25.4561080   5.0941080
  63.9032570  24.3296750   5.2872660  65.2444020  26.4071440  12.6520000
  65.7429270  26.8817260  13.3171850  65.3866970  25.4834960  12.8590030
  67.6503520  21.7125400   6.0923260  67.5271300  21.7311530   5.1432770
  68.5988080  21.7604340   6.2121660  64.7380310  36.9480700   5.3651240
  64.9921810  36.9102090   4.4430610  63.7892790  36.8214030   5.3579490
  61.8223110  23.2959820   2.0278180  62.6713640  23.7329970   1.9618370
  61.4554380  23.6080080   2.8550240  70.7432890  27.8672580   6.9409750
  69.8023030  27.8822810   7.1157440  71.0576960  27.0808540   7.3870050
  60.2176000  37.1312640   8.2881140  60.9538480  36.5828100   8.5589710
  60.6016920  37.9968650   8.1487130  57.1021480  33.1986210   4.1622650
  56.1761260  33.4407350   4.1528060  57.5677910  34.0260470   4.0407400
  59.2234280  36.3158710  17.4766720  60.0247010  36.6370760  17.8902120
  58.7086100  35.9554290  18.1986630  68.0598910  32.4238580  17.4242130
  67.4537070  32.4470180  16.6837880  67.7553020  31.6921620  17.9609380
  69.4899280  36.1518870  16.0351540  70.4421030  36.0676890  15.9851780
  69.3427500  36.8160580  16.7085330  56.9432090  28.8032170  16.4202770
  57.4471110  28.2239450  16.9919000  56.2039510  29.0872400  16.9579140
  63.9970030  30.2103160  15.9538290  63.2315700  30.7788160  15.8692960
  64.1785990  29.9179370  15.0606520  71.1393380  31.9408490  16.5113310
  71.8802850  32.2784250  16.0080770  70.3766060  32.1100550  15.9583080
  58.9755170  26.9461760  17.3152840  59.0160510  26.6475630  18.2238070
  59.8300670  27.3469370  17.1560360  62.7533560  29.5457310   2.4756350
  63.1749980  29.3797180   3.3187740  62.8784400  28.7357540   1.9811490
  60.9160980  25.5253860  15.2827330  60.3857440  25.0344810  14.6550670
  61.5849050  25.9538060  14.7485260  69.8139040  29.9923320  15.0468520
  70.2280060  30.1468400  15.8958940  68.8790040  30.1178540  15.2094300
  70.2861210  27.3319480  17.0507670  70.8681980  26.5771800  16.9628150
  70.4622980  27.8626920  16.2739150  61.4033280  22.4916230  15.3624620
  61.3090150  21.8736980  14.6375490  60.8230670  23.2182520  15.1354530
  64.1694720  21.0489470  12.3952010  63.7212020  21.0713730  11.5497560
  63.5359920  20.6508490  12.9922310  64.5754270  29.9443800  13.0164450
  64.9942380  30.7876530  12.8440690  63.6562900  30.0815840  12.7871230
  66.9118170  27.6759980  14.4002290  67.0314380  27.0801120  15.1397130
  67.7712170  27.7129670  13.9803590  69.2506070  28.2297170  12.9764800
  68.7241290  28.7539790  12.3729940  69.5937410  28.8624560  13.6074530
  62.4261690  36.2496810  14.1322180  61.8882780  36.9742870  13.8130880
  62.6795650  35.7727150  13.3419520  63.6786940  24.2181330  15.6578110
  64.2686630  23.9097180  16.3455930  62.8607180  23.7461080  15.8138010
  68.4980370  23.8347140  15.8911130  67.8095890  23.1728680  15.8261120
  69.2186390  23.3885410  16.3359590  69.1280770  20.4298770   1.9501390
  69.4083060  19.5866670   2.3060810  68.3546500  20.6621880   2.4640140
  65.2823900  37.4848020  14.3908830  65.2082600  38.3883160  14.6981200
  64.3802740  37.1659920  14.3630900  65.8309230  36.6506530   2.0135190
  66.7260020  36.9891500   2.0353950  65.8626860  35.9285940   1.3859470
  56.6851190  34.8122610   7.6942450  57.0154200  33.9443670   7.4621090
  57.1142190  35.0181130   8.5247410  61.2813110  33.1431620   5.3544420
  60.9808650  33.0196590   6.2548330  61.1750600  32.2840210   4.9460150
  57.1741400  35.6793200  10.4324080  56.7372390  35.8594000  11.2648230
  57.7419080  36.4367820  10.2905800  57.0065830  28.1913430   6.7912960
  56.3514670  27.9225070   6.1472660  57.8443780  28.0817910   6.3414940
  71.4955220  31.9062180  12.8177550  70.6815060  32.3359340  13.0803340
  71.9029420  32.5180590  12.2046600  58.0441760  28.5766000  11.3316300
  58.4114800  28.4893400  12.2112320  57.4752580  27.8132550  11.2323160
  57.5957760  25.4875090  15.2374720  56.7013810  25.4541850  15.5768430
  58.1355310  25.6861880  16.0025970  71.2833690  22.2706810  17.1226470
  72.1603870  22.2790210  17.5060470  71.2954530  21.5337650  16.5118820
  56.2203910  25.4012360   2.7338290  55.3167990  25.6642560   2.5589950
  56.7044530  25.6723530   1.9538250  58.0997470  19.7623420   9.5857940
  58.7473660  19.2120800   9.1453100  58.5199310  20.0166570  10.4073750
  71.5531270  36.6580780   6.3445820  72.1490340  36.3365350   5.6680240
  71.8109420  36.1852600   7.1359090  57.8529470  19.9179090  12.3283260
  57.5044290  20.3742910  13.0941440  57.5217170  19.0236220  12.4105690
  59.4593840  33.0898690  16.4936450  59.4163470  32.7191600  17.3750910
  59.5904850  34.0276260  16.6338270  63.1599870  34.6458280  12.0946170
  62.9191230  34.9132840  11.2076690  64.1002510  34.8164010  12.1497030
  65.3654290  21.1090970  15.8502680  65.3043180  21.7012800  16.5998090
  66.3054670  21.0016930  15.7052940  68.0028850  20.7661030  15.4894970
  68.6169260  21.0840320  14.8276050  68.5478410  20.2809620  16.1090830
  58.5250110  19.4455290  15.6034030  59.0733100  19.2643340  14.8400140
  58.5905420  18.6549400  16.1390340  59.2981870  36.0360940  13.6134230
  58.7042190  35.9045640  14.3524270  59.2905710  35.1999080  13.1476330
  68.7436890  19.3293170  11.8164260  67.8696730  19.6628280  11.6137190
  68.6347640  18.8566350  12.6416130  69.6508870  21.5364040  13.2005980
  69.3222230  20.7215800  12.8207710  70.5991170  21.4933850  13.0771670
  72.1043480  37.3076080  10.1743550  71.6446450  38.0591890   9.8001570
  71.4755940  36.5882550  10.1158350  58.9294100  33.4019320  12.5642270
  58.2028160  32.7824610  12.4968220  58.9903250  33.7959930  11.6940350
  62.5339200  35.6164320   9.3491680  63.0504220  35.0051680   8.8239940
  63.1836580  36.1193100   9.8402690  65.2734700  36.5072810  10.1760660
  65.5612510  36.2527110   9.2993670  65.7857920  35.9550170  10.7666230
  66.4911710  20.2463010  10.7557170  65.7083500  20.7208510  11.0353930
  66.1974640  19.3417840  10.6470350  71.0432780  20.9486110   8.8006260
  71.4840870  20.8931210   7.9527860  70.7740370  21.8644120   8.8716440
  57.2124100  36.7193710   5.7739030  57.0446140  36.0864390   6.4720920
  56.3458610  36.9253110   5.4233220  57.8352120  20.5510490   3.2770890
  58.5931480  20.6639370   2.7034920  57.3729290  21.3879690   3.2314320
  64.3765930  22.6649760   6.2673200  63.5640440  22.2906650   5.9269080
  64.8807570  21.9094840   6.5694390  68.8790910  19.3292210   7.5056270
  69.4820280  19.9012420   7.9804790  68.1383900  19.8931650   7.2830170
  72.0225510  19.7313770   2.7796550  72.2176140  20.6297220   3.0463980
  71.2355380  19.5000850   3.2729500  58.8186800  35.4126940   3.2189170
  58.2934420  35.7934970   2.5151130  58.7431380  36.0377710   3.9398880
  60.2077270  21.0774540   1.8172860  60.7370030  20.2904340   1.6880810
  60.8405590  21.7565730   2.0508390  62.4015110  20.8149680   4.8718250
  61.7717850  20.1136990   5.0388380  61.8620250  21.5753810   4.6551410
  65.3407060  37.4288910  17.5428860  66.2674370  37.1933180  17.5864820
  65.3257490  38.2560910  17.0614890  62.5270670  20.0933660  17.3070740
  62.2454940  20.5967260  16.5431560  62.9090370  19.2955410  16.9412870
  61.4179770  37.3609320   2.0938420  62.1498590  37.0768600   1.5462310
  61.6773440  37.1222600   2.9837800  60.5794560  33.4774050   2.0984750
  59.9503440  33.9459150   2.6470580  60.6942390  32.6323270   2.5330940
  69.1286130  19.5087240  17.8851210  69.0151580  19.8281850  18.7802730
  69.9455870  19.9099750  17.5888490  68.0344280   8.7536220  63.3459910
  67.9538330   7.8390830  63.0751620  67.6208700   9.2503290  62.6399620
  66.1662320  10.5315240  65.2269180  65.3904420  10.0515680  65.5167750
  66.8175250   9.8520890  65.0525340  60.1828150  10.8435050  66.1044940
  59.3513030  10.5883760  66.5041450  60.7909130  10.9145820  66.8402860
  70.1869750  14.9375430  64.0068310  69.7251280  14.1662670  64.3355480
  70.9995300  14.9641500  64.5120760  60.1629410  14.8775140  66.3002960
  60.4657450  13.9872880  66.1213180  60.9073000  15.4345360  66.0725210
  58.5920100   5.8036940  59.8887330  57.7036800   6.1452910  59.7867210
  58.8761290   5.6037260  58.9968160  56.5553110   8.4042590  65.7727030
  57.1269220   7.6364790  65.7730670  56.5554650   8.7031350  64.8633640
  66.4133060  17.2233440  63.6272300  65.7944500  17.6790940  63.0566740
  67.2684840  17.3784900  63.2262000  65.6071310  13.2072430  65.2339340
  65.5379590  12.2662370  65.0728470  66.3691170  13.2973840  65.8061910
  57.7977980   3.8126950  67.5595960  57.6180820   2.9152700  67.8398720
  57.3958060   4.3598820  68.2342910  66.6376480   6.0142810  65.4608270
  67.0141300   5.1414690  65.3481940  66.5395990   6.3501510  64.5698710
  60.7681490   4.3868440  60.9225710  60.8748240   5.2872170  61.2294470
  59.8573850   4.3386410  60.6320360  70.4200600   3.5093250  62.3936610
  71.2410220   3.0189820  62.4362090  70.4534680   4.0990910  63.1468450
  58.4164650   6.3087450  66.1678300  59.0974760   6.5725820  66.7865700
  58.1012700   5.4688320  66.5016310  62.6089220   7.3554810  65.2550890
  63.1167440   7.8535780  65.8955910  63.1402460   6.5790010  65.0790250
  67.2796410  12.1072680  61.0204210  66.6613680  12.5722130  60.4566930
  67.7919660  12.8000160  61.4373720  62.1428170  11.6348550  67.6987810
  61.8097550  12.2617470  68.3408880  62.3194850  12.1610430  66.9189480
  70.6562080   5.4493630  65.1664150  69.9517650   5.7378520  65.7467260
  71.0174240   6.2593740  64.8063710  60.5740650   3.7063330  67.5284760
  60.9157460   4.5505380  67.2338630  59.6356460   3.8547070  67.6450100
  61.3547270  13.6029350  69.5136990  61.9721270  14.2780430  69.2321440
  60.4940390  14.0117330  69.4224490  56.6479610  12.7929210  58.3943840
  56.2707590  13.2816310  57.6628740  56.9052680  13.4654490  59.0250370
  69.8083600  16.9112890  66.1436810  69.8210760  16.5075180  65.2759070
  69.2558820  17.6860180  66.0398240  71.1029020  13.6329110  61.2326980
  70.9925350  12.6903440  61.3576400  71.0997270  13.9944750  62.1189740
  69.2069040  11.8142730  67.4719420  69.6237830  11.6002840  66.6372880
  69.9308860  12.0715520  68.0428040  66.6449300   9.2594430  60.5889470
  65.7178580   9.1931810  60.8177940  66.7974120  10.1974560  60.4744710
  66.6318380   5.5311430  57.5856630  65.6922050   5.6925390  57.6709090
  66.9501640   6.2497110  57.0392620  70.6746590  10.8214730  61.0924720
  70.0559010  10.4834280  60.4451020  70.6571040  10.1774490  61.8003910
  70.1173150   6.9999270  68.5090530  69.7044330   7.8252980  68.7630520
  69.3849100   6.4144310  68.3166890  62.2505940   9.7859170  63.3709200
  61.8462940   9.0736420  62.8755100  62.3369060   9.4412410  64.2597240
  62.7187640  13.4726730  65.5348410  62.4215930  12.8672200  64.8556190
  63.6687460  13.5104040  65.4237770  60.9634560   6.5602380  67.1508240
  61.5149150   6.6697720  66.3761490  61.4778070   6.9339980  67.8663470
  70.8073250  17.0458600  69.1971510  70.3303810  17.8530790  69.0044120
  70.1235040  16.3936930  69.3497720  68.8511290  10.0601540  58.0997470
  69.2904570   9.2223970  57.9535290  69.5639710  10.6930940  58.1861610
  60.6377290  10.0821740  70.7613580  60.4985060  10.9544540  71.1300980
  59.7558650   9.7394550  70.6161520  66.9606670  14.9997610  62.0678710
  67.4002580  15.7421940  61.6534100  66.8993560  15.2424180  62.9917670
  58.9510570   8.6804150  60.8715850  58.8308170   9.4066240  60.2597120
  58.6411460   7.9107060  60.3943760  56.5895940  11.8519290  66.6784490
  56.6676360  11.9868060  65.7340210  57.2037620  11.1435180  66.8712610
  57.8343570  13.5519480  63.0890670  57.4271650  13.6934070  62.2344270
  58.7256580  13.2679640  62.8861880  67.6522450  17.7011390  69.9957720
  68.1667120  17.6119400  70.7980150  66.8091530  18.0471090  70.2885630
  69.6276850  17.9866730  59.4241720  69.4677990  17.6969670  60.3223550
  69.4623560  17.2106860  58.8886950  62.1065230  17.7665260  61.2013340
  61.9307710  16.8500800  60.9881140  61.2520970  18.1252550  61.4411140
  69.3302980  15.4954290  57.9839720  68.6368140  15.4931580  57.3242000
  70.0725840  15.0713610  57.5533890  68.8952910  17.1217000  62.0588210
  69.3509860  16.3406380  62.3726830  69.2345430  17.8323820  62.6029390
  56.6455460  12.8933460  69.2178950  56.8086500  12.4238820  68.3998320
  57.1107910  12.3857020  69.8827790  61.4174230   2.0239220  64.2539520
  60.9742380   2.8048760  63.9224040  61.9759220   2.3469110  64.9610460
  65.7044040   4.8907740  69.8574840  65.2423410   5.0990760  70.6694780
  65.3022150   4.0767090  69.5545510  70.7048550   6.1116690  70.9871500
  69.8542140   5.8122440  71.3080570  70.5450340   6.3558700  70.0755320
  63.4550130   2.5686550  66.1129120  63.7522460   3.4749380  66.0321140
  64.0035690   2.0805330  65.4988690  61.2088450   7.1472790  61.9820770
  60.9829370   6.9309960  62.8867390  60.4280980   7.5801250  61.6366740
  68.4386210   7.1536160  60.5811420  67.8395100   7.8771960  60.3975040
  68.9865820   7.0912940  59.7987870  67.0451080   5.7899700  62.6114700
  67.4380650   6.1071900  61.7983390  67.4067930   4.9111580  62.7259220
  58.7798200   4.4572040  70.8014820  58.3861590   5.3047250  71.0087600
  58.0916600   3.8198410  70.9923460  56.0815250   2.3800500  64.8344900
  55.7928300   2.9503360  65.5469880  56.8261010   1.9004950  65.1976130
  56.2685480   6.3220620  56.0447620  56.1860150   7.2651380  56.1862610
  55.9168540   6.1795530  55.1659970  67.6306220   8.3805450  66.7065480
  66.8987340   8.8892260  67.0555580  67.2330560   7.5635430  66.4054260
  64.0683610   5.0559650  65.1117970  64.0719670   4.6149600  64.2622510
  64.9634730   5.3776980  65.2189790  59.9185990   4.9386140  64.0712180
  59.5786040   5.4161370  64.8279230  59.1563310   4.4851260  63.7113280
  64.1303760   6.0571730  58.1024730  64.2516580   6.0158210  59.0510550
  63.7452270   6.9195880  57.9471460  68.0932130   3.8339130  66.1188420
  68.1104870   4.2847780  66.9630270  67.8447710   2.9344770  66.3321860
  63.1425260   8.3672870  57.5008030  62.5742160   7.9191120  56.8743940
  63.8514260   8.7265650  56.9673180  58.2194440  12.2684890  71.3774760
  57.8349230  11.6278560  71.9757720  58.5306630  12.9721010  71.9469490
  64.3691580   9.1161430  66.8583380  64.7361710   8.6420000  67.6044720
  64.1796640   9.9903000  67.1991720  57.2332070   3.8605120  62.9876850
  56.9478990   3.4960790  63.8255470  57.1710930   3.1285580  62.3739990
  62.1590950   8.1570070  69.1767590  61.8548020   9.0362050  69.4017950
  63.1137410   8.2169860  69.2125030  60.6872740  12.3631060  59.7734440
  59.9135000  11.8228680  59.6133160  61.4167370  11.8437670  59.4352200
  71.4460720  11.3596420  65.5660830  72.1659840  11.8551710  65.1756940
  71.2442540  10.6814310  64.9214700  66.9070660   2.7534380  59.7090220
  66.0935270   2.2547550  59.6335530  66.7132610   3.5932630  59.2926570
  66.8279520  11.4305480  71.4529830  66.7616830  10.5101150  71.1987420
  66.1984660  11.5280920  72.1674470  69.6219050   7.1254030  58.0052380
  70.5098670   7.4371260  57.8303720  69.5924140   6.2526280  57.6132960
  60.7310140  12.0311440  63.4113250  61.2488810  11.2279700  63.3570140
  60.2794160  11.9690580  64.2530080  65.6179640  13.2977720  58.6840550
  65.9595340  14.0419950  58.1883870  64.7892350  13.6108840  59.0465380
  58.2154680   8.9972810  70.3238950  57.8569620   9.6626660  70.9112290
  57.9209240   8.1656360  70.6951570  66.7596250  14.2526050  71.2033630
  66.7740790  13.3207010  70.9852540  66.0521350  14.3385810  71.8423400
  68.5007050  12.6193560  64.0486060  68.8530870  12.0221690  63.3887430
  67.6169380  12.2937790  64.2194310  64.5870330  13.3791250  61.4556470
  65.2741460  13.9260460  61.8364060  63.8002750  13.9231980  61.4906080
  56.7262730   8.9964070  56.9473550  57.5957580   9.2788870  57.2309470
  56.2353050   9.8099940  56.8322360  63.8897540  10.3837280  61.0681830
  64.3460320  11.1942530  61.2942020  63.5385750  10.0660420  61.9000320
  66.1930150  15.8943620  68.2974130  66.8372370  16.1003000  68.9747550
  66.5559590  15.1332020  67.8444980  67.4662230  13.8975970  67.0151580
  68.1084460  13.1969130  67.1283750  67.9911580  14.6774410  66.8348470
  71.3117950  14.1824590  56.7390720  71.0855530  13.4655030  57.3315360
  70.9214150  13.9337030  55.9012470  69.2399850  14.6970870  70.2187640
  69.5756090  15.2837560  70.8965560  68.3200190  14.5663580  70.4485430
  57.0933980  18.2091450  57.5135180  57.4531620  18.8080790  56.8592450
  56.9526320  18.7551340  58.2870210  56.7903250   2.4866050  71.0011050
  56.0761770   2.6862970  71.6063660  57.2098290   1.7105620  71.3725850
  70.8934200  12.0996530  58.4004880  70.6055900  12.5609220  59.1882760
  71.6886370  11.6394300  58.6689100  57.0775840  16.4746310  71.9877580
  57.1866960  15.5341050  71.8472970  56.4256400  16.7401060  71.3391310
  63.1102600  15.5922650  58.3308850  63.1012700  16.3252340  57.7153360
  62.1900960  15.3454230  58.4235810  58.7109240  10.8137540  59.0755610
  58.1037190  11.5536440  59.0850910  59.1858590  10.9036900  58.2493810
  68.2842030   4.9788360  68.7512500  68.6522850   4.1583570  69.0792070
  67.4240230   5.0390250  69.1668150  71.6504060   3.9345300  59.5600060
  71.0217220   4.0390970  58.8458290  71.1555980   4.1542080  60.3493940
  66.0962200  15.6550890  56.9934040  66.1974180  15.4514880  56.0636020
  65.1963940  15.4009170  57.1981820  63.6188090   6.2131250  60.9757940
  62.9104240   6.6817590  61.4171550  63.9032570   5.5553260  61.6103130
  65.2444020   7.6327950  68.9750470  65.7429270   8.1073770  69.6402320
  65.3866970   6.7091470  69.1820500  67.6503520   2.9381910  62.4153730
  67.5271300   2.9568040  61.4663240  68.5988080   2.9860850  62.5352130
  64.7380310  18.1737210  61.6881710  64.9921810  18.1358600  60.7661080
  63.7892790  18.0470540  61.6809960  61.8223110   4.5216330  58.3508650
  62.6713640   4.9586480  58.2848840  61.4554380   4.8336590  59.1780710
  70.7432890   9.0929090  63.2640220  69.8023030   9.1079320  63.4387910
  71.0576960   8.3065050  63.7100520  60.7214530  10.7748690  56.8244180
  61.4877800  10.6630050  57.3869610  60.7989220  10.0786660  56.1720950
  59.4161290   8.2073760  57.5077070  59.4964880   7.2601270  57.6194470
  60.3081040   8.5380640  57.6137730  60.2176000  18.3569150  64.6111610
  60.9538480  17.8084610  64.8820180  60.6016920  19.2225160  64.4717600
  57.1021480  14.4242720  60.4853120  56.1761260  14.6663860  60.4758530
  57.5677910  15.2516980  60.3637870  63.3278310  17.5299460  56.4337180
  64.1206920  17.8188290  55.9818970  62.8082660  17.0991630  55.7549660
  72.3808480  16.7569590  57.8573920  72.0949990  16.3434730  57.0428100
  72.1828030  17.6857300  57.7374440  63.8455710  12.7502870  56.2979530
  63.7406350  12.1355220  57.0240910  63.6779930  12.2268760  55.5142540
  67.0858440  11.8122900  56.9021520  66.5368540  12.2592200  57.5464260
  67.7077700  11.3072150  57.4259190  62.7533560  10.7713820  58.7986820
  63.1749980  10.6053690  59.6418210  62.8784400   9.9614050  58.3041960
  60.9160980   6.7510370  71.6057800  60.3857440   6.2601320  70.9781140
  61.5849050   7.1794570  71.0715730  65.2661200   9.7951430  56.0463920
  65.7866860   9.0800450  55.6805070  65.9129600  10.4337300  56.3464430
  69.8139040  11.2179830  71.3698990  70.2280060  11.3724910  72.2189410
  68.8790040  11.3435050  71.5324770  61.4033280   3.7172740  71.6855090
  61.3090150   3.0993490  70.9605960  60.8230670   4.4439030  71.4585000
  64.1694720   2.2745980  68.7182480  63.7212020   2.2970240  67.8728030
  63.5359920   1.8765000  69.3152780  64.5754270  11.1700310  69.3394920
  64.9942380  12.0133040  69.1671160  63.6562900  11.3072350  69.1101700
  66.9118170   8.9016490  70.7232760  67.0314380   8.3057630  71.4627600
  67.7712170   8.9386180  70.3034060  69.2506070   9.4553680  69.2995270
  68.7241290   9.9796300  68.6960410  69.5937410  10.0881070  69.9305000
  61.6492460   6.8447050  55.7444980  61.4481520   5.9814410  56.1058320
  61.4784510   6.7580410  54.8066580  62.4261690  17.4753320  70.4552650
  61.8882780  18.1999380  70.1361350  62.6795650  16.9983660  69.6649990
  60.4475260   3.9447670  55.7322860  60.7501160   3.9515100  54.8242010
  61.1869850   3.5945530  56.2290520  65.2823900  18.7104530  70.7139300
  65.2082600  19.6139670  71.0211670  64.3802740  18.3916430  70.6861370
  63.6660190   2.8882290  56.7179060  63.3182190   2.2106280  56.1381510
  63.8672960   2.4271800  57.5322450  65.8309230  17.8763040  58.3365660
  66.7260020  18.2148010  58.3584420  65.8626860  17.1542450  57.7089940
  59.4705390  13.2490090  56.5652660  59.9080260  13.7919760  57.2210240
  59.9553120  12.4237040  56.5749000  56.6851190  16.0379120  64.0172920
  57.0154200  15.1700180  63.7851560  57.1142190  16.2437640  64.8477880
  61.2813110  14.3688130  61.6774890  60.9808650  14.2453100  62.5778800
  61.1750600  13.5096720  61.2690620  57.1741400  16.9049710  66.7554550
  56.7372390  17.0850510  67.5878700  57.7419080  17.6624330  66.6136270
  57.0065830   9.4169940  63.1143430  56.3514670   9.1481580  62.4703130
  57.8443780   9.3074420  62.6645410  71.4955220  13.1318690  69.1408020
  70.6815060  13.5615850  69.4033810  71.9029420  13.7437100  68.5277070
  69.9556270   4.2111230  57.3361920  70.3741150   4.0242210  56.4958580
  69.6492330   3.3590280  57.6464850  58.0441760   9.8022510  67.6546770
  58.4114800   9.7149910  68.5342790  57.4752580   9.0389060  67.5553630
  56.2203910   6.6268870  59.0568760  55.3167990   6.8899070  58.8820420
  56.7044530   6.8980040  58.2768720  58.7631120   5.6834410  56.9663140
  59.4722820   5.2617630  56.4810420  58.0471060   5.7509640  56.3346490
  71.5531270  17.8837290  62.6676290  72.1490340  17.5621860  61.9910710
  71.8109420  17.4109110  63.4589560  63.1599870  15.8714790  68.4176640
  62.9191230  16.1389350  67.5307160  64.1002510  16.0420520  68.4727500
  59.2981870  17.2617450  69.9364700  58.7042190  17.1302150  70.6754740
  59.2905710  16.4255590  69.4706800  69.6508870   2.7620550  69.5236450
  69.3222230   1.9472310  69.1438180  70.5991170   2.7190360  69.4002140
  72.1043480  18.5332590  66.4974020  71.6446450  19.2848400  66.1232040
  71.4755940  17.8139060  66.4388820  58.9294100  14.6275830  68.8872740
  58.2028160  14.0081120  68.8198690  58.9903250  15.0216440  68.0170820
  62.5339200  16.8420830  65.6722150  63.0504220  16.2308190  65.1470410
  63.1836580  17.3449610  66.1633160  65.2734700  17.7329320  66.4991130
  65.5612510  17.4783620  65.6224140  65.7857920  17.1806680  67.0896700
  71.0432780   2.1742620  65.1236730  71.4840870   2.1187720  64.2758330
  70.7740370   3.0900630  65.1946910  57.2124100  17.9450220  62.0969500
  57.0446140  17.3120900  62.7951390  56.3458610  18.1509620  61.7463690
  57.8352120   1.7767000  59.6001360  58.5931480   1.8895880  59.0265390
  57.3729290   2.6136200  59.5544790  64.3765930   3.8906270  62.5903670
  63.5640440   3.5163160  62.2499550  64.8807570   3.1351350  62.8924860
  58.8186800  16.6383450  59.5419640  58.2934420  17.0191480  58.8381600
  58.7431380  17.2634220  60.2629350  61.4179770  18.5865830  58.4168890
  62.1498590  18.3025110  57.8692780  61.6773440  18.3479110  59.3068270
  60.5794560  14.7030560  58.4215220  59.9503440  15.1715660  58.9701050
  60.6942390  13.8579780  58.8561410  68.0344280   8.7536220  44.5716420
  67.9538330   7.8390830  44.3008130  67.6208700   9.2503290  43.8656130
  66.1662320  10.5315240  46.4525690  65.3904420  10.0515680  46.7424260
  66.8175250   9.8520890  46.2781850  60.1828150  10.8435050  47.3301450
  59.3513030  10.5883760  47.7297960  60.7909130  10.9145820  48.0659370
  70.1869750  14.9375430  45.2324820  69.7251280  14.1662670  45.5611990
  70.9995300  14.9641500  45.7377270  60.1629410  14.8775140  47.5259470
  60.4657450  13.9872880  47.3469690  60.9073000  15.4345360  47.2981720
  58.5920100   5.8036940  41.1143840  57.7036800   6.1452910  41.0123720
  58.8761290   5.6037260  40.2224670  56.5553110   8.4042590  46.9983540
  57.1269220   7.6364790  46.9987180  56.5554650   8.7031350  46.0890150
  66.4133060  17.2233440  44.8528810  65.7944500  17.6790940  44.2823250
  67.2684840  17.3784900  44.4518510  65.6071310  13.2072430  46.4595850
  65.5379590  12.2662370  46.2984980  66.3691170  13.2973840  47.0318420
  57.7977980   3.8126950  48.7852470  57.6180820   2.9152700  49.0655230
  57.3958060   4.3598820  49.4599420  66.6376480   6.0142810  46.6864780
  67.0141300   5.1414690  46.5738450  66.5395990   6.3501510  45.7955220
  60.7681490   4.3868440  42.1482220  60.8748240   5.2872170  42.4550980
  59.8573850   4.3386410  41.8576870  70.4200600   3.5093250  43.6193120
  71.2410220   3.0189820  43.6618600  70.4534680   4.0990910  44.3724960
  58.4164650   6.3087450  47.3934810  59.0974760   6.5725820  48.0122210
  58.1012700   5.4688320  47.7272820  62.6089220   7.3554810  46.4807400
  63.1167440   7.8535780  47.1212420  63.1402460   6.5790010  46.3046760
  67.2796410  12.1072680  42.2460720  66.6613680  12.5722130  41.6823440
  67.7919660  12.8000160  42.6630230  62.1428170  11.6348550  48.9244320
  61.8097550  12.2617470  49.5665390  62.3194850  12.1610430  48.1445990
  70.6562080   5.4493630  46.3920660  69.9517650   5.7378520  46.9723770
  71.0174240   6.2593740  46.0320220  60.5740650   3.7063330  48.7541270
  60.9157460   4.5505380  48.4595140  59.6356460   3.8547070  48.8706610
  61.3547270  13.6029350  50.7393500  61.9721270  14.2780430  50.4577950
  60.4940390  14.0117330  50.6481000  56.6479610  12.7929210  39.6200350
  56.2707590  13.2816310  38.8885250  56.9052680  13.4654490  40.2506880
  69.8083600  16.9112890  47.3693320  69.8210760  16.5075180  46.5015580
  69.2558820  17.6860180  47.2654750  71.1029020  13.6329110  42.4583490
  70.9925350  12.6903440  42.5832910  71.0997270  13.9944750  43.3446250
  69.2069040  11.8142730  48.6975930  69.6237830  11.6002840  47.8629390
  69.9308860  12.0715520  49.2684550  66.6449300   9.2594430  41.8145980
  65.7178580   9.1931810  42.0434450  66.7974120  10.1974560  41.7001220
  66.6318380   5.5311430  38.8113140  65.6922050   5.6925390  38.8965600
  66.9501640   6.2497110  38.2649130  70.6746590  10.8214730  42.3181230
  70.0559010  10.4834280  41.6707530  70.6571040  10.1774490  43.0260420
  70.1173150   6.9999270  49.7347040  69.7044330   7.8252980  49.9887030
  69.3849100   6.4144310  49.5423400  62.2505940   9.7859170  44.5965710
  61.8462940   9.0736420  44.1011610  62.3369060   9.4412410  45.4853750
  62.7187640  13.4726730  46.7604920  62.4215930  12.8672200  46.0812700
  63.6687460  13.5104040  46.6494280  60.9634560   6.5602380  48.3764750
  61.5149150   6.6697720  47.6018000  61.4778070   6.9339980  49.0919980
  70.8073250  17.0458600  50.4228020  70.3303810  17.8530790  50.2300630
  70.1235040  16.3936930  50.5754230  61.8106070  13.2108420  53.4112720
  60.9134600  13.4348390  53.6586120  61.8358940  13.3343360  52.4624120
  68.8511290  10.0601540  39.3253980  69.2904570   9.2223970  39.1791800
  69.5639710  10.6930940  39.4118120  60.6377290  10.0821740  51.9870090
  60.4985060  10.9544540  52.3557490  59.7558650   9.7394550  51.8418030
  66.9606670  14.9997610  43.2935220  67.4002580  15.7421940  42.8790610
  66.8993560  15.2424180  44.2174180  62.4357640  16.0243440  54.1955240
  62.4073070  16.4286390  53.3283670  62.2722610  15.0953800  54.0326840
  58.9510570   8.6804150  42.0972360  58.8308170   9.4066240  41.4853630
  58.6411460   7.9107060  41.6200270  56.5895940  11.8519290  47.9041000
  56.6676360  11.9868060  46.9596720  57.2037620  11.1435180  48.0969120
  57.8343570  13.5519480  44.3147180  57.4271650  13.6934070  43.4600780
  58.7256580  13.2679640  44.1118390  67.6522450  17.7011390  51.2214230
  68.1667120  17.6119400  52.0236660  66.8091530  18.0471090  51.5142140
  69.6276850  17.9866730  40.6498230  69.4677990  17.6969670  41.5480060
  69.4623560  17.2106860  40.1143460  62.1065230  17.7665260  42.4269850
  61.9307710  16.8500800  42.2137650  61.2520970  18.1252550  42.6667650
  69.3302980  15.4954290  39.2096230  68.6368140  15.4931580  38.5498510
  70.0725840  15.0713610  38.7790400  68.8952910  17.1217000  43.2844720
  69.3509860  16.3406380  43.5983340  69.2345430  17.8323820  43.8285900
  56.6455460  12.8933460  50.4435460  56.8086500  12.4238820  49.6254830
  57.1107910  12.3857020  51.1084300  61.4174230   2.0239220  45.4796030
  60.9742380   2.8048760  45.1480550  61.9759220   2.3469110  46.1866970
  65.7044040   4.8907740  51.0831350  65.2423410   5.0990760  51.8951290
  65.3022150   4.0767090  50.7802020  70.7048550   6.1116690  52.2128010
  69.8542140   5.8122440  52.5337080  70.5450340   6.3558700  51.3011830
  67.7998260   7.6118440  54.3126800  68.1251670   6.7782190  53.9729030
  68.5878590   8.1346960  54.4605130  63.4550130   2.5686550  47.3385630
  63.7522460   3.4749380  47.2577650  64.0035690   2.0805330  46.7245200
  61.2088450   7.1472790  43.2077280  60.9829370   6.9309960  44.1123900
  60.4280980   7.5801250  42.8623250  68.4386210   7.1536160  41.8067930
  67.8395100   7.8771960  41.6231550  68.9865820   7.0912940  41.0244380
  63.6487660   8.0458370  53.8737550  63.5531260   7.1053100  53.7237950
  64.4919640   8.2673440  53.4785620  67.0451080   5.7899700  43.8371210
  67.4380650   6.1071900  43.0239900  67.4067930   4.9111580  43.9515730
  58.7798200   4.4572040  52.0271330  58.3861590   5.3047250  52.2344110
  58.0916600   3.8198410  52.2179970  65.3543250   4.5407010  55.0968070
  64.6641570   4.3479210  55.7314160  66.0975550   4.8241650  55.6292370
  56.0815250   2.3800500  46.0601410  55.7928300   2.9503360  46.7726390
  56.8261010   1.9004950  46.4232640  56.2685480   6.3220620  37.2704130
  56.1860150   7.2651380  37.4119120  55.9168540   6.1795530  36.3916480
  67.6306220   8.3805450  47.9321990  66.8987340   8.8892260  48.2812090
  67.2330560   7.5635430  47.6310770  64.0683610   5.0559650  46.3374480
  64.0719670   4.6149600  45.4879020  64.9634730   5.3776980  46.4446300
  59.9185990   4.9386140  45.2968690  59.5786040   5.4161370  46.0535740
  59.1563310   4.4851260  44.9369790  64.1303760   6.0571730  39.3281240
  64.2516580   6.0158210  40.2767060  63.7452270   6.9195880  39.1727970
  68.0932130   3.8339130  47.3444930  68.1104870   4.2847780  48.1886780
  67.8447710   2.9344770  47.5578370  63.1425260   8.3672870  38.7264540
  62.5742160   7.9191120  38.1000450  63.8514260   8.7265650  38.1929690
  58.2194440  12.2684890  52.6031270  57.8349230  11.6278560  53.2014230
  58.5306630  12.9721010  53.1726000  64.3691580   9.1161430  48.0839890
  64.7361710   8.6420000  48.8301230  64.1796640   9.9903000  48.4248230
  57.2332070   3.8605120  44.2133360  56.9478990   3.4960790  45.0511980
  57.1710930   3.1285580  43.5996500  62.1590950   8.1570070  50.4024100
  61.8548020   9.0362050  50.6274460  63.1137410   8.2169860  50.4381540
  60.6872740  12.3631060  40.9990950  59.9135000  11.8228680  40.8389670
  61.4167370  11.8437670  40.6608710  71.4460720  11.3596420  46.7917340
  72.1659840  11.8551710  46.4013450  71.2442540  10.6814310  46.1471210
  66.9070660   2.7534380  40.9346730  66.0935270   2.2547550  40.8592040
  66.7132610   3.5932630  40.5183080  66.8279520  11.4305480  52.6786340
  66.7616830  10.5101150  52.4243930  66.1984660  11.5280920  53.3930980
  69.6219050   7.1254030  39.2308890  70.5098670   7.4371260  39.0560230
  69.5924140   6.2526280  38.8389470  60.7310140  12.0311440  44.6369760
  61.2488810  11.2279700  44.5826650  60.2794160  11.9690580  45.4786590
  65.6179640  13.2977720  39.9097060  65.9595340  14.0419950  39.4140380
  64.7892350  13.6108840  40.2721890  58.2154680   8.9972810  51.5495460
  57.8569620   9.6626660  52.1368800  57.9209240   8.1656360  51.9208080
  61.4167800   9.4557050  54.4335010  61.1167940   9.6014230  53.5362830
  62.1879040   8.8962340  54.3408400  66.7596250  14.2526050  52.4290140
  66.7740790  13.3207010  52.2109050  66.0521350  14.3385810  53.0679910
  68.5007050  12.6193560  45.2742570  68.8530870  12.0221690  44.6143940
  67.6169380  12.2937790  45.4450820  64.5870330  13.3791250  42.6812980
  65.2741460  13.9260460  43.0620570  63.8002750  13.9231980  42.7162590
  56.7262730   8.9964070  38.1730060  57.5957580   9.2788870  38.4565980
  56.2353050   9.8099940  38.0578870  63.8897540  10.3837280  42.2938340
  64.3460320  11.1942530  42.5198530  63.5385750  10.0660420  43.1256830
  66.1930150  15.8943620  49.5230640  66.8372370  16.1003000  50.2004060
  66.5559590  15.1332020  49.0701490  67.4662230  13.8975970  48.2408090
  68.1084460  13.1969130  48.3540260  67.9911580  14.6774410  48.0604980
  71.3117950  14.1824590  37.9647230  71.0855530  13.4655030  38.5571870
  70.9214150  13.9337030  37.1268980  69.2399850  14.6970870  51.4444150
  69.5756090  15.2837560  52.1222070  68.3200190  14.5663580  51.6741940
  57.0933980  18.2091450  38.7391690  57.4531620  18.8080790  38.0848960
  56.9526320  18.7551340  39.5126720  56.7903250   2.4866050  52.2267560
  56.0761770   2.6862970  52.8320170  57.2098290   1.7105620  52.5982360
  70.8934200  12.0996530  39.6261390  70.6055900  12.5609220  40.4139270
  71.6886370  11.6394300  39.8945610  57.0775840  16.4746310  53.2134090
  57.1866960  15.5341050  53.0729480  56.4256400  16.7401060  52.5647820
  65.0688430  14.7462200  54.6132210  64.7485300  14.0271440  55.1577900
  64.3946790  15.4217270  54.6868270  63.1102600  15.5922650  39.5565360
  63.1012700  16.3252340  38.9409870  62.1900960  15.3454230  39.6492320
  58.7109240  10.8137540  40.3012120  58.1037190  11.5536440  40.3107420
  59.1858590  10.9036900  39.4750320  68.2842030   4.9788360  49.9769010
  68.6522850   4.1583570  50.3048580  67.4240230   5.0390250  50.3924660
  71.6504060   3.9345300  40.7856570  71.0217220   4.0390970  40.0714800
  71.1555980   4.1542080  41.5750450  66.0962200  15.6550890  38.2190550
  66.1974180  15.4514880  37.2892530  65.1963940  15.4009170  38.4238330
  63.6188090   6.2131250  42.2014450  62.9104240   6.6817590  42.6428060
  63.9032570   5.5553260  42.8359640  65.2444020   7.6327950  50.2006980
  65.7429270   8.1073770  50.8658830  65.3866970   6.7091470  50.4077010
  67.6503520   2.9381910  43.6410240  67.5271300   2.9568040  42.6919750
  68.5988080   2.9860850  43.7608640  64.7380310  18.1737210  42.9138220
  64.9921810  18.1358600  41.9917590  63.7892790  18.0470540  42.9066470
  61.8223110   4.5216330  39.5765160  62.6713640   4.9586480  39.5105350
  61.4554380   4.8336590  40.4037220  70.7432890   9.0929090  44.4896730
  69.8023030   9.1079320  44.6644420  71.0576960   8.3065050  44.9357030
  60.7214530  10.7748690  38.0500690  61.4877800  10.6630050  38.6126120
  60.7989220  10.0786660  37.3977460  59.4161290   8.2073760  38.7333580
  59.4964880   7.2601270  38.8450980  60.3081040   8.5380640  38.8394240
  60.2176000  18.3569150  45.8368120  60.9538480  17.8084610  46.1076690
  60.6016920  19.2225160  45.6974110  57.1021480  14.4242720  41.7109630
  56.1761260  14.6663860  41.7015040  57.5677910  15.2516980  41.5894380
  59.2234280  17.5415220  55.0253700  60.0247010  17.8627270  55.4389100
  58.7086100  17.1810800  55.7473610  63.3278310  17.5299460  37.6593690
  64.1206920  17.8188290  37.2075480  62.8082660  17.0991630  36.9806170
  68.0598910  13.6495090  54.9729110  67.4537070  13.6726690  54.2324860
  67.7553020  12.9178130  55.5096360  69.4899280  17.3775380  53.5838520
  70.4421030  17.2933400  53.5338760  69.3427500  18.0417090  54.2572310
  72.3808480  16.7569590  39.0830430  72.0949990  16.3434730  38.2684610
  72.1828030  17.6857300  38.9630950  56.9432090  10.0288680  53.9689750
  57.4471110   9.4495960  54.5405980  56.2039510  10.3128910  54.5066120
  63.8455710  12.7502870  37.5236040  63.7406350  12.1355220  38.2497420
  63.6779930  12.2268760  36.7399050  63.9970030  11.4359670  53.5025270
  63.2315700  12.0044670  53.4179940  64.1785990  11.1435880  52.6093500
  67.0858440  11.8122900  38.1278030  66.5368540  12.2592200  38.7720770
  67.7077700  11.3072150  38.6515700  71.1393380  13.1665000  54.0600290
  71.8802850  13.5040760  53.5567750  70.3766060  13.3357060  53.5070060
  58.9755170   8.1718270  54.8639820  59.0160510   7.8732140  55.7725050
  59.8300670   8.5725880  54.7047340  62.7533560  10.7713820  40.0243330
  63.1749980  10.6053690  40.8674720  62.8784400   9.9614050  39.5298470
  60.9160980   6.7510370  52.8314310  60.3857440   6.2601320  52.2037650
  61.5849050   7.1794570  52.2972240  65.2661200   9.7951430  37.2720430
  65.7866860   9.0800450  36.9061580  65.9129600  10.4337300  37.5720940
  69.8139040  11.2179830  52.5955500  70.2280060  11.3724910  53.4445920
  68.8790040  11.3435050  52.7581280  70.2861210   8.5575990  54.5994650
  70.8681980   7.8028310  54.5115130  70.4622980   9.0883430  53.8226130
  61.4033280   3.7172740  52.9111600  61.3090150   3.0993490  52.1862470
  60.8230670   4.4439030  52.6841510  64.1694720   2.2745980  49.9438990
  63.7212020   2.2970240  49.0984540  63.5359920   1.8765000  50.5409290
  64.5754270  11.1700310  50.5651430  64.9942380  12.0133040  50.3927670
  63.6562900  11.3072350  50.3358210  66.9118170   8.9016490  51.9489270
  67.0314380   8.3057630  52.6884110  67.7712170   8.9386180  51.5290570
  69.2506070   9.4553680  50.5251780  68.7241290   9.9796300  49.9216920
  69.5937410  10.0881070  51.1561510  61.6492460   6.8447050  36.9701490
  61.4481520   5.9814410  37.3314830  61.4784510   6.7580410  36.0323090
  62.4261690  17.4753320  51.6809160  61.8882780  18.1999380  51.3617860
  62.6795650  16.9983660  50.8906500  63.6786940   5.4437840  53.2065090
  64.2686630   5.1353690  53.8942910  62.8607180   4.9717590  53.3624990
  68.4980370   5.0603650  53.4398110  67.8095890   4.3985190  53.3748100
  69.2186390   4.6141920  53.8846570  60.4475260   3.9447670  36.9579370
  60.7501160   3.9515100  36.0498520  61.1869850   3.5945530  37.4547030
  65.2823900  18.7104530  51.9395810  65.2082600  19.6139670  52.2468180
  64.3802740  18.3916430  51.9117880  63.6660190   2.8882290  37.9435570
  63.3182190   2.2106280  37.3638020  63.8672960   2.4271800  38.7578960
  65.8309230  17.8763040  39.5622170  66.7260020  18.2148010  39.5840930
  65.8626860  17.1542450  38.9346450  59.4705390  13.2490090  37.7909170
  59.9080260  13.7919760  38.4466750  59.9553120  12.4237040  37.8005510
  56.6851190  16.0379120  45.2429430  57.0154200  15.1700180  45.0108070
  57.1142190  16.2437640  46.0734390  61.2813110  14.3688130  42.9031400
  60.9808650  14.2453100  43.8035310  61.1750600  13.5096720  42.4947130
  57.1741400  16.9049710  47.9811060  56.7372390  17.0850510  48.8135210
  57.7419080  17.6624330  47.8392780  57.0065830   9.4169940  44.3399940
  56.3514670   9.1481580  43.6959640  57.8443780   9.3074420  43.8901920
  71.4955220  13.1318690  50.3664530  70.6815060  13.5615850  50.6290320
  71.9029420  13.7437100  49.7533580  69.9556270   4.2111230  38.5618430
  70.3741150   4.0242210  37.7215090  69.6492330   3.3590280  38.8721360
  58.0441760   9.8022510  48.8803280  58.4114800   9.7149910  49.7599300
  57.4752580   9.0389060  48.7810140  57.5957760   6.7131600  52.7861700
  56.7013810   6.6798360  53.1255410  58.1355310   6.9118390  53.5512950
  71.2833690   3.4963320  54.6713450  72.1603870   3.5046720  55.0547450
  71.2954530   2.7594160  54.0605800  56.2203910   6.6268870  40.2825270
  55.3167990   6.8899070  40.1076930  56.7044530   6.8980040  39.5025230
  58.7631120   5.6834410  38.1919650  59.4722820   5.2617630  37.7066930
  58.0471060   5.7509640  37.5603000  71.5531270  17.8837290  43.8932800
  72.1490340  17.5621860  43.2167220  71.8109420  17.4109110  44.6846070
  59.4593840  14.3155200  54.0423430  59.4163470  13.9448110  54.9237890
  59.5904850  15.2532770  54.1825250  63.1599870  15.8714790  49.6433150
  62.9191230  16.1389350  48.7563670  64.1002510  16.0420520  49.6984010
  65.3654290   2.3347480  53.3989660  65.3043180   2.9269310  54.1485070
  66.3054670   2.2273440  53.2539920  59.2981870  17.2617450  51.1621210
  58.7042190  17.1302150  51.9011250  59.2905710  16.4255590  50.6963310
  69.6508870   2.7620550  50.7492960  69.3222230   1.9472310  50.3694690
  70.5991170   2.7190360  50.6258650  72.1043480  18.5332590  47.7230530
  71.6446450  19.2848400  47.3488550  71.4755940  17.8139060  47.6645330
  58.9294100  14.6275830  50.1129250  58.2028160  14.0081120  50.0455200
  58.9903250  15.0216440  49.2427330  62.5339200  16.8420830  46.8978660
  63.0504220  16.2308190  46.3726920  63.1836580  17.3449610  47.3889670
  65.2734700  17.7329320  47.7247640  65.5612510  17.4783620  46.8480650
  65.7857920  17.1806680  48.3153210  71.0432780   2.1742620  46.3493240
  71.4840870   2.1187720  45.5014840  70.7740370   3.0900630  46.4203420
  57.2124100  17.9450220  43.3226010  57.0446140  17.3120900  44.0207900
  56.3458610  18.1509620  42.9720200  57.8352120   1.7767000  40.8257870
  58.5931480   1.8895880  40.2521900  57.3729290   2.6136200  40.7801300
  64.3765930   3.8906270  43.8160180  63.5640440   3.5163160  43.4756060
  64.8807570   3.1351350  44.1181370  58.8186800  16.6383450  40.7676150
  58.2934420  17.0191480  40.0638110  58.7431380  17.2634220  41.4885860
  65.3407060  18.6545420  55.0915840  66.2674370  18.4189690  55.1351800
  65.3257490  19.4817420  54.6101870  61.4179770  18.5865830  39.6425400
  62.1498590  18.3025110  39.0949290  61.6773440  18.3479110  40.5324780
  60.5794560  14.7030560  39.6471730  59.9503440  15.1715660  40.1957560
  60.6942390  13.8579780  40.0817920  68.0344280   8.7536220  25.7972930
  67.9538330   7.8390830  25.5264640  67.6208700   9.2503290  25.0912640
  66.1662320  10.5315240  27.6782200  65.3904420  10.0515680  27.9680770
  66.8175250   9.8520890  27.5038360  60.1828150  10.8435050  28.5557960
  59.3513030  10.5883760  28.9554470  60.7909130  10.9145820  29.2915880
  70.1869750  14.9375430  26.4581330  69.7251280  14.1662670  26.7868500
  70.9995300  14.9641500  26.9633780  60.1629410  14.8775140  28.7515980
  60.4657450  13.9872880  28.5726200  60.9073000  15.4345360  28.5238230
  58.5920100   5.8036940  22.3400350  57.7036800   6.1452910  22.2380230
  58.8761290   5.6037260  21.4481180  56.5553110   8.4042590  28.2240050
  57.1269220   7.6364790  28.2243690  56.5554650   8.7031350  27.3146660
  66.4133060  17.2233440  26.0785320  65.7944500  17.6790940  25.5079760
  67.2684840  17.3784900  25.6775020  65.6071310  13.2072430  27.6852360
  65.5379590  12.2662370  27.5241490  66.3691170  13.2973840  28.2574930
  57.7977980   3.8126950  30.0108980  57.6180820   2.9152700  30.2911740
  57.3958060   4.3598820  30.6855930  66.6376480   6.0142810  27.9121290
  67.0141300   5.1414690  27.7994960  66.5395990   6.3501510  27.0211730
  60.7681490   4.3868440  23.3738730  60.8748240   5.2872170  23.6807490
  59.8573850   4.3386410  23.0833380  70.4200600   3.5093250  24.8449630
  71.2410220   3.0189820  24.8875110  70.4534680   4.0990910  25.5981470
  58.4164650   6.3087450  28.6191320  59.0974760   6.5725820  29.2378720
  58.1012700   5.4688320  28.9529330  62.6089220   7.3554810  27.7063910
  63.1167440   7.8535780  28.3468930  63.1402460   6.5790010  27.5303270
  67.2796410  12.1072680  23.4717230  66.6613680  12.5722130  22.9079950
  67.7919660  12.8000160  23.8886740  62.1428170  11.6348550  30.1500830
  61.8097550  12.2617470  30.7921900  62.3194850  12.1610430  29.3702500
  70.6562080   5.4493630  27.6177170  69.9517650   5.7378520  28.1980280
  71.0174240   6.2593740  27.2576730  60.5740650   3.7063330  29.9797780
  60.9157460   4.5505380  29.6851650  59.6356460   3.8547070  30.0963120
  61.3547270  13.6029350  31.9650010  61.9721270  14.2780430  31.6834460
  60.4940390  14.0117330  31.8737510  56.6479610  12.7929210  20.8456860
  56.2707590  13.2816310  20.1141760  56.9052680  13.4654490  21.4763390
  69.8083600  16.9112890  28.5949830  69.8210760  16.5075180  27.7272090
  69.2558820  17.6860180  28.4911260  71.1029020  13.6329110  23.6840000
  70.9925350  12.6903440  23.8089420  71.0997270  13.9944750  24.5702760
  69.2069040  11.8142730  29.9232440  69.6237830  11.6002840  29.0885900
  69.9308860  12.0715520  30.4941060  66.6449300   9.2594430  23.0402490
  65.7178580   9.1931810  23.2690960  66.7974120  10.1974560  22.9257730
  66.6318380   5.5311430  20.0369650  65.6922050   5.6925390  20.1222110
  66.9501640   6.2497110  19.4905640  70.6746590  10.8214730  23.5437740
  70.0559010  10.4834280  22.8964040  70.6571040  10.1774490  24.2516930
  70.1173150   6.9999270  30.9603550  69.7044330   7.8252980  31.2143540
  69.3849100   6.4144310  30.7679910  62.2505940   9.7859170  25.8222220
  61.8462940   9.0736420  25.3268120  62.3369060   9.4412410  26.7110260
  62.7187640  13.4726730  27.9861430  62.4215930  12.8672200  27.3069210
  63.6687460  13.5104040  27.8750790  60.9634560   6.5602380  29.6021260
  61.5149150   6.6697720  28.8274510  61.4778070   6.9339980  30.3176490
  70.8073250  17.0458600  31.6484530  70.3303810  17.8530790  31.4557140
  70.1235040  16.3936930  31.8010740  61.8106070  13.2108420  34.6369230
  60.9134600  13.4348390  34.8842630  61.8358940  13.3343360  33.6880630
  68.8511290  10.0601540  20.5510490  69.2904570   9.2223970  20.4048310
  69.5639710  10.6930940  20.6374630  60.6377290  10.0821740  33.2126600
  60.4985060  10.9544540  33.5814000  59.7558650   9.7394550  33.0674540
  66.9606670  14.9997610  24.5191730  67.4002580  15.7421940  24.1047120
  66.8993560  15.2424180  25.4430690  62.4357640  16.0243440  35.4211750
  62.4073070  16.4286390  34.5540180  62.2722610  15.0953800  35.2583350
  58.9510570   8.6804150  23.3228870  58.8308170   9.4066240  22.7110140
  58.6411460   7.9107060  22.8456780  56.5895940  11.8519290  29.1297510
  56.6676360  11.9868060  28.1853230  57.2037620  11.1435180  29.3225630
  57.8343570  13.5519480  25.5403690  57.4271650  13.6934070  24.6857290
  58.7256580  13.2679640  25.3374900  67.6522450  17.7011390  32.4470740
  68.1667120  17.6119400  33.2493170  66.8091530  18.0471090  32.7398650
  69.6276850  17.9866730  21.8754740  69.4677990  17.6969670  22.7736570
  69.4623560  17.2106860  21.3399970  62.1065230  17.7665260  23.6526360
  61.9307710  16.8500800  23.4394160  61.2520970  18.1252550  23.8924160
  69.3302980  15.4954290  20.4352740  68.6368140  15.4931580  19.7755020
  70.0725840  15.0713610  20.0046910  68.8952910  17.1217000  24.5101230
  69.3509860  16.3406380  24.8239850  69.2345430  17.8323820  25.0542410
  56.6455460  12.8933460  31.6691970  56.8086500  12.4238820  30.8511340
  57.1107910  12.3857020  32.3340810  61.4174230   2.0239220  26.7052540
  60.9742380   2.8048760  26.3737060  61.9759220   2.3469110  27.4123480
  65.7044040   4.8907740  32.3087860  65.2423410   5.0990760  33.1207800
  65.3022150   4.0767090  32.0058530  70.7048550   6.1116690  33.4384520
  69.8542140   5.8122440  33.7593590  70.5450340   6.3558700  32.5268340
  67.7998260   7.6118440  35.5383310  68.1251670   6.7782190  35.1985540
  68.5878590   8.1346960  35.6861640  63.4550130   2.5686550  28.5642140
  63.7522460   3.4749380  28.4834160  64.0035690   2.0805330  27.9501710
  61.2088450   7.1472790  24.4333790  60.9829370   6.9309960  25.3380410
  60.4280980   7.5801250  24.0879760  68.4386210   7.1536160  23.0324440
  67.8395100   7.8771960  22.8488060  68.9865820   7.0912940  22.2500890
  63.6487660   8.0458370  35.0994060  63.5531260   7.1053100  34.9494460
  64.4919640   8.2673440  34.7042130  67.0451080   5.7899700  25.0627720
  67.4380650   6.1071900  24.2496410  67.4067930   4.9111580  25.1772240
  58.7798200   4.4572040  33.2527840  58.3861590   5.3047250  33.4600620
  58.0916600   3.8198410  33.4436480  65.3543250   4.5407010  36.3224580
  64.6641570   4.3479210  36.9570670  66.0975550   4.8241650  36.8548880
  56.0815250   2.3800500  27.2857920  55.7928300   2.9503360  27.9982900
  56.8261010   1.9004950  27.6489150  56.2685480   6.3220620  18.4960640
  56.1860150   7.2651380  18.6375630  55.9168540   6.1795530  17.6172990
  67.6306220   8.3805450  29.1578500  66.8987340   8.8892260  29.5068600
  67.2330560   7.5635430  28.8567280  64.0683610   5.0559650  27.5630990
  64.0719670   4.6149600  26.7135530  64.9634730   5.3776980  27.6702810
  59.9185990   4.9386140  26.5225200  59.5786040   5.4161370  27.2792250
  59.1563310   4.4851260  26.1626300  64.1303760   6.0571730  20.5537750
  64.2516580   6.0158210  21.5023570  63.7452270   6.9195880  20.3984480
  68.0932130   3.8339130  28.5701440  68.1104870   4.2847780  29.4143290
  67.8447710   2.9344770  28.7834880  63.1425260   8.3672870  19.9521050
  62.5742160   7.9191120  19.3256960  63.8514260   8.7265650  19.4186200
  58.2194440  12.2684890  33.8287780  57.8349230  11.6278560  34.4270740
  58.5306630  12.9721010  34.3982510  64.3691580   9.1161430  29.3096400
  64.7361710   8.6420000  30.0557740  64.1796640   9.9903000  29.6504740
  57.2332070   3.8605120  25.4389870  56.9478990   3.4960790  26.2768490
  57.1710930   3.1285580  24.8253010  62.1590950   8.1570070  31.6280610
  61.8548020   9.0362050  31.8530970  63.1137410   8.2169860  31.6638050
  60.6872740  12.3631060  22.2247460  59.9135000  11.8228680  22.0646180
  61.4167370  11.8437670  21.8865220  71.4460720  11.3596420  28.0173850
  72.1659840  11.8551710  27.6269960  71.2442540  10.6814310  27.3727720
  66.9070660   2.7534380  22.1603240  66.0935270   2.2547550  22.0848550
  66.7132610   3.5932630  21.7439590  66.8279520  11.4305480  33.9042850
  66.7616830  10.5101150  33.6500440  66.1984660  11.5280920  34.6187490
  69.6219050   7.1254030  20.4565400  70.5098670   7.4371260  20.2816740
  69.5924140   6.2526280  20.0645980  60.7310140  12.0311440  25.8626270
  61.2488810  11.2279700  25.8083160  60.2794160  11.9690580  26.7043100
  65.6179640  13.2977720  21.1353570  65.9595340  14.0419950  20.6396890
  64.7892350  13.6108840  21.4978400  58.2154680   8.9972810  32.7751970
  57.8569620   9.6626660  33.3625310  57.9209240   8.1656360  33.1464590
  61.4167800   9.4557050  35.6591520  61.1167940   9.6014230  34.7619340
  62.1879040   8.8962340  35.5664910  66.7596250  14.2526050  33.6546650
  66.7740790  13.3207010  33.4365560  66.0521350  14.3385810  34.2936420
  68.5007050  12.6193560  26.4999080  68.8530870  12.0221690  25.8400450
  67.6169380  12.2937790  26.6707330  64.5870330  13.3791250  23.9069490
  65.2741460  13.9260460  24.2877080  63.8002750  13.9231980  23.9419100
  56.7262730   8.9964070  19.3986570  57.5957580   9.2788870  19.6822490
  56.2353050   9.8099940  19.2835380  63.8897540  10.3837280  23.5194850
  64.3460320  11.1942530  23.7455040  63.5385750  10.0660420  24.3513340
  66.1930150  15.8943620  30.7487150  66.8372370  16.1003000  31.4260570
  66.5559590  15.1332020  30.2958000  67.4662230  13.8975970  29.4664600
  68.1084460  13.1969130  29.5796770  67.9911580  14.6774410  29.2861490
  71.3117950  14.1824590  19.1903740  71.0855530  13.4655030  19.7828380
  70.9214150  13.9337030  18.3525490  69.2399850  14.6970870  32.6700660
  69.5756090  15.2837560  33.3478580  68.3200190  14.5663580  32.8998450
  57.0933980  18.2091450  19.9648200  57.4531620  18.8080790  19.3105470
  56.9526320  18.7551340  20.7383230  56.7903250   2.4866050  33.4524070
  56.0761770   2.6862970  34.0576680  57.2098290   1.7105620  33.8238870
  70.8934200  12.0996530  20.8517900  70.6055900  12.5609220  21.6395780
  71.6886370  11.6394300  21.1202120  57.0775840  16.4746310  34.4390600
  57.1866960  15.5341050  34.2985990  56.4256400  16.7401060  33.7904330
  65.0688430  14.7462200  35.8388720  64.7485300  14.0271440  36.3834410
  64.3946790  15.4217270  35.9124780  63.1102600  15.5922650  20.7821870
  63.1012700  16.3252340  20.1666380  62.1900960  15.3454230  20.8748830
  58.7109240  10.8137540  21.5268630  58.1037190  11.5536440  21.5363930
  59.1858590  10.9036900  20.7006830  68.2842030   4.9788360  31.2025520
  68.6522850   4.1583570  31.5305090  67.4240230   5.0390250  31.6181170
  71.6504060   3.9345300  22.0113080  71.0217220   4.0390970  21.2971310
  71.1555980   4.1542080  22.8006960  66.0962200  15.6550890  19.4447060
  66.1974180  15.4514880  18.5149040  65.1963940  15.4009170  19.6494840
  63.6188090   6.2131250  23.4270960  62.9104240   6.6817590  23.8684570
  63.9032570   5.5553260  24.0616150  65.2444020   7.6327950  31.4263490
  65.7429270   8.1073770  32.0915340  65.3866970   6.7091470  31.6333520
  67.6503520   2.9381910  24.8666750  67.5271300   2.9568040  23.9176260
  68.5988080   2.9860850  24.9865150  64.7380310  18.1737210  24.1394730
  64.9921810  18.1358600  23.2174100  63.7892790  18.0470540  24.1322980
  61.8223110   4.5216330  20.8021670  62.6713640   4.9586480  20.7361860
  61.4554380   4.8336590  21.6293730  70.7432890   9.0929090  25.7153240
  69.8023030   9.1079320  25.8900930  71.0576960   8.3065050  26.1613540
  60.7214530  10.7748690  19.2757200  61.4877800  10.6630050  19.8382630
  60.7989220  10.0786660  18.6233970  59.4161290   8.2073760  19.9590090
  59.4964880   7.2601270  20.0707490  60.3081040   8.5380640  20.0650750
  60.2176000  18.3569150  27.0624630  60.9538480  17.8084610  27.3333200
  60.6016920  19.2225160  26.9230620  57.1021480  14.4242720  22.9366140
  56.1761260  14.6663860  22.9271550  57.5677910  15.2516980  22.8150890
  59.2234280  17.5415220  36.2510210  60.0247010  17.8627270  36.6645610
  58.7086100  17.1810800  36.9730120  63.3278310  17.5299460  18.8850200
  64.1206920  17.8188290  18.4331990  62.8082660  17.0991630  18.2062680
  68.0598910  13.6495090  36.1985620  67.4537070  13.6726690  35.4581370
  67.7553020  12.9178130  36.7352870  69.4899280  17.3775380  34.8095030
  70.4421030  17.2933400  34.7595270  69.3427500  18.0417090  35.4828820
  72.3808480  16.7569590  20.3086940  72.0949990  16.3434730  19.4941120
  72.1828030  17.6857300  20.1887460  56.9432090  10.0288680  35.1946260
  57.4471110   9.4495960  35.7662490  56.2039510  10.3128910  35.7322630
  63.8455710  12.7502870  18.7492550  63.7406350  12.1355220  19.4753930
  63.6779930  12.2268760  17.9655560  63.9970030  11.4359670  34.7281780
  63.2315700  12.0044670  34.6436450  64.1785990  11.1435880  33.8350010
  67.0858440  11.8122900  19.3534540  66.5368540  12.2592200  19.9977280
  67.7077700  11.3072150  19.8772210  71.1393380  13.1665000  35.2856800
  71.8802850  13.5040760  34.7824260  70.3766060  13.3357060  34.7326570
  58.9755170   8.1718270  36.0896330  59.0160510   7.8732140  36.9981560
  59.8300670   8.5725880  35.9303850  62.7533560  10.7713820  21.2499840
  63.1749980  10.6053690  22.0931230  62.8784400   9.9614050  20.7554980
  60.9160980   6.7510370  34.0570820  60.3857440   6.2601320  33.4294160
  61.5849050   7.1794570  33.5228750  65.2661200   9.7951430  18.4976940
  65.7866860   9.0800450  18.1318090  65.9129600  10.4337300  18.7977450
  69.8139040  11.2179830  33.8212010  70.2280060  11.3724910  34.6702430
  68.8790040  11.3435050  33.9837790  70.2861210   8.5575990  35.8251160
  70.8681980   7.8028310  35.7371640  70.4622980   9.0883430  35.0482640
  61.4033280   3.7172740  34.1368110  61.3090150   3.0993490  33.4118980
  60.8230670   4.4439030  33.9098020  64.1694720   2.2745980  31.1695500
  63.7212020   2.2970240  30.3241050  63.5359920   1.8765000  31.7665800
  64.5754270  11.1700310  31.7907940  64.9942380  12.0133040  31.6184180
  63.6562900  11.3072350  31.5614720  66.9118170   8.9016490  33.1745780
  67.0314380   8.3057630  33.9140620  67.7712170   8.9386180  32.7547080
  69.2506070   9.4553680  31.7508290  68.7241290   9.9796300  31.1473430
  69.5937410  10.0881070  32.3818020  61.6492460   6.8447050  18.1958000
  61.4481520   5.9814410  18.5571340  61.4784510   6.7580410  17.2579600
  62.4261690  17.4753320  32.9065670  61.8882780  18.1999380  32.5874370
  62.6795650  16.9983660  32.1163010  63.6786940   5.4437840  34.4321600
  64.2686630   5.1353690  35.1199420  62.8607180   4.9717590  34.5881500
  68.4980370   5.0603650  34.6654620  67.8095890   4.3985190  34.6004610
  69.2186390   4.6141920  35.1103080  60.4475260   3.9447670  18.1835880
  60.7501160   3.9515100  17.2755030  61.1869850   3.5945530  18.6803540
  65.2823900  18.7104530  33.1652320  65.2082600  19.6139670  33.4724690
  64.3802740  18.3916430  33.1374390  63.6660190   2.8882290  19.1692080
  63.3182190   2.2106280  18.5894530  63.8672960   2.4271800  19.9835470
  65.8309230  17.8763040  20.7878680  66.7260020  18.2148010  20.8097440
  65.8626860  17.1542450  20.1602960  59.4705390  13.2490090  19.0165680
  59.9080260  13.7919760  19.6723260  59.9553120  12.4237040  19.0262020
  56.6851190  16.0379120  26.4685940  57.0154200  15.1700180  26.2364580
  57.1142190  16.2437640  27.2990900  61.2813110  14.3688130  24.1287910
  60.9808650  14.2453100  25.0291820  61.1750600  13.5096720  23.7203640
  57.1741400  16.9049710  29.2067570  56.7372390  17.0850510  30.0391720
  57.7419080  17.6624330  29.0649290  57.0065830   9.4169940  25.5656450
  56.3514670   9.1481580  24.9216150  57.8443780   9.3074420  25.1158430
  71.4955220  13.1318690  31.5921040  70.6815060  13.5615850  31.8546830
  71.9029420  13.7437100  30.9790090  69.9556270   4.2111230  19.7874940
  70.3741150   4.0242210  18.9471600  69.6492330   3.3590280  20.0977870
  58.0441760   9.8022510  30.1059790  58.4114800   9.7149910  30.9855810
  57.4752580   9.0389060  30.0066650  57.5957760   6.7131600  34.0118210
  56.7013810   6.6798360  34.3511920  58.1355310   6.9118390  34.7769460
  71.2833690   3.4963320  35.8969960  72.1603870   3.5046720  36.2803960
  71.2954530   2.7594160  35.2862310  56.2203910   6.6268870  21.5081780
  55.3167990   6.8899070  21.3333440  56.7044530   6.8980040  20.7281740
  58.7631120   5.6834410  19.4176160  59.4722820   5.2617630  18.9323440
  58.0471060   5.7509640  18.7859510  71.5531270  17.8837290  25.1189310
  72.1490340  17.5621860  24.4423730  71.8109420  17.4109110  25.9102580
  59.4593840  14.3155200  35.2679940  59.4163470  13.9448110  36.1494400
  59.5904850  15.2532770  35.4081760  63.1599870  15.8714790  30.8689660
  62.9191230  16.1389350  29.9820180  64.1002510  16.0420520  30.9240520
  65.3654290   2.3347480  34.6246170  65.3043180   2.9269310  35.3741580
  66.3054670   2.2273440  34.4796430  59.2981870  17.2617450  32.3877720
  58.7042190  17.1302150  33.1267760  59.2905710  16.4255590  31.9219820
  69.6508870   2.7620550  31.9749470  69.3222230   1.9472310  31.5951200
  70.5991170   2.7190360  31.8515160  72.1043480  18.5332590  28.9487040
  71.6446450  19.2848400  28.5745060  71.4755940  17.8139060  28.8901840
  58.9294100  14.6275830  31.3385760  58.2028160  14.0081120  31.2711710
  58.9903250  15.0216440  30.4683840  62.5339200  16.8420830  28.1235170
  63.0504220  16.2308190  27.5983430  63.1836580  17.3449610  28.6146180
  65.2734700  17.7329320  28.9504150  65.5612510  17.4783620  28.0737160
  65.7857920  17.1806680  29.5409720  71.0432780   2.1742620  27.5749750
  71.4840870   2.1187720  26.7271350  70.7740370   3.0900630  27.6459930
  57.2124100  17.9450220  24.5482520  57.0446140  17.3120900  25.2464410
  56.3458610  18.1509620  24.1976710  57.8352120   1.7767000  22.0514380
  58.5931480   1.8895880  21.4778410  57.3729290   2.6136200  22.0057810
  64.3765930   3.8906270  25.0416690  63.5640440   3.5163160  24.7012570
  64.8807570   3.1351350  25.3437880  58.8186800  16.6383450  21.9932660
  58.2934420  17.0191480  21.2894620  58.7431380  17.2634220  22.7142370
  65.3407060  18.6545420  36.3172350  66.2674370  18.4189690  36.3608310
  65.3257490  19.4817420  35.8358380  61.4179770  18.5865830  20.8681910
  62.1498590  18.3025110  20.3205800  61.6773440  18.3479110  21.7581290
  60.5794560  14.7030560  20.8728240  59.9503440  15.1715660  21.4214070
  60.6942390  13.8579780  21.3074430  68.0344280   8.7536220   7.0229440
  67.9538330   7.8390830   6.7521150  67.6208700   9.2503290   6.3169150
  66.1662320  10.5315240   8.9038710  65.3904420  10.0515680   9.1937280
  66.8175250   9.8520890   8.7294870  60.1828150  10.8435050   9.7814470
  59.3513030  10.5883760  10.1810980  60.7909130  10.9145820  10.5172390
  70.1869750  14.9375430   7.6837840  69.7251280  14.1662670   8.0125010
  70.9995300  14.9641500   8.1890290  60.1629410  14.8775140   9.9772490
  60.4657450  13.9872880   9.7982710  60.9073000  15.4345360   9.7494740
  58.5920100   5.8036940   3.5656860  57.7036800   6.1452910   3.4636740
  58.8761290   5.6037260   2.6737690  56.5553110   8.4042590   9.4496560
  57.1269220   7.6364790   9.4500200  56.5554650   8.7031350   8.5403170
  66.4133060  17.2233440   7.3041830  65.7944500  17.6790940   6.7336270
  67.2684840  17.3784900   6.9031530  65.6071310  13.2072430   8.9108870
  65.5379590  12.2662370   8.7498000  66.3691170  13.2973840   9.4831440
  57.7977980   3.8126950  11.2365490  57.6180820   2.9152700  11.5168250
  57.3958060   4.3598820  11.9112440  66.6376480   6.0142810   9.1377800
  67.0141300   5.1414690   9.0251470  66.5395990   6.3501510   8.2468240
  60.7681490   4.3868440   4.5995240  60.8748240   5.2872170   4.9064000
  59.8573850   4.3386410   4.3089890  70.4200600   3.5093250   6.0706140
  71.2410220   3.0189820   6.1131620  70.4534680   4.0990910   6.8237980
  58.4164650   6.3087450   9.8447830  59.0974760   6.5725820  10.4635230
  58.1012700   5.4688320  10.1785840  62.6089220   7.3554810   8.9320420
  63.1167440   7.8535780   9.5725440  63.1402460   6.5790010   8.7559780
  67.2796410  12.1072680   4.6973740  66.6613680  12.5722130   4.1336460
  67.7919660  12.8000160   5.1143250  62.1428170  11.6348550  11.3757340
  61.8097550  12.2617470  12.0178410  62.3194850  12.1610430  10.5959010
  70.6562080   5.4493630   8.8433680  69.9517650   5.7378520   9.4236790
  71.0174240   6.2593740   8.4833240  60.5740650   3.7063330  11.2054290
  60.9157460   4.5505380  10.9108160  59.6356460   3.8547070  11.3219630
  61.3547270  13.6029350  13.1906520  61.9721270  14.2780430  12.9090970
  60.4940390  14.0117330  13.0994020  56.6479610  12.7929210   2.0713370
  56.2707590  13.2816310   1.3398270  56.9052680  13.4654490   2.7019900
  69.8083600  16.9112890   9.8206340  69.8210760  16.5075180   8.9528600
  69.2558820  17.6860180   9.7167770  71.1029020  13.6329110   4.9096510
  70.9925350  12.6903440   5.0345930  71.0997270  13.9944750   5.7959270
  69.2069040  11.8142730  11.1488950  69.6237830  11.6002840  10.3142410
  69.9308860  12.0715520  11.7197570  66.6449300   9.2594430   4.2659000
  65.7178580   9.1931810   4.4947470  66.7974120  10.1974560   4.1514240
  70.6746590  10.8214730   4.7694250  70.0559010  10.4834280   4.1220550
  70.6571040  10.1774490   5.4773440  70.1173150   6.9999270  12.1860060
  69.7044330   7.8252980  12.4400050  69.3849100   6.4144310  11.9936420
  62.2505940   9.7859170   7.0478730  61.8462940   9.0736420   6.5524630
  62.3369060   9.4412410   7.9366770  62.7187640  13.4726730   9.2117940
  62.4215930  12.8672200   8.5325720  63.6687460  13.5104040   9.1007300
  60.9634560   6.5602380  10.8277770  61.5149150   6.6697720  10.0531020
  61.4778070   6.9339980  11.5433000  70.8073250  17.0458600  12.8741040
  70.3303810  17.8530790  12.6813650  70.1235040  16.3936930  13.0267250
  61.8106070  13.2108420  15.8625740  60.9134600  13.4348390  16.1099140
  61.8358940  13.3343360  14.9137140  68.8511290  10.0601540   1.7767000
  69.2904570   9.2223970   1.6304820  69.5639710  10.6930940   1.8631140
  60.6377290  10.0821740  14.4383110  60.4985060  10.9544540  14.8070510
  59.7558650   9.7394550  14.2931050  66.9606670  14.9997610   5.7448240
  67.4002580  15.7421940   5.3303630  66.8993560  15.2424180   6.6687200
  62.4357640  16.0243440  16.6468260  62.4073070  16.4286390  15.7796690
  62.2722610  15.0953800  16.4839860  58.9510570   8.6804150   4.5485380
  58.8308170   9.4066240   3.9366650  58.6411460   7.9107060   4.0713290
  56.5895940  11.8519290  10.3554020  56.6676360  11.9868060   9.4109740
  57.2037620  11.1435180  10.5482140  57.8343570  13.5519480   6.7660200
  57.4271650  13.6934070   5.9113800  58.7256580  13.2679640   6.5631410
  67.6522450  17.7011390  13.6727250  68.1667120  17.6119400  14.4749680
  66.8091530  18.0471090  13.9655160  69.6276850  17.9866730   3.1011250
  69.4677990  17.6969670   3.9993080  69.4623560  17.2106860   2.5656480
  62.1065230  17.7665260   4.8782870  61.9307710  16.8500800   4.6650670
  61.2520970  18.1252550   5.1180670  68.8952910  17.1217000   5.7357740
  69.3509860  16.3406380   6.0496360  69.2345430  17.8323820   6.2798920
  56.6455460  12.8933460  12.8948480  56.8086500  12.4238820  12.0767850
  57.1107910  12.3857020  13.5597320  61.4174230   2.0239220   7.9309050
  60.9742380   2.8048760   7.5993570  61.9759220   2.3469110   8.6379990
  65.7044040   4.8907740  13.5344370  65.2423410   5.0990760  14.3464310
  65.3022150   4.0767090  13.2315040  70.7048550   6.1116690  14.6641030
  69.8542140   5.8122440  14.9850100  70.5450340   6.3558700  13.7524850
  67.7998260   7.6118440  16.7639820  68.1251670   6.7782190  16.4242050
  68.5878590   8.1346960  16.9118150  63.4550130   2.5686550   9.7898650
  63.7522460   3.4749380   9.7090670  64.0035690   2.0805330   9.1758220
  61.2088450   7.1472790   5.6590300  60.9829370   6.9309960   6.5636920
  60.4280980   7.5801250   5.3136270  68.4386210   7.1536160   4.2580950
  67.8395100   7.8771960   4.0744570  68.9865820   7.0912940   3.4757400
  63.6487660   8.0458370  16.3250570  63.5531260   7.1053100  16.1750970
  64.4919640   8.2673440  15.9298640  67.0451080   5.7899700   6.2884230
  67.4380650   6.1071900   5.4752920  67.4067930   4.9111580   6.4028750
  58.7798200   4.4572040  14.4784350  58.3861590   5.3047250  14.6857130
  58.0916600   3.8198410  14.6692990  65.3543250   4.5407010  17.5481090
  64.6641570   4.3479210  18.1827180  66.0975550   4.8241650  18.0805390
  56.0815250   2.3800500   8.5114430  55.7928300   2.9503360   9.2239410
  56.8261010   1.9004950   8.8745660  67.6306220   8.3805450  10.3835010
  66.8987340   8.8892260  10.7325110  67.2330560   7.5635430  10.0823790
  64.0683610   5.0559650   8.7887500  64.0719670   4.6149600   7.9392040
  64.9634730   5.3776980   8.8959320  59.9185990   4.9386140   7.7481710
  59.5786040   5.4161370   8.5048760  59.1563310   4.4851260   7.3882810
  64.1303760   6.0571730   1.7794260  64.2516580   6.0158210   2.7280080
  63.7452270   6.9195880   1.6240990  68.0932130   3.8339130   9.7957950
  68.1104870   4.2847780  10.6399800  67.8447710   2.9344770  10.0091390
  58.2194440  12.2684890  15.0544290  57.8349230  11.6278560  15.6527250
  58.5306630  12.9721010  15.6239020  64.3691580   9.1161430  10.5352910
  64.7361710   8.6420000  11.2814250  64.1796640   9.9903000  10.8761250
  57.2332070   3.8605120   6.6646380  56.9478990   3.4960790   7.5025000
  57.1710930   3.1285580   6.0509520  62.1590950   8.1570070  12.8537120
  61.8548020   9.0362050  13.0787480  63.1137410   8.2169860  12.8894560
  60.6872740  12.3631060   3.4503970  59.9135000  11.8228680   3.2902690
  61.4167370  11.8437670   3.1121730  71.4460720  11.3596420   9.2430360
  72.1659840  11.8551710   8.8526470  71.2442540  10.6814310   8.5984230
  66.9070660   2.7534380   3.3859750  66.0935270   2.2547550   3.3105060
  66.7132610   3.5932630   2.9696100  66.8279520  11.4305480  15.1299360
  66.7616830  10.5101150  14.8756950  66.1984660  11.5280920  15.8444000
  60.7310140  12.0311440   7.0882780  61.2488810  11.2279700   7.0339670
  60.2794160  11.9690580   7.9299610  65.6179640  13.2977720   2.3610080
  65.9595340  14.0419950   1.8653400  64.7892350  13.6108840   2.7234910
  58.2154680   8.9972810  14.0008480  57.8569620   9.6626660  14.5881820
  57.9209240   8.1656360  14.3721100  61.4167800   9.4557050  16.8848030
  61.1167940   9.6014230  15.9875850  62.1879040   8.8962340  16.7921420
  66.7596250  14.2526050  14.8803160  66.7740790  13.3207010  14.6622070
  66.0521350  14.3385810  15.5192930  68.5007050  12.6193560   7.7255590
  68.8530870  12.0221690   7.0656960  67.6169380  12.2937790   7.8963840
  64.5870330  13.3791250   5.1326000  65.2741460  13.9260460   5.5133590
  63.8002750  13.9231980   5.1675610  63.8897540  10.3837280   4.7451360
  64.3460320  11.1942530   4.9711550  63.5385750  10.0660420   5.5769850
  66.1930150  15.8943620  11.9743660  66.8372370  16.1003000  12.6517080
  66.5559590  15.1332020  11.5214510  67.4662230  13.8975970  10.6921110
  68.1084460  13.1969130  10.8053280  67.9911580  14.6774410  10.5118000
  69.2399850  14.6970870  13.8957170  69.5756090  15.2837560  14.5735090
  68.3200190  14.5663580  14.1254960  56.7903250   2.4866050  14.6780580
  56.0761770   2.6862970  15.2833190  57.2098290   1.7105620  15.0495380
  70.8934200  12.0996530   2.0774410  70.6055900  12.5609220   2.8652290
  71.6886370  11.6394300   2.3458630  57.0775840  16.4746310  15.6647110
  57.1866960  15.5341050  15.5242500  56.4256400  16.7401060  15.0160840
  65.0688430  14.7462200  17.0645230  64.7485300  14.0271440  17.6090920
  64.3946790  15.4217270  17.1381290  63.1102600  15.5922650   2.0078380
  63.1012700  16.3252340   1.3922890  62.1900960  15.3454230   2.1005340
  58.7109240  10.8137540   2.7525140  58.1037190  11.5536440   2.7620440
  59.1858590  10.9036900   1.9263340  68.2842030   4.9788360  12.4282030
  68.6522850   4.1583570  12.7561600  67.4240230   5.0390250  12.8437680
  71.6504060   3.9345300   3.2369590  71.0217220   4.0390970   2.5227820
  71.1555980   4.1542080   4.0263470  63.6188090   6.2131250   4.6527470
  62.9104240   6.6817590   5.0941080  63.9032570   5.5553260   5.2872660
  65.2444020   7.6327950  12.6520000  65.7429270   8.1073770  13.3171850
  65.3866970   6.7091470  12.8590030  67.6503520   2.9381910   6.0923260
  67.5271300   2.9568040   5.1432770  68.5988080   2.9860850   6.2121660
  64.7380310  18.1737210   5.3651240  64.9921810  18.1358600   4.4430610
  63.7892790  18.0470540   5.3579490  61.8223110   4.5216330   2.0278180
  62.6713640   4.9586480   1.9618370  61.4554380   4.8336590   2.8550240
  70.7432890   9.0929090   6.9409750  69.8023030   9.1079320   7.1157440
  71.0576960   8.3065050   7.3870050  60.2176000  18.3569150   8.2881140
  60.9538480  17.8084610   8.5589710  60.6016920  19.2225160   8.1487130
  57.1021480  14.4242720   4.1622650  56.1761260  14.6663860   4.1528060
  57.5677910  15.2516980   4.0407400  59.2234280  17.5415220  17.4766720
  60.0247010  17.8627270  17.8902120  58.7086100  17.1810800  18.1986630
  68.0598910  13.6495090  17.4242130  67.4537070  13.6726690  16.6837880
  67.7553020  12.9178130  17.9609380  69.4899280  17.3775380  16.0351540
  70.4421030  17.2933400  15.9851780  69.3427500  18.0417090  16.7085330
  56.9432090  10.0288680  16.4202770  57.4471110   9.4495960  16.9919000
  56.2039510  10.3128910  16.9579140  63.9970030  11.4359670  15.9538290
  63.2315700  12.0044670  15.8692960  64.1785990  11.1435880  15.0606520
  71.1393380  13.1665000  16.5113310  71.8802850  13.5040760  16.0080770
  70.3766060  13.3357060  15.9583080  58.9755170   8.1718270  17.3152840
  59.0160510   7.8732140  18.2238070  59.8300670   8.5725880  17.1560360
  62.7533560  10.7713820   2.4756350  63.1749980  10.6053690   3.3187740
  62.8784400   9.9614050   1.9811490  60.9160980   6.7510370  15.2827330
  60.3857440   6.2601320  14.6550670  61.5849050   7.1794570  14.7485260
  69.8139040  11.2179830  15.0468520  70.2280060  11.3724910  15.8958940
  68.8790040  11.3435050  15.2094300  70.2861210   8.5575990  17.0507670
  70.8681980   7.8028310  16.9628150  70.4622980   9.0883430  16.2739150
  61.4033280   3.7172740  15.3624620  61.3090150   3.0993490  14.6375490
  60.8230670   4.4439030  15.1354530  64.1694720   2.2745980  12.3952010
  63.7212020   2.2970240  11.5497560  63.5359920   1.8765000  12.9922310
  64.5754270  11.1700310  13.0164450  64.9942380  12.0133040  12.8440690
  63.6562900  11.3072350  12.7871230  66.9118170   8.9016490  14.4002290
  67.0314380   8.3057630  15.1397130  67.7712170   8.9386180  13.9803590
  69.2506070   9.4553680  12.9764800  68.7241290   9.9796300  12.3729940
  69.5937410  10.0881070  13.6074530  62.4261690  17.4753320  14.1322180
  61.8882780  18.1999380  13.8130880  62.6795650  16.9983660  13.3419520
  63.6786940   5.4437840  15.6578110  64.2686630   5.1353690  16.3455930
  62.8607180   4.9717590  15.8138010  68.4980370   5.0603650  15.8911130
  67.8095890   4.3985190  15.8261120  69.2186390   4.6141920  16.3359590
  65.2823900  18.7104530  14.3908830  65.2082600  19.6139670  14.6981200
  64.3802740  18.3916430  14.3630900  65.8309230  17.8763040   2.0135190
  66.7260020  18.2148010   2.0353950  65.8626860  17.1542450   1.3859470
  56.6851190  16.0379120   7.6942450  57.0154200  15.1700180   7.4621090
  57.1142190  16.2437640   8.5247410  61.2813110  14.3688130   5.3544420
  60.9808650  14.2453100   6.2548330  61.1750600  13.5096720   4.9460150
  57.1741400  16.9049710  10.4324080  56.7372390  17.0850510  11.2648230
  57.7419080  17.6624330  10.2905800  57.0065830   9.4169940   6.7912960
  56.3514670   9.1481580   6.1472660  57.8443780   9.3074420   6.3414940
  71.4955220  13.1318690  12.8177550  70.6815060  13.5615850  13.0803340
  71.9029420  13.7437100  12.2046600  58.0441760   9.8022510  11.3316300
  58.4114800   9.7149910  12.2112320  57.4752580   9.0389060  11.2323160
  57.5957760   6.7131600  15.2374720  56.7013810   6.6798360  15.5768430
  58.1355310   6.9118390  16.0025970  71.2833690   3.4963320  17.1226470
  72.1603870   3.5046720  17.5060470  71.2954530   2.7594160  16.5118820
  56.2203910   6.6268870   2.7338290  55.3167990   6.8899070   2.5589950
  56.7044530   6.8980040   1.9538250  71.5531270  17.8837290   6.3445820
  72.1490340  17.5621860   5.6680240  71.8109420  17.4109110   7.1359090
  59.4593840  14.3155200  16.4936450  59.4163470  13.9448110  17.3750910
  59.5904850  15.2532770  16.6338270  63.1599870  15.8714790  12.0946170
  62.9191230  16.1389350  11.2076690  64.1002510  16.0420520  12.1497030
  65.3654290   2.3347480  15.8502680  65.3043180   2.9269310  16.5998090
  66.3054670   2.2273440  15.7052940  59.2981870  17.2617450  13.6134230
  58.7042190  17.1302150  14.3524270  59.2905710  16.4255590  13.1476330
  69.6508870   2.7620550  13.2005980  69.3222230   1.9472310  12.8207710
  70.5991170   2.7190360  13.0771670  72.1043480  18.5332590  10.1743550
  71.6446450  19.2848400   9.8001570  71.4755940  17.8139060  10.1158350
  58.9294100  14.6275830  12.5642270  58.2028160  14.0081120  12.4968220
  58.9903250  15.0216440  11.6940350  62.5339200  16.8420830   9.3491680
  63.0504220  16.2308190   8.8239940  63.1836580  17.3449610   9.8402690
  65.2734700  17.7329320  10.1760660  65.5612510  17.4783620   9.2993670
  65.7857920  17.1806680  10.7666230  71.0432780   2.1742620   8.8006260
  71.4840870   2.1187720   7.9527860  70.7740370   3.0900630   8.8716440
  57.2124100  17.9450220   5.7739030  57.0446140  17.3120900   6.4720920
  56.3458610  18.1509620   5.4233220  57.8352120   1.7767000   3.2770890
  58.5931480   1.8895880   2.7034920  57.3729290   2.6136200   3.2314320
  64.3765930   3.8906270   6.2673200  63.5640440   3.5163160   5.9269080
  64.8807570   3.1351350   6.5694390  58.8186800  16.6383450   3.2189170
  58.2934420  17.0191480   2.5151130  58.7431380  17.2634220   3.9398880
  65.3407060  18.6545420  17.5428860  66.2674370  18.4189690  17.5864820
  65.3257490  19.4817420  17.0614890  61.4179770  18.5865830   2.0938420
  62.1498590  18.3025110   1.5462310  61.6773440  18.3479110   2.9837800
  60.5794560  14.7030560   2.0984750  59.9503440  15.1715660   2.6470580
  60.6942390  13.8579780   2.5330940  49.2600790  65.0766690  63.3459910
  49.1794840  64.1621300  63.0751620  48.8465210  65.5733760  62.6399620
  47.3918830  66.8545710  65.2269180  46.6160930  66.3746150  65.5167750
  48.0431760  66.1751360  65.0525340  41.4084660  67.1665520  66.1044940
  40.5769540  66.9114230  66.5041450  42.0165640  67.2376290  66.8402860
  51.4126260  71.2605900  64.0068310  50.9507790  70.4893140  64.3355480
  52.2251810  71.2871970  64.5120760  41.3885920  71.2005610  66.3002960
  41.6913960  70.3103350  66.1213180  42.1329510  71.7575830  66.0725210
  39.8176610  62.1267410  59.8887330  38.9293310  62.4683380  59.7867210
  40.1017800  61.9267730  58.9968160  37.7809620  64.7273060  65.7727030
  38.3525730  63.9595260  65.7730670  37.7811160  65.0261820  64.8633640
  46.8327820  69.5302900  65.2339340  46.7636100  68.5892840  65.0728470
  47.5947680  69.6204310  65.8061910  39.0234490  60.1357420  67.5595960
  38.8437330  59.2383170  67.8398720  38.6214570  60.6829290  68.2342910
  47.8632990  62.3373280  65.4608270  48.2397810  61.4645160  65.3481940
  47.7652500  62.6731980  64.5698710  41.9938000  60.7098910  60.9225710
  42.1004750  61.6102640  61.2294470  41.0830360  60.6616880  60.6320360
  51.6457110  59.8323720  62.3936610  52.4666730  59.3420290  62.4362090
  51.6791190  60.4221380  63.1468450  39.6421160  62.6317920  66.1678300
  40.3231270  62.8956290  66.7865700  39.3269210  61.7918790  66.5016310
  43.8345730  63.6785280  65.2550890  44.3423950  64.1766250  65.8955910
  44.3658970  62.9020480  65.0790250  55.9356660  61.8490470  68.9580240
  55.2308830  62.2372180  68.4395350  56.2014580  62.5440760  69.5601170
  42.1181830  58.3183840  69.5214310  42.1200270  58.8356230  68.7160210
  41.2886140  57.8414020  69.4984240  48.5052920  68.4303150  61.0204210
  47.8870190  68.8952600  60.4566930  49.0176170  69.1230630  61.4373720
  43.3684680  67.9579020  67.6987810  43.0354060  68.5847940  68.3408880
  43.5451360  68.4840900  66.9189480  51.8818590  61.7724100  65.1664150
  51.1774160  62.0608990  65.7467260  52.2430750  62.5824210  64.8063710
  41.7997160  60.0293800  67.5284760  42.1413970  60.8735850  67.2338630
  40.8612970  60.1777540  67.6450100  42.5803780  69.9259820  69.5136990
  43.1977780  70.6010900  69.2321440  41.7196900  70.3347800  69.4224490
  37.8736120  69.1159680  58.3943840  37.4964100  69.6046780  57.6628740
  38.1309190  69.7884960  59.0250370  53.4981370  71.3899230  67.4291630
  52.8144890  72.0598340  67.4208300  54.0375660  71.5879880  66.6636490
  54.9505510  61.2178890  65.5573360  54.0030420  61.2517870  65.6888790
  55.2755500  62.0317840  65.9422720  45.4825050  57.5176070  63.8529350
  45.7900030  56.9622960  63.1364850  44.5525750  57.6520530  63.6702340
  52.3285530  69.9559580  61.2326980  52.2181860  69.0133910  61.3576400
  52.3253780  70.3175220  62.1189740  50.4325550  68.1373200  67.4719420
  50.8494340  67.9233310  66.6372880  51.1565370  68.3945990  68.0428040
  47.8705810  65.5824900  60.5889470  46.9435090  65.5162280  60.8177940
  48.0230630  66.5205030  60.4744710  47.8574890  61.8541900  57.5856630
  46.9178560  62.0155860  57.6709090  48.1758150  62.5727580  57.0392620
  54.3787650  66.5360420  67.5635660  53.5506280  66.6053510  67.0885790
  54.9738130  67.1214730  67.0951490  51.9003100  67.1445200  61.0924720
  51.2815520  66.8064750  60.4451020  51.8827550  66.5004960  61.8003910
  51.3429660  63.3229740  68.5090530  50.9300840  64.1483450  68.7630520
  50.6105610  62.7374780  68.3166890  43.4762450  66.1089640  63.3709200
  43.0719450  65.3966890  62.8755100  43.5625570  65.7642880  64.2597240
  43.9444150  69.7957200  65.5348410  43.6472440  69.1902670  64.8556190
  44.8943970  69.8334510  65.4237770  42.1891070  62.8832850  67.1508240
  42.7405660  62.9928190  66.3761490  42.7034580  63.2570450  67.8663470
  50.0767800  66.3832010  58.0997470  50.5161080  65.5454440  57.9535290
  50.7896220  67.0161410  58.1861610  41.8633800  66.4052210  70.7613580
  41.7241570  67.2775010  71.1300980  40.9815160  66.0625020  70.6161520
  48.1863180  71.3228080  62.0678710  48.6259090  72.0652410  61.6534100
  48.1250070  71.5654650  62.9917670  53.6584940  57.6374820  56.4138510
  53.3457600  57.7301650  57.3137580  54.4197410  58.2155850  56.3635940
  40.1767080  65.0034620  60.8715850  40.0564680  65.7296710  60.2597120
  39.8667970  64.2337530  60.3943760  37.8152450  68.1749760  66.6784490
  37.8932870  68.3098530  65.7340210  38.4294130  67.4665650  66.8712610
  39.0600080  69.8749950  63.0890670  38.6528160  70.0164540  62.2344270
  39.9513090  69.5910110  62.8861880  55.0162220  70.3213860  71.4262910
  55.1425280  70.0825740  70.5080090  55.0583600  69.4898400  71.8984990
  50.5559490  71.8184760  57.9839720  49.8624650  71.8162050  57.3242000
  51.2982350  71.3944080  57.5533890  37.8711970  69.2163930  69.2178950
  38.0343010  68.7469290  68.3998320  38.3364420  68.7087490  69.8827790
  42.6430740  58.3469690  64.2539520  42.1998890  59.1279230  63.9224040
  43.2015730  58.6699580  64.9610460  46.9300550  61.2138210  69.8574840
  46.4679920  61.4221230  70.6694780  46.5278660  60.3997560  69.5545510
  51.9305060  62.4347160  70.9871500  51.0798650  62.1352910  71.3080570
  51.7706850  62.6789170  70.0755320  45.7589560  57.9680390  59.1345350
  45.1343740  57.9640260  59.8598660  45.6719680  57.1011350  58.7381320
  44.6806640  58.8917020  66.1129120  44.9778970  59.7979850  66.0321140
  45.2292200  58.4035800  65.4988690  42.4344960  63.4703260  61.9820770
  42.2085880  63.2540430  62.8867390  41.6537490  63.9031720  61.6366740
  49.6642720  63.4766630  60.5811420  49.0651610  64.2002430  60.3975040
  50.2122330  63.4143410  59.7987870  48.2707590  62.1130170  62.6114700
  48.6637160  62.4302370  61.7983390  48.6324440  61.2342050  62.7259220
  40.0054710  60.7802510  70.8014820  39.6118100  61.6277720  71.0087600
  39.3173110  60.1428880  70.9923460  37.3071760  58.7030970  64.8344900
  37.0184810  59.2733830  65.5469880  38.0517520  58.2235420  65.1976130
  37.4941990  62.6451090  56.0447620  37.4116660  63.5881850  56.1862610
  37.1425050  62.5026000  55.1659970  48.8562730  64.7035920  66.7065480
  48.1243850  65.2122730  67.0555580  48.4587070  63.8865900  66.4054260
  45.2940120  61.3790120  65.1117970  45.2976180  60.9380070  64.2622510
  46.1891240  61.7007450  65.2189790  41.1442500  61.2616610  64.0712180
  40.8042550  61.7391840  64.8279230  40.3819820  60.8081730  63.7113280
  45.3560270  62.3802200  58.1024730  45.4773090  62.3388680  59.0510550
  44.9708780  63.2426350  57.9471460  49.3188640  60.1569600  66.1188420
  49.3361380  60.6078250  66.9630270  49.0704220  59.2575240  66.3321860
  44.3681770  64.6903340  57.5008030  43.7998670  64.2421590  56.8743940
  45.0770770  65.0496120  56.9673180  39.4450950  68.5915360  71.3774760
  39.0605740  67.9509030  71.9757720  39.7563140  69.2951480  71.9469490
  45.5948090  65.4391900  66.8583380  45.9618220  64.9650470  67.6044720
  45.4053150  66.3133470  67.1991720  38.4588580  60.1835590  62.9876850
  38.1735500  59.8191260  63.8255470  38.3967440  59.4516050  62.3739990
  43.3847460  64.4800540  69.1767590  43.0804530  65.3592520  69.4017950
  44.3393920  64.5400330  69.2125030  41.9129250  68.6861530  59.7734440
  41.1391510  68.1459150  59.6133160  42.6423880  68.1668140  59.4352200
  52.6717230  67.6826890  65.5660830  53.3916350  68.1782180  65.1756940
  52.4699050  67.0044780  64.9214700  48.1327170  59.0764850  59.7090220
  47.3191780  58.5778020  59.6335530  47.9389120  59.9163100  59.2926570
  48.0536030  67.7535950  71.4529830  47.9873340  66.8331620  71.1987420
  47.4241170  67.8511390  72.1674470  50.8475560  63.4484500  58.0052380
  51.7355180  63.7601730  57.8303720  50.8180650  62.5756750  57.6132960
  41.9566650  68.3541910  63.4113250  42.4745320  67.5510170  63.3570140
  41.5050670  68.2921050  64.2530080  46.8436150  69.6208190  58.6840550
  47.1851850  70.3650420  58.1883870  46.0148860  69.9339310  59.0465380
  39.4411190  65.3203280  70.3238950  39.0826130  65.9857130  70.9112290
  39.1465750  64.4886830  70.6951570  47.9852760  70.5756520  71.2033630
  47.9997300  69.6437480  70.9852540  47.2777860  70.6616280  71.8423400
  53.1189830  64.7596340  57.4732240  53.0353550  65.1910560  56.6228680
  53.8384020  65.2194690  57.9059060  54.1963970  67.2163860  70.5502210
  53.4712160  67.8092640  70.3531600  54.7239430  67.2087400  69.7515580
  54.1477080  71.6138600  60.2014370  53.5053240  70.9594220  60.4758090
  53.7607740  72.0193690  59.4255040  49.7263560  68.9424030  64.0486060
  50.0787380  68.3452160  63.3887430  48.8425890  68.6168260  64.2194310
  45.8126840  69.7021720  61.4556470  46.4997970  70.2490930  61.8364060
  45.0259260  70.2462450  61.4906080  37.9519240  65.3194540  56.9473550
  38.8214090  65.6019340  57.2309470  37.4609560  66.1330410  56.8322360
  45.1154050  66.7067750  61.0681830  45.5716830  67.5173000  61.2942020
  44.7642260  66.3890890  61.9000320  47.4186660  72.2174090  68.2974130
  48.0628880  72.4233470  68.9747550  47.7816100  71.4562490  67.8444980
  41.0165830  57.0505400  61.5404350  40.8880460  57.0423300  62.4889270
  40.1927850  57.3888490  61.1895360  48.6918740  70.2206440  67.0151580
  49.3340970  69.5199600  67.1283750  49.2168090  71.0004880  66.8348470
  52.5374460  70.5055060  56.7390720  52.3112040  69.7885500  57.3315360
  52.1470660  70.2567500  55.9012470  50.4656360  71.0201340  70.2187640
  50.8012600  71.6068030  70.8965560  49.5456700  70.8894050  70.4485430
  38.0159760  58.8096520  71.0011050  37.3018280  59.0093440  71.6063660
  38.4354800  58.0336090  71.3725850  52.1190710  68.4227000  58.4004880
  51.8312410  68.8839690  59.1882760  52.9142880  67.9624770  58.6689100
  38.3032350  72.7976780  71.9877580  38.4123470  71.8571520  71.8472970
  37.6512910  73.0631530  71.3391310  44.3359110  71.9153120  58.3308850
  44.3269210  72.6482810  57.7153360  43.4157470  71.6684700  58.4235810
  39.9365750  67.1368010  59.0755610  39.3293700  67.8766910  59.0850910
  40.4115100  67.2267370  58.2493810  49.5098540  61.3018830  68.7512500
  49.8779360  60.4814040  69.0792070  48.6496740  61.3620720  69.1668150
  52.8760570  60.2575770  59.5600060  52.2473730  60.3621440  58.8458290
  52.3812490  60.4772550  60.3493940  47.3218710  71.9781360  56.9934040
  47.4230690  71.7745350  56.0636020  46.4220450  71.7239640  57.1981820
  44.8444600  62.5361720  60.9757940  44.1360750  63.0048060  61.4171550
  45.1289080  61.8783730  61.6103130  46.4700530  63.9558420  68.9750470
  46.9685780  64.4304240  69.6402320  46.6123480  63.0321940  69.1820500
  48.8760030  59.2612380  62.4153730  48.7527810  59.2798510  61.4663240
  49.8244590  59.3091320  62.5352130  43.0479620  60.8446800  58.3508650
  43.8970150  61.2816950  58.2848840  42.6810890  61.1567060  59.1780710
  53.6767390  60.1726380  69.8178860  53.1740990  60.9131780  70.1572670
  54.4924050  60.5610380  69.5015650  51.9689400  65.4159560  63.2640220
  51.0279540  65.4309790  63.4387910  52.2833470  64.6295520  63.7100520
  41.9471040  67.0979160  56.8244180  42.7134310  66.9860520  57.3869610
  42.0245730  66.4017130  56.1720950  40.6417800  64.5304230  57.5077070
  40.7221390  63.5831740  57.6194470  41.5337550  64.8611110  57.6137730
  53.9714980  72.5868410  64.9394480  54.0962400  73.4099580  65.4118290
  54.8380540  72.3759140  64.5918630  38.3277990  70.7473190  60.4853120
  37.4017770  70.9894330  60.4758530  38.7934420  71.5747450  60.3637870
  45.0712220  69.0733340  56.2979530  44.9662860  68.4585690  57.0240910
  44.9036440  68.5499230  55.5142540  48.3114950  68.1353370  56.9021520
  47.7625050  68.5822670  57.5464260  48.9334210  67.6302620  57.4259190
  43.9790070  67.0944290  58.7986820  44.4006490  66.9284160  59.6418210
  44.1040910  66.2844520  58.3041960  42.1417490  63.0740840  71.6057800
  41.6113950  62.5831790  70.9781140  42.8105560  63.5025040  71.0715730
  46.4917710  66.1181900  56.0463920  47.0123370  65.4030920  55.6805070
  47.1386110  66.7567770  56.3464430  51.0395550  67.5410300  71.3698990
  51.4536570  67.6955380  72.2189410  50.1046550  67.6665520  71.5324770
  42.6289790  60.0403210  71.6855090  42.5346660  59.4223960  70.9605960
  42.0487180  60.7669500  71.4585000  45.3951230  58.5976450  68.7182480
  44.9468530  58.6200710  67.8728030  44.7616430  58.1995470  69.3152780
  45.8010780  67.4930780  69.3394920  46.2198890  68.3363510  69.1671160
  44.8819410  67.6302820  69.1101700  48.1374680  65.2246960  70.7232760
  48.2570890  64.6288100  71.4627600  48.9968680  65.2616650  70.3034060
  50.4762580  65.7784150  69.2995270  49.9497800  66.3026770  68.6960410
  50.8193920  66.4111540  69.9305000  42.8748970  63.1677520  55.7444980
  42.6738030  62.3044880  56.1058320  42.7041020  63.0810880  54.8066580
  50.3537280  57.9785750  58.2731860  50.6339570  57.1353650  58.6291280
  49.5803010  58.2108860  58.7870610  41.6731770  60.2678140  55.7322860
  41.9757670  60.2745570  54.8242010  42.4126360  59.9176000  56.2290520
  44.8916700  59.2112760  56.7179060  44.5438700  58.5336750  56.1381510
  45.0929470  58.7502270  57.5322450  40.6961900  69.5720560  56.5652660
  41.1336770  70.1150230  57.2210240  41.1809630  68.7467510  56.5749000
  37.9107700  72.3609590  64.0172920  38.2410710  71.4930650  63.7851560
  38.3398700  72.5668110  64.8477880  42.5069620  70.6918600  61.6774890
  42.2065160  70.5683570  62.5778800  42.4007110  69.8327190  61.2690620
  54.0360090  72.7297180  71.0431860  53.4362080  72.7889740  70.2995780
  54.1653990  71.7902160  71.1728710  55.2761540  70.4715000  56.3801570
  54.4454500  70.5391650  56.8508800  55.4533370  71.3619120  56.0768430
  54.7318000  67.2162480  58.8835770  55.4936910  67.7859130  58.9895460
  54.7472370  66.6489680  59.6544080  38.2322340  65.7400410  63.1143430
  37.5771180  65.4712050  62.4703130  39.0700290  65.6304890  62.6645410
  55.7377970  68.0712580  63.7277700  56.1086800  67.2879900  63.3213670
  56.3779900  68.7601680  63.5495000  52.7211730  69.4549160  69.1408020
  51.9071570  69.8846320  69.4033810  53.1285930  70.0667570  68.5277070
  54.7837170  67.5096850  56.0408290  55.0586010  68.4175730  55.9127510
  54.5947910  67.4459380  56.9770280  51.1812780  60.5341700  57.3361920
  51.5997660  60.3472680  56.4958580  50.8748840  59.6820750  57.6464850
  54.6802510  65.4465840  61.0337720  54.3046110  64.6793770  60.6019010
  53.9505630  65.8288540  61.5212650  39.2698270  66.1252980  67.6546770
  39.6371310  66.0380380  68.5342790  38.7009090  65.3619530  67.5553630
  54.0702130  64.5937360  70.6677240  53.8388220  64.3650110  69.7675190
  54.3306680  65.5136910  70.6222130  37.4460420  62.9499340  59.0568760
  36.5424500  63.2129540  58.8820420  37.9301040  63.2210510  58.2768720
  53.9553470  63.6723330  64.3344960  54.4790950  63.1785980  63.7035130
  54.5412890  63.8073690  65.0792530  54.1343190  63.7563200  67.8564510
  53.1845900  63.7226740  67.9709500  54.3156200  64.6663310  67.6214280
  39.9887630  62.0064880  56.9663140  40.6979330  61.5848100  56.4810420
  39.2727570  62.0740110  56.3346490  39.6361790  58.0604210  56.0065790
  40.3589920  58.6013150  56.3247010  39.9086310  57.7867630  55.1307330
  53.4453440  62.9296680  60.2737370  53.9412560  62.6967550  61.0586250
  53.2469510  62.0908520  59.8575010  39.3253980  57.3110400  65.9088410
  39.9730170  56.7607780  65.4683570  39.7455820  57.5653550  66.7304220
  54.8740600  61.5657630  62.8075050  54.7639880  61.4113670  63.7457320
  55.6348190  61.0378570  62.5650460  53.2206320  57.5051760  69.2658050
  53.8578540  58.1185900  69.6317240  53.3681210  57.5412420  68.3207280
  55.7630870  59.3965550  56.0481190  56.6880180  59.2646730  55.8399480
  55.7406660  59.4758370  57.0017640  55.8369360  60.1676210  58.6737900
  55.0420860  60.1021330  59.2030810  56.0412640  61.1026850  58.6623250
  39.0785980  57.4666070  68.6513730  38.7300800  57.9229890  69.4171910
  38.7473680  56.5723200  68.7336160  44.3856380  72.1945260  68.4176640
  44.1447740  72.4619820  67.5307160  45.3259020  72.3650990  68.4727500
  40.5238380  73.5847920  69.9364700  39.9298700  73.4532620  70.6754740
  40.5162220  72.7486060  69.4706800  49.9693400  56.8780150  68.1394730
  49.0953240  57.2115260  67.9367660  49.8604150  56.4053330  68.9646600
  50.8765380  59.0851020  69.5236450  50.5478740  58.2702780  69.1438180
  51.8247680  59.0420830  69.4002140  40.1550610  70.9506300  68.8872740
  39.4284670  70.3311590  68.8198690  40.2159760  71.3446910  68.0170820
  43.7595710  73.1651300  65.6722150  44.2760730  72.5538660  65.1470410
  44.4093090  73.6680080  66.1633160  47.7168220  57.7949990  67.0787640
  46.9340010  58.2695490  67.3584400  47.4231150  56.8904820  66.9700820
  52.2689290  58.4973090  65.1236730  52.7097380  58.4418190  64.2758330
  51.9996880  59.4131100  65.1946910  54.1327860  58.1288330  63.1345550
  54.0716260  57.1849550  62.9876570  54.9119890  58.2368420  63.6799010
  39.0608630  58.0997470  59.6001360  39.8187990  58.2126350  59.0265390
  38.5985800  58.9366670  59.5544790  45.6022440  60.2136740  62.5903670
  44.7896950  59.8393630  62.2499550  46.1064080  59.4581820  62.8924860
  50.1047420  56.8779190  63.8286740  50.7076790  57.4499400  64.3035260
  49.3640410  57.4418630  63.6060640  53.2482020  57.2800750  59.1027020
  53.4432650  58.1784200  59.3694450  52.4611890  57.0487830  59.5959970
  40.0443310  72.9613920  59.5419640  39.5190930  73.3421950  58.8381600
  39.9687890  73.5864690  60.2629350  41.4333780  58.6261520  58.1403330
  41.9626540  57.8391320  58.0111280  42.0662100  59.3052710  58.3738860
  43.6271620  58.3636660  61.1948720  42.9974360  57.6623970  61.3618850
  43.0876760  59.1240790  60.9781880  41.8051070  71.0261030  58.4215220
  41.1759950  71.4946130  58.9701050  41.9198900  70.1810250  58.8561410
  49.2600790  65.0766690  44.5716420  49.1794840  64.1621300  44.3008130
  48.8465210  65.5733760  43.8656130  47.3918830  66.8545710  46.4525690
  46.6160930  66.3746150  46.7424260  48.0431760  66.1751360  46.2781850
  41.4084660  67.1665520  47.3301450  40.5769540  66.9114230  47.7297960
  42.0165640  67.2376290  48.0659370  51.4126260  71.2605900  45.2324820
  50.9507790  70.4893140  45.5611990  52.2251810  71.2871970  45.7377270
  41.3885920  71.2005610  47.5259470  41.6913960  70.3103350  47.3469690
  42.1329510  71.7575830  47.2981720  39.8176610  62.1267410  41.1143840
  38.9293310  62.4683380  41.0123720  40.1017800  61.9267730  40.2224670
  37.7809620  64.7273060  46.9983540  38.3525730  63.9595260  46.9987180
  37.7811160  65.0261820  46.0890150  46.8327820  69.5302900  46.4595850
  46.7636100  68.5892840  46.2984980  47.5947680  69.6204310  47.0318420
  39.0234490  60.1357420  48.7852470  38.8437330  59.2383170  49.0655230
  38.6214570  60.6829290  49.4599420  47.8632990  62.3373280  46.6864780
  48.2397810  61.4645160  46.5738450  47.7652500  62.6731980  45.7955220
  41.9938000  60.7098910  42.1482220  42.1004750  61.6102640  42.4550980
  41.0830360  60.6616880  41.8576870  51.6457110  59.8323720  43.6193120
  52.4666730  59.3420290  43.6618600  51.6791190  60.4221380  44.3724960
  39.6421160  62.6317920  47.3934810  40.3231270  62.8956290  48.0122210
  39.3269210  61.7918790  47.7272820  43.8345730  63.6785280  46.4807400
  44.3423950  64.1766250  47.1212420  44.3658970  62.9020480  46.3046760
  55.9356660  61.8490470  50.1836750  55.2308830  62.2372180  49.6651860
  56.2014580  62.5440760  50.7857680  42.1181830  58.3183840  50.7470820
  42.1200270  58.8356230  49.9416720  41.2886140  57.8414020  50.7240750
  48.5052920  68.4303150  42.2460720  47.8870190  68.8952600  41.6823440
  49.0176170  69.1230630  42.6630230  43.3684680  67.9579020  48.9244320
  43.0354060  68.5847940  49.5665390  43.5451360  68.4840900  48.1445990
  51.8818590  61.7724100  46.3920660  51.1774160  62.0608990  46.9723770
  52.2430750  62.5824210  46.0320220  41.7997160  60.0293800  48.7541270
  42.1413970  60.8735850  48.4595140  40.8612970  60.1777540  48.8706610
  42.5803780  69.9259820  50.7393500  43.1977780  70.6010900  50.4577950
  41.7196900  70.3347800  50.6481000  37.8736120  69.1159680  39.6200350
  37.4964100  69.6046780  38.8885250  38.1309190  69.7884960  40.2506880
  53.4981370  71.3899230  48.6548140  52.8144890  72.0598340  48.6464810
  54.0375660  71.5879880  47.8893000  54.9505510  61.2178890  46.7829870
  54.0030420  61.2517870  46.9145300  55.2755500  62.0317840  47.1679230
  45.4825050  57.5176070  45.0785860  45.7900030  56.9622960  44.3621360
  44.5525750  57.6520530  44.8958850  52.3285530  69.9559580  42.4583490
  52.2181860  69.0133910  42.5832910  52.3253780  70.3175220  43.3446250
  50.4325550  68.1373200  48.6975930  50.8494340  67.9233310  47.8629390
  51.1565370  68.3945990  49.2684550  47.8705810  65.5824900  41.8145980
  46.9435090  65.5162280  42.0434450  48.0230630  66.5205030  41.7001220
  47.8574890  61.8541900  38.8113140  46.9178560  62.0155860  38.8965600
  48.1758150  62.5727580  38.2649130  54.3787650  66.5360420  48.7892170
  53.5506280  66.6053510  48.3142300  54.9738130  67.1214730  48.3208000
  51.9003100  67.1445200  42.3181230  51.2815520  66.8064750  41.6707530
  51.8827550  66.5004960  43.0260420  51.3429660  63.3229740  49.7347040
  50.9300840  64.1483450  49.9887030  50.6105610  62.7374780  49.5423400
  43.4762450  66.1089640  44.5965710  43.0719450  65.3966890  44.1011610
  43.5625570  65.7642880  45.4853750  43.9444150  69.7957200  46.7604920
  43.6472440  69.1902670  46.0812700  44.8943970  69.8334510  46.6494280
  42.1891070  62.8832850  48.3764750  42.7405660  62.9928190  47.6018000
  42.7034580  63.2570450  49.0919980  43.0362580  69.5338890  53.4112720
  42.1391110  69.7578860  53.6586120  43.0615450  69.6573830  52.4624120
  50.0767800  66.3832010  39.3253980  50.5161080  65.5454440  39.1791800
  50.7896220  67.0161410  39.4118120  41.8633800  66.4052210  51.9870090
  41.7241570  67.2775010  52.3557490  40.9815160  66.0625020  51.8418030
  48.1863180  71.3228080  43.2935220  48.6259090  72.0652410  42.8790610
  48.1250070  71.5654650  44.2174180  43.6614150  72.3473910  54.1955240
  43.6329580  72.7516860  53.3283670  43.4979120  71.4184270  54.0326840
  53.6584940  57.6374820  37.6395020  53.3457600  57.7301650  38.5394090
  54.4197410  58.2155850  37.5892450  40.1767080  65.0034620  42.0972360
  40.0564680  65.7296710  41.4853630  39.8667970  64.2337530  41.6200270
  55.6128970  73.1301010  55.4919410  56.0888690  73.6083900  56.1708490
  56.2336130  73.0618500  54.7664910  37.8152450  68.1749760  47.9041000
  37.8932870  68.3098530  46.9596720  38.4294130  67.4665650  48.0969120
  39.0600080  69.8749950  44.3147180  38.6528160  70.0164540  43.4600780
  39.9513090  69.5910110  44.1118390  55.0162220  70.3213860  52.6519420
  55.1425280  70.0825740  51.7336600  55.0583600  69.4898400  53.1241500
  50.5559490  71.8184760  39.2096230  49.8624650  71.8162050  38.5498510
  51.2982350  71.3944080  38.7790400  54.8686230  62.3746320  53.6169160
  54.2530500  62.8825990  53.0884620  54.5482650  61.4744650  53.5595100
  37.8711970  69.2163930  50.4435460  38.0343010  68.7469290  49.6254830
  38.3364420  68.7087490  51.1084300  42.6430740  58.3469690  45.4796030
  42.1998890  59.1279230  45.1480550  43.2015730  58.6699580  46.1866970
  46.9300550  61.2138210  51.0831350  46.4679920  61.4221230  51.8951290
  46.5278660  60.3997560  50.7802020  51.9305060  62.4347160  52.2128010
  51.0798650  62.1352910  52.5337080  51.7706850  62.6789170  51.3011830
  49.0254770  63.9348910  54.3126800  49.3508180  63.1012660  53.9729030
  49.8135100  64.4577430  54.4605130  45.7589560  57.9680390  40.3601860
  45.1343740  57.9640260  41.0855170  45.6719680  57.1011350  39.9637830
  44.6806640  58.8917020  47.3385630  44.9778970  59.7979850  47.2577650
  45.2292200  58.4035800  46.7245200  42.4344960  63.4703260  43.2077280
  42.2085880  63.2540430  44.1123900  41.6537490  63.9031720  42.8623250
  49.6642720  63.4766630  41.8067930  49.0651610  64.2002430  41.6231550
  50.2122330  63.4143410  41.0244380  44.8744170  64.3688840  53.8737550
  44.7787770  63.4283570  53.7237950  45.7176150  64.5903910  53.4785620
  48.2707590  62.1130170  43.8371210  48.6637160  62.4302370  43.0239900
  48.6324440  61.2342050  43.9515730  40.0054710  60.7802510  52.0271330
  39.6118100  61.6277720  52.2344110  39.3173110  60.1428880  52.2179970
  46.5799760  60.8637480  55.0968070  45.8898080  60.6709680  55.7314160
  47.3232060  61.1472120  55.6292370  37.3071760  58.7030970  46.0601410
  37.0184810  59.2733830  46.7726390  38.0517520  58.2235420  46.4232640
  37.4941990  62.6451090  37.2704130  37.4116660  63.5881850  37.4119120
  37.1425050  62.5026000  36.3916480  48.8562730  64.7035920  47.9321990
  48.1243850  65.2122730  48.2812090  48.4587070  63.8865900  47.6310770
  45.2940120  61.3790120  46.3374480  45.2976180  60.9380070  45.4879020
  46.1891240  61.7007450  46.4446300  41.1442500  61.2616610  45.2968690
  40.8042550  61.7391840  46.0535740  40.3819820  60.8081730  44.9369790
  45.3560270  62.3802200  39.3281240  45.4773090  62.3388680  40.2767060
  44.9708780  63.2426350  39.1727970  49.3188640  60.1569600  47.3444930
  49.3361380  60.6078250  48.1886780  49.0704220  59.2575240  47.5578370
  44.3681770  64.6903340  38.7264540  43.7998670  64.2421590  38.1000450
  45.0770770  65.0496120  38.1929690  52.7459390  57.5701780  53.1831310
  53.0705160  56.8391440  53.7089290  52.7815900  57.2515420  52.2812300
  39.4450950  68.5915360  52.6031270  39.0605740  67.9509030  53.2014230
  39.7563140  69.2951480  53.1726000  45.5948090  65.4391900  48.0839890
  45.9618220  64.9650470  48.8301230  45.4053150  66.3133470  48.4248230
  38.4588580  60.1835590  44.2133360  38.1735500  59.8191260  45.0511980
  38.3967440  59.4516050  43.5996500  43.3847460  64.4800540  50.4024100
  43.0804530  65.3592520  50.6274460  44.3393920  64.5400330  50.4381540
  41.9129250  68.6861530  40.9990950  41.1391510  68.1459150  40.8389670
  42.6423880  68.1668140  40.6608710  52.6717230  67.6826890  46.7917340
  53.3916350  68.1782180  46.4013450  52.4699050  67.0044780  46.1471210
  48.1327170  59.0764850  40.9346730  47.3191780  58.5778020  40.8592040
  47.9389120  59.9163100  40.5183080  48.0536030  67.7535950  52.6786340
  47.9873340  66.8331620  52.4243930  47.4241170  67.8511390  53.3930980
  50.8475560  63.4484500  39.2308890  51.7355180  63.7601730  39.0560230
  50.8180650  62.5756750  38.8389470  41.9566650  68.3541910  44.6369760
  42.4745320  67.5510170  44.5826650  41.5050670  68.2921050  45.4786590
  46.8436150  69.6208190  39.9097060  47.1851850  70.3650420  39.4140380
  46.0148860  69.9339310  40.2721890  39.4411190  65.3203280  51.5495460
  39.0826130  65.9857130  52.1368800  39.1465750  64.4886830  51.9208080
  42.6424310  65.7787520  54.4335010  42.3424450  65.9244700  53.5362830
  43.4135550  65.2192810  54.3408400  47.9852760  70.5756520  52.4290140
  47.9997300  69.6437480  52.2109050  47.2777860  70.6616280  53.0679910
  53.1189830  64.7596340  38.6988750  53.0353550  65.1910560  37.8485190
  53.8384020  65.2194690  39.1315570  54.1963970  67.2163860  51.7758720
  53.4712160  67.8092640  51.5788110  54.7239430  67.2087400  50.9772090
  54.1477080  71.6138600  41.4270880  53.5053240  70.9594220  41.7014600
  53.7607740  72.0193690  40.6511550  49.7263560  68.9424030  45.2742570
  50.0787380  68.3452160  44.6143940  48.8425890  68.6168260  45.4450820
  45.8126840  69.7021720  42.6812980  46.4997970  70.2490930  43.0620570
  45.0259260  70.2462450  42.7162590  37.9519240  65.3194540  38.1730060
  38.8214090  65.6019340  38.4565980  37.4609560  66.1330410  38.0578870
  45.1154050  66.7067750  42.2938340  45.5716830  67.5173000  42.5198530
  44.7642260  66.3890890  43.1256830  47.4186660  72.2174090  49.5230640
  48.0628880  72.4233470  50.2004060  47.7816100  71.4562490  49.0701490
  41.0165830  57.0505400  42.7660860  40.8880460  57.0423300  43.7145780
  40.1927850  57.3888490  42.4151870  48.6918740  70.2206440  48.2408090
  49.3340970  69.5199600  48.3540260  49.2168090  71.0004880  48.0604980
  52.5374460  70.5055060  37.9647230  52.3112040  69.7885500  38.5571870
  52.1470660  70.2567500  37.1268980  50.4656360  71.0201340  51.4444150
  50.8012600  71.6068030  52.1222070  49.5456700  70.8894050  51.6741940
  38.0159760  58.8096520  52.2267560  37.3018280  59.0093440  52.8320170
  38.4354800  58.0336090  52.5982360  52.1190710  68.4227000  39.6261390
  51.8312410  68.8839690  40.4139270  52.9142880  67.9624770  39.8945610
  38.3032350  72.7976780  53.2134090  38.4123470  71.8571520  53.0729480
  37.6512910  73.0631530  52.5647820  46.2944940  71.0692670  54.6132210
  45.9741810  70.3501910  55.1577900  45.6203300  71.7447740  54.6868270
  44.3359110  71.9153120  39.5565360  44.3269210  72.6482810  38.9409870
  43.4157470  71.6684700  39.6492320  39.9365750  67.1368010  40.3012120
  39.3293700  67.8766910  40.3107420  40.4115100  67.2267370  39.4750320
  49.5098540  61.3018830  49.9769010  49.8779360  60.4814040  50.3048580
  48.6496740  61.3620720  50.3924660  52.8760570  60.2575770  40.7856570
  52.2473730  60.3621440  40.0714800  52.3812490  60.4772550  41.5750450
  47.3218710  71.9781360  38.2190550  47.4230690  71.7745350  37.2892530
  46.4220450  71.7239640  38.4238330  44.8444600  62.5361720  42.2014450
  44.1360750  63.0048060  42.6428060  45.1289080  61.8783730  42.8359640
  46.4700530  63.9558420  50.2006980  46.9685780  64.4304240  50.8658830
  46.6123480  63.0321940  50.4077010  48.8760030  59.2612380  43.6410240
  48.7527810  59.2798510  42.6919750  49.8244590  59.3091320  43.7608640
  43.0479620  60.8446800  39.5765160  43.8970150  61.2816950  39.5105350
  42.6810890  61.1567060  40.4037220  53.6767390  60.1726380  51.0435370
  53.1740990  60.9131780  51.3829180  54.4924050  60.5610380  50.7272160
  51.9689400  65.4159560  44.4896730  51.0279540  65.4309790  44.6644420
  52.2833470  64.6295520  44.9357030  41.9471040  67.0979160  38.0500690
  42.7134310  66.9860520  38.6126120  42.0245730  66.4017130  37.3977460
  40.6417800  64.5304230  38.7333580  40.7221390  63.5831740  38.8450980
  41.5337550  64.8611110  38.8394240  53.9714980  72.5868410  46.1650990
  54.0962400  73.4099580  46.6374800  54.8380540  72.3759140  45.8175140
  38.3277990  70.7473190  41.7109630  37.4017770  70.9894330  41.7015040
  38.7934420  71.5747450  41.5894380  49.2855420  69.9725560  54.9729110
  48.6793580  69.9957160  54.2324860  48.9809530  69.2408600  55.5096360
  38.1688600  66.3519150  53.9689750  38.6727620  65.7726430  54.5405980
  37.4296020  66.6359380  54.5066120  45.0712220  69.0733340  37.5236040
  44.9662860  68.4585690  38.2497420  44.9036440  68.5499230  36.7399050
  45.2226540  67.7590140  53.5025270  44.4572210  68.3275140  53.4179940
  45.4042500  67.4666350  52.6093500  48.3114950  68.1353370  38.1278030
  47.7625050  68.5822670  38.7720770  48.9334210  67.6302620  38.6515700
  52.3649890  69.4895470  54.0600290  53.1059360  69.8271230  53.5567750
  51.6022570  69.6587530  53.5070060  40.2011680  64.4948740  54.8639820
  40.2417020  64.1962610  55.7725050  41.0557180  64.8956350  54.7047340
  43.9790070  67.0944290  40.0243330  44.4006490  66.9284160  40.8674720
  44.1040910  66.2844520  39.5298470  42.1417490  63.0740840  52.8314310
  41.6113950  62.5831790  52.2037650  42.8105560  63.5025040  52.2972240
  46.4917710  66.1181900  37.2720430  47.0123370  65.4030920  36.9061580
  47.1386110  66.7567770  37.5720940  51.0395550  67.5410300  52.5955500
  51.4536570  67.6955380  53.4445920  50.1046550  67.6665520  52.7581280
  51.5117720  64.8806460  54.5994650  52.0938490  64.1258780  54.5115130
  51.6879490  65.4113900  53.8226130  42.6289790  60.0403210  52.9111600
  42.5346660  59.4223960  52.1862470  42.0487180  60.7669500  52.6841510
  45.3951230  58.5976450  49.9438990  44.9468530  58.6200710  49.0984540
  44.7616430  58.1995470  50.5409290  45.8010780  67.4930780  50.5651430
  46.2198890  68.3363510  50.3927670  44.8819410  67.6302820  50.3358210
  48.1374680  65.2246960  51.9489270  48.2570890  64.6288100  52.6884110
  48.9968680  65.2616650  51.5290570  50.4762580  65.7784150  50.5251780
  49.9497800  66.3026770  49.9216920  50.8193920  66.4111540  51.1561510
  42.8748970  63.1677520  36.9701490  42.6738030  62.3044880  37.3314830
  42.7041020  63.0810880  36.0323090  44.9043450  61.7668310  53.2065090
  45.4943140  61.4584160  53.8942910  44.0863690  61.2948060  53.3624990
  49.7236880  61.3834120  53.4398110  49.0352400  60.7215660  53.3748100
  50.4442900  60.9372390  53.8846570  50.3537280  57.9785750  39.4988370
  50.6339570  57.1353650  39.8547790  49.5803010  58.2108860  40.0127120
  41.6731770  60.2678140  36.9579370  41.9757670  60.2745570  36.0498520
  42.4126360  59.9176000  37.4547030  44.8916700  59.2112760  37.9435570
  44.5438700  58.5336750  37.3638020  45.0929470  58.7502270  38.7578960
  40.6961900  69.5720560  37.7909170  41.1336770  70.1150230  38.4466750
  41.1809630  68.7467510  37.8005510  37.9107700  72.3609590  45.2429430
  38.2410710  71.4930650  45.0108070  38.3398700  72.5668110  46.0734390
  42.5069620  70.6918600  42.9031400  42.2065160  70.5683570  43.8035310
  42.4007110  69.8327190  42.4947130  54.0360090  72.7297180  52.2688370
  53.4362080  72.7889740  51.5252290  54.1653990  71.7902160  52.3985220
  55.2761540  70.4715000  37.6058080  54.4454500  70.5391650  38.0765310
  55.4533370  71.3619120  37.3024940  54.7318000  67.2162480  40.1092280
  55.4936910  67.7859130  40.2151970  54.7472370  66.6489680  40.8800590
  38.2322340  65.7400410  44.3399940  37.5771180  65.4712050  43.6959640
  39.0700290  65.6304890  43.8901920  55.7377970  68.0712580  44.9534210
  56.1086800  67.2879900  44.5470180  56.3779900  68.7601680  44.7751510
  52.7211730  69.4549160  50.3664530  51.9071570  69.8846320  50.6290320
  53.1285930  70.0667570  49.7533580  54.7837170  67.5096850  37.2664800
  55.0586010  68.4175730  37.1384020  54.5947910  67.4459380  38.2026790
  51.1812780  60.5341700  38.5618430  51.5997660  60.3472680  37.7215090
  50.8748840  59.6820750  38.8721360  54.6802510  65.4465840  42.2594230
  54.3046110  64.6793770  41.8275520  53.9505630  65.8288540  42.7469160
  39.2698270  66.1252980  48.8803280  39.6371310  66.0380380  49.7599300
  38.7009090  65.3619530  48.7810140  54.0702130  64.5937360  51.8933750
  53.8388220  64.3650110  50.9931700  54.3306680  65.5136910  51.8478640
  38.8214270  63.0362070  52.7861700  37.9270320  63.0028830  53.1255410
  39.3611820  63.2348860  53.5512950  52.5090200  59.8193790  54.6713450
  53.3860380  59.8277190  55.0547450  52.5211040  59.0824630  54.0605800
  37.4460420  62.9499340  40.2825270  36.5424500  63.2129540  40.1076930
  37.9301040  63.2210510  39.5025230  53.9553470  63.6723330  45.5601470
  54.4790950  63.1785980  44.9291640  54.5412890  63.8073690  46.3049040
  54.1343190  63.7563200  49.0821020  53.1845900  63.7226740  49.1966010
  54.3156200  64.6663310  48.8470790  39.9887630  62.0064880  38.1919650
  40.6979330  61.5848100  37.7066930  39.2727570  62.0740110  37.5603000
  39.6361790  58.0604210  37.2322300  40.3589920  58.6013150  37.5503520
  39.9086310  57.7867630  36.3563840  53.4453440  62.9296680  41.4993880
  53.9412560  62.6967550  42.2842760  53.2469510  62.0908520  41.0831520
  39.3253980  57.3110400  47.1344920  39.9730170  56.7607780  46.6940080
  39.7455820  57.5653550  47.9560730  54.8740600  61.5657630  44.0331560
  54.7639880  61.4113670  44.9713830  55.6348190  61.0378570  43.7906970
  53.2206320  57.5051760  50.4914560  53.8578540  58.1185900  50.8573750
  53.3681210  57.5412420  49.5463790  55.7630870  59.3965550  37.2737700
  56.6880180  59.2646730  37.0655990  55.7406660  59.4758370  38.2274150
  55.8369360  60.1676210  39.8994410  55.0420860  60.1021330  40.4287320
  56.0412640  61.1026850  39.8879760  39.0785980  57.4666070  49.8770240
  38.7300800  57.9229890  50.6428420  38.7473680  56.5723200  49.9592670
  40.6850350  70.6385670  54.0423430  40.6419980  70.2678580  54.9237890
  40.8161360  71.5763240  54.1825250  44.3856380  72.1945260  49.6433150
  44.1447740  72.4619820  48.7563670  45.3259020  72.3650990  49.6984010
  46.5910800  58.6577950  53.3989660  46.5299690  59.2499780  54.1485070
  47.5311180  58.5503910  53.2539920  49.2285360  58.3148010  53.0381950
  49.8425770  58.6327300  52.3763030  49.7734920  57.8296600  53.6577810
  39.7506620  56.9942270  53.1521010  40.2989610  56.8130320  52.3887120
  39.8161930  56.2036380  53.6877320  40.5238380  73.5847920  51.1621210
  39.9298700  73.4532620  51.9011250  40.5162220  72.7486060  50.6963310
  49.9693400  56.8780150  49.3651240  49.0953240  57.2115260  49.1624170
  49.8604150  56.4053330  50.1903110  50.8765380  59.0851020  50.7492960
  50.5478740  58.2702780  50.3694690  51.8247680  59.0420830  50.6258650
  40.1550610  70.9506300  50.1129250  39.4284670  70.3311590  50.0455200
  40.2159760  71.3446910  49.2427330  43.7595710  73.1651300  46.8978660
  44.2760730  72.5538660  46.3726920  44.4093090  73.6680080  47.3889670
  47.7168220  57.7949990  48.3044150  46.9340010  58.2695490  48.5840910
  47.4231150  56.8904820  48.1957330  52.2689290  58.4973090  46.3493240
  52.7097380  58.4418190  45.5014840  51.9996880  59.4131100  46.4203420
  54.1327860  58.1288330  44.3602060  54.0716260  57.1849550  44.2133080
  54.9119890  58.2368420  44.9055520  39.0608630  58.0997470  40.8257870
  39.8187990  58.2126350  40.2521900  38.5985800  58.9366670  40.7801300
  45.6022440  60.2136740  43.8160180  44.7896950  59.8393630  43.4756060
  46.1064080  59.4581820  44.1181370  50.1047420  56.8779190  45.0543250
  50.7076790  57.4499400  45.5291770  49.3640410  57.4418630  44.8317150
  53.2482020  57.2800750  40.3283530  53.4432650  58.1784200  40.5950960
  52.4611890  57.0487830  40.8216480  40.0443310  72.9613920  40.7676150
  39.5190930  73.3421950  40.0638110  39.9687890  73.5864690  41.4885860
  41.4333780  58.6261520  39.3659840  41.9626540  57.8391320  39.2367790
  42.0662100  59.3052710  39.5995370  43.6271620  58.3636660  42.4205230
  42.9974360  57.6623970  42.5875360  43.0876760  59.1240790  42.2038390
  43.7527180  57.6420640  54.8557720  43.4711450  58.1454240  54.0918540
  44.1346880  56.8442390  54.4899850  41.8051070  71.0261030  39.6471730
  41.1759950  71.4946130  40.1957560  41.9198900  70.1810250  40.0817920
  50.3542640  57.0574220  55.4338190  50.2408090  57.3768830  56.3289710
  51.1712380  57.4586730  55.1375470  49.2600790  65.0766690  25.7972930
  49.1794840  64.1621300  25.5264640  48.8465210  65.5733760  25.0912640
  47.3918830  66.8545710  27.6782200  46.6160930  66.3746150  27.9680770
  48.0431760  66.1751360  27.5038360  41.4084660  67.1665520  28.5557960
  40.5769540  66.9114230  28.9554470  42.0165640  67.2376290  29.2915880
  51.4126260  71.2605900  26.4581330  50.9507790  70.4893140  26.7868500
  52.2251810  71.2871970  26.9633780  41.3885920  71.2005610  28.7515980
  41.6913960  70.3103350  28.5726200  42.1329510  71.7575830  28.5238230
  39.8176610  62.1267410  22.3400350  38.9293310  62.4683380  22.2380230
  40.1017800  61.9267730  21.4481180  37.7809620  64.7273060  28.2240050
  38.3525730  63.9595260  28.2243690  37.7811160  65.0261820  27.3146660
  46.8327820  69.5302900  27.6852360  46.7636100  68.5892840  27.5241490
  47.5947680  69.6204310  28.2574930  39.0234490  60.1357420  30.0108980
  38.8437330  59.2383170  30.2911740  38.6214570  60.6829290  30.6855930
  47.8632990  62.3373280  27.9121290  48.2397810  61.4645160  27.7994960
  47.7652500  62.6731980  27.0211730  41.9938000  60.7098910  23.3738730
  42.1004750  61.6102640  23.6807490  41.0830360  60.6616880  23.0833380
  51.6457110  59.8323720  24.8449630  52.4666730  59.3420290  24.8875110
  51.6791190  60.4221380  25.5981470  39.6421160  62.6317920  28.6191320
  40.3231270  62.8956290  29.2378720  39.3269210  61.7918790  28.9529330
  43.8345730  63.6785280  27.7063910  44.3423950  64.1766250  28.3468930
  44.3658970  62.9020480  27.5303270  55.9356660  61.8490470  31.4093260
  55.2308830  62.2372180  30.8908370  56.2014580  62.5440760  32.0114190
  42.1181830  58.3183840  31.9727330  42.1200270  58.8356230  31.1673230
  41.2886140  57.8414020  31.9497260  48.5052920  68.4303150  23.4717230
  47.8870190  68.8952600  22.9079950  49.0176170  69.1230630  23.8886740
  43.3684680  67.9579020  30.1500830  43.0354060  68.5847940  30.7921900
  43.5451360  68.4840900  29.3702500  51.8818590  61.7724100  27.6177170
  51.1774160  62.0608990  28.1980280  52.2430750  62.5824210  27.2576730
  41.7997160  60.0293800  29.9797780  42.1413970  60.8735850  29.6851650
  40.8612970  60.1777540  30.0963120  42.5803780  69.9259820  31.9650010
  43.1977780  70.6010900  31.6834460  41.7196900  70.3347800  31.8737510
  37.8736120  69.1159680  20.8456860  37.4964100  69.6046780  20.1141760
  38.1309190  69.7884960  21.4763390  53.4981370  71.3899230  29.8804650
  52.8144890  72.0598340  29.8721320  54.0375660  71.5879880  29.1149510
  54.9505510  61.2178890  28.0086380  54.0030420  61.2517870  28.1401810
  55.2755500  62.0317840  28.3935740  45.4825050  57.5176070  26.3042370
  45.7900030  56.9622960  25.5877870  44.5525750  57.6520530  26.1215360
  52.3285530  69.9559580  23.6840000  52.2181860  69.0133910  23.8089420
  52.3253780  70.3175220  24.5702760  50.4325550  68.1373200  29.9232440
  50.8494340  67.9233310  29.0885900  51.1565370  68.3945990  30.4941060
  47.8705810  65.5824900  23.0402490  46.9435090  65.5162280  23.2690960
  48.0230630  66.5205030  22.9257730  47.8574890  61.8541900  20.0369650
  46.9178560  62.0155860  20.1222110  48.1758150  62.5727580  19.4905640
  54.3787650  66.5360420  30.0148680  53.5506280  66.6053510  29.5398810
  54.9738130  67.1214730  29.5464510  51.9003100  67.1445200  23.5437740
  51.2815520  66.8064750  22.8964040  51.8827550  66.5004960  24.2516930
  51.3429660  63.3229740  30.9603550  50.9300840  64.1483450  31.2143540
  50.6105610  62.7374780  30.7679910  43.4762450  66.1089640  25.8222220
  43.0719450  65.3966890  25.3268120  43.5625570  65.7642880  26.7110260
  43.9444150  69.7957200  27.9861430  43.6472440  69.1902670  27.3069210
  44.8943970  69.8334510  27.8750790  42.1891070  62.8832850  29.6021260
  42.7405660  62.9928190  28.8274510  42.7034580  63.2570450  30.3176490
  43.0362580  69.5338890  34.6369230  42.1391110  69.7578860  34.8842630
  43.0615450  69.6573830  33.6880630  50.0767800  66.3832010  20.5510490
  50.5161080  65.5454440  20.4048310  50.7896220  67.0161410  20.6374630
  41.8633800  66.4052210  33.2126600  41.7241570  67.2775010  33.5814000
  40.9815160  66.0625020  33.0674540  48.1863180  71.3228080  24.5191730
  48.6259090  72.0652410  24.1047120  48.1250070  71.5654650  25.4430690
  43.6614150  72.3473910  35.4211750  43.6329580  72.7516860  34.5540180
  43.4979120  71.4184270  35.2583350  53.6584940  57.6374820  18.8651530
  53.3457600  57.7301650  19.7650600  54.4197410  58.2155850  18.8148960
  40.1767080  65.0034620  23.3228870  40.0564680  65.7296710  22.7110140
  39.8667970  64.2337530  22.8456780  55.6128970  73.1301010  36.7175920
  56.0888690  73.6083900  37.3965000  56.2336130  73.0618500  35.9921420
  37.8152450  68.1749760  29.1297510  37.8932870  68.3098530  28.1853230
  38.4294130  67.4665650  29.3225630  39.0600080  69.8749950  25.5403690
  38.6528160  70.0164540  24.6857290  39.9513090  69.5910110  25.3374900
  55.0162220  70.3213860  33.8775930  55.1425280  70.0825740  32.9593110
  55.0583600  69.4898400  34.3498010  50.5559490  71.8184760  20.4352740
  49.8624650  71.8162050  19.7755020  51.2982350  71.3944080  20.0046910
  54.8686230  62.3746320  34.8425670  54.2530500  62.8825990  34.3141130
  54.5482650  61.4744650  34.7851610  37.8711970  69.2163930  31.6691970
  38.0343010  68.7469290  30.8511340  38.3364420  68.7087490  32.3340810
  42.6430740  58.3469690  26.7052540  42.1998890  59.1279230  26.3737060
  43.2015730  58.6699580  27.4123480  46.9300550  61.2138210  32.3087860
  46.4679920  61.4221230  33.1207800  46.5278660  60.3997560  32.0058530
  51.9305060  62.4347160  33.4384520  51.0798650  62.1352910  33.7593590
  51.7706850  62.6789170  32.5268340  49.0254770  63.9348910  35.5383310
  49.3508180  63.1012660  35.1985540  49.8135100  64.4577430  35.6861640
  45.7589560  57.9680390  21.5858370  45.1343740  57.9640260  22.3111680
  45.6719680  57.1011350  21.1894340  44.6806640  58.8917020  28.5642140
  44.9778970  59.7979850  28.4834160  45.2292200  58.4035800  27.9501710
  42.4344960  63.4703260  24.4333790  42.2085880  63.2540430  25.3380410
  41.6537490  63.9031720  24.0879760  49.6642720  63.4766630  23.0324440
  49.0651610  64.2002430  22.8488060  50.2122330  63.4143410  22.2500890
  44.8744170  64.3688840  35.0994060  44.7787770  63.4283570  34.9494460
  45.7176150  64.5903910  34.7042130  48.2707590  62.1130170  25.0627720
  48.6637160  62.4302370  24.2496410  48.6324440  61.2342050  25.1772240
  40.0054710  60.7802510  33.2527840  39.6118100  61.6277720  33.4600620
  39.3173110  60.1428880  33.4436480  46.5799760  60.8637480  36.3224580
  45.8898080  60.6709680  36.9570670  47.3232060  61.1472120  36.8548880
  37.3071760  58.7030970  27.2857920  37.0184810  59.2733830  27.9982900
  38.0517520  58.2235420  27.6489150  37.4941990  62.6451090  18.4960640
  37.4116660  63.5881850  18.6375630  37.1425050  62.5026000  17.6172990
  48.8562730  64.7035920  29.1578500  48.1243850  65.2122730  29.5068600
  48.4587070  63.8865900  28.8567280  45.2940120  61.3790120  27.5630990
  45.2976180  60.9380070  26.7135530  46.1891240  61.7007450  27.6702810
  41.1442500  61.2616610  26.5225200  40.8042550  61.7391840  27.2792250
  40.3819820  60.8081730  26.1626300  45.3560270  62.3802200  20.5537750
  45.4773090  62.3388680  21.5023570  44.9708780  63.2426350  20.3984480
  49.3188640  60.1569600  28.5701440  49.3361380  60.6078250  29.4143290
  49.0704220  59.2575240  28.7834880  44.3681770  64.6903340  19.9521050
  43.7998670  64.2421590  19.3256960  45.0770770  65.0496120  19.4186200
  52.7459390  57.5701780  34.4087820  53.0705160  56.8391440  34.9345800
  52.7815900  57.2515420  33.5068810  39.4450950  68.5915360  33.8287780
  39.0605740  67.9509030  34.4270740  39.7563140  69.2951480  34.3982510
  45.5948090  65.4391900  29.3096400  45.9618220  64.9650470  30.0557740
  45.4053150  66.3133470  29.6504740  38.4588580  60.1835590  25.4389870
  38.1735500  59.8191260  26.2768490  38.3967440  59.4516050  24.8253010
  43.3847460  64.4800540  31.6280610  43.0804530  65.3592520  31.8530970
  44.3393920  64.5400330  31.6638050  41.9129250  68.6861530  22.2247460
  41.1391510  68.1459150  22.0646180  42.6423880  68.1668140  21.8865220
  52.6717230  67.6826890  28.0173850  53.3916350  68.1782180  27.6269960
  52.4699050  67.0044780  27.3727720  48.1327170  59.0764850  22.1603240
  47.3191780  58.5778020  22.0848550  47.9389120  59.9163100  21.7439590
  48.0536030  67.7535950  33.9042850  47.9873340  66.8331620  33.6500440
  47.4241170  67.8511390  34.6187490  50.8475560  63.4484500  20.4565400
  51.7355180  63.7601730  20.2816740  50.8180650  62.5756750  20.0645980
  41.9566650  68.3541910  25.8626270  42.4745320  67.5510170  25.8083160
  41.5050670  68.2921050  26.7043100  46.8436150  69.6208190  21.1353570
  47.1851850  70.3650420  20.6396890  46.0148860  69.9339310  21.4978400
  39.4411190  65.3203280  32.7751970  39.0826130  65.9857130  33.3625310
  39.1465750  64.4886830  33.1464590  42.6424310  65.7787520  35.6591520
  42.3424450  65.9244700  34.7619340  43.4135550  65.2192810  35.5664910
  47.9852760  70.5756520  33.6546650  47.9997300  69.6437480  33.4365560
  47.2777860  70.6616280  34.2936420  53.1189830  64.7596340  19.9245260
  53.0353550  65.1910560  19.0741700  53.8384020  65.2194690  20.3572080
  54.1963970  67.2163860  33.0015230  53.4712160  67.8092640  32.8044620
  54.7239430  67.2087400  32.2028600  54.1477080  71.6138600  22.6527390
  53.5053240  70.9594220  22.9271110  53.7607740  72.0193690  21.8768060
  49.7263560  68.9424030  26.4999080  50.0787380  68.3452160  25.8400450
  48.8425890  68.6168260  26.6707330  45.8126840  69.7021720  23.9069490
  46.4997970  70.2490930  24.2877080  45.0259260  70.2462450  23.9419100
  37.9519240  65.3194540  19.3986570  38.8214090  65.6019340  19.6822490
  37.4609560  66.1330410  19.2835380  45.1154050  66.7067750  23.5194850
  45.5716830  67.5173000  23.7455040  44.7642260  66.3890890  24.3513340
  47.4186660  72.2174090  30.7487150  48.0628880  72.4233470  31.4260570
  47.7816100  71.4562490  30.2958000  41.0165830  57.0505400  23.9917370
  40.8880460  57.0423300  24.9402290  40.1927850  57.3888490  23.6408380
  48.6918740  70.2206440  29.4664600  49.3340970  69.5199600  29.5796770
  49.2168090  71.0004880  29.2861490  52.5374460  70.5055060  19.1903740
  52.3112040  69.7885500  19.7828380  52.1470660  70.2567500  18.3525490
  50.4656360  71.0201340  32.6700660  50.8012600  71.6068030  33.3478580
  49.5456700  70.8894050  32.8998450  38.0159760  58.8096520  33.4524070
  37.3018280  59.0093440  34.0576680  38.4354800  58.0336090  33.8238870
  52.1190710  68.4227000  20.8517900  51.8312410  68.8839690  21.6395780
  52.9142880  67.9624770  21.1202120  38.3032350  72.7976780  34.4390600
  38.4123470  71.8571520  34.2985990  37.6512910  73.0631530  33.7904330
  46.2944940  71.0692670  35.8388720  45.9741810  70.3501910  36.3834410
  45.6203300  71.7447740  35.9124780  44.3359110  71.9153120  20.7821870
  44.3269210  72.6482810  20.1666380  43.4157470  71.6684700  20.8748830
  39.9365750  67.1368010  21.5268630  39.3293700  67.8766910  21.5363930
  40.4115100  67.2267370  20.7006830  49.5098540  61.3018830  31.2025520
  49.8779360  60.4814040  31.5305090  48.6496740  61.3620720  31.6181170
  52.8760570  60.2575770  22.0113080  52.2473730  60.3621440  21.2971310
  52.3812490  60.4772550  22.8006960  47.3218710  71.9781360  19.4447060
  47.4230690  71.7745350  18.5149040  46.4220450  71.7239640  19.6494840
  44.8444600  62.5361720  23.4270960  44.1360750  63.0048060  23.8684570
  45.1289080  61.8783730  24.0616150  46.4700530  63.9558420  31.4263490
  46.9685780  64.4304240  32.0915340  46.6123480  63.0321940  31.6333520
  48.8760030  59.2612380  24.8666750  48.7527810  59.2798510  23.9176260
  49.8244590  59.3091320  24.9865150  43.0479620  60.8446800  20.8021670
  43.8970150  61.2816950  20.7361860  42.6810890  61.1567060  21.6293730
  53.6767390  60.1726380  32.2691880  53.1740990  60.9131780  32.6085690
  54.4924050  60.5610380  31.9528670  51.9689400  65.4159560  25.7153240
  51.0279540  65.4309790  25.8900930  52.2833470  64.6295520  26.1613540
  41.9471040  67.0979160  19.2757200  42.7134310  66.9860520  19.8382630
  42.0245730  66.4017130  18.6233970  40.6417800  64.5304230  19.9590090
  40.7221390  63.5831740  20.0707490  41.5337550  64.8611110  20.0650750
  53.9714980  72.5868410  27.3907500  54.0962400  73.4099580  27.8631310
  54.8380540  72.3759140  27.0431650  38.3277990  70.7473190  22.9366140
  37.4017770  70.9894330  22.9271550  38.7934420  71.5747450  22.8150890
  49.2855420  69.9725560  36.1985620  48.6793580  69.9957160  35.4581370
  48.9809530  69.2408600  36.7352870  38.1688600  66.3519150  35.1946260
  38.6727620  65.7726430  35.7662490  37.4296020  66.6359380  35.7322630
  45.0712220  69.0733340  18.7492550  44.9662860  68.4585690  19.4753930
  44.9036440  68.5499230  17.9655560  45.2226540  67.7590140  34.7281780
  44.4572210  68.3275140  34.6436450  45.4042500  67.4666350  33.8350010
  48.3114950  68.1353370  19.3534540  47.7625050  68.5822670  19.9977280
  48.9334210  67.6302620  19.8772210  52.3649890  69.4895470  35.2856800
  53.1059360  69.8271230  34.7824260  51.6022570  69.6587530  34.7326570
  40.2011680  64.4948740  36.0896330  40.2417020  64.1962610  36.9981560
  41.0557180  64.8956350  35.9303850  43.9790070  67.0944290  21.2499840
  44.4006490  66.9284160  22.0931230  44.1040910  66.2844520  20.7554980
  42.1417490  63.0740840  34.0570820  41.6113950  62.5831790  33.4294160
  42.8105560  63.5025040  33.5228750  46.4917710  66.1181900  18.4976940
  47.0123370  65.4030920  18.1318090  47.1386110  66.7567770  18.7977450
  51.0395550  67.5410300  33.8212010  51.4536570  67.6955380  34.6702430
  50.1046550  67.6665520  33.9837790  51.5117720  64.8806460  35.8251160
  52.0938490  64.1258780  35.7371640  51.6879490  65.4113900  35.0482640
  42.6289790  60.0403210  34.1368110  42.5346660  59.4223960  33.4118980
  42.0487180  60.7669500  33.9098020  45.3951230  58.5976450  31.1695500
  44.9468530  58.6200710  30.3241050  44.7616430  58.1995470  31.7665800
  45.8010780  67.4930780  31.7907940  46.2198890  68.3363510  31.6184180
  44.8819410  67.6302820  31.5614720  48.1374680  65.2246960  33.1745780
  48.2570890  64.6288100  33.9140620  48.9968680  65.2616650  32.7547080
  50.4762580  65.7784150  31.7508290  49.9497800  66.3026770  31.1473430
  50.8193920  66.4111540  32.3818020  42.8748970  63.1677520  18.1958000
  42.6738030  62.3044880  18.5571340  42.7041020  63.0810880  17.2579600
  44.9043450  61.7668310  34.4321600  45.4943140  61.4584160  35.1199420
  44.0863690  61.2948060  34.5881500  49.7236880  61.3834120  34.6654620
  49.0352400  60.7215660  34.6004610  50.4442900  60.9372390  35.1103080
  50.3537280  57.9785750  20.7244880  50.6339570  57.1353650  21.0804300
  49.5803010  58.2108860  21.2383630  41.6731770  60.2678140  18.1835880
  41.9757670  60.2745570  17.2755030  42.4126360  59.9176000  18.6803540
  44.8916700  59.2112760  19.1692080  44.5438700  58.5336750  18.5894530
  45.0929470  58.7502270  19.9835470  40.6961900  69.5720560  19.0165680
  41.1336770  70.1150230  19.6723260  41.1809630  68.7467510  19.0262020
  37.9107700  72.3609590  26.4685940  38.2410710  71.4930650  26.2364580
  38.3398700  72.5668110  27.2990900  42.5069620  70.6918600  24.1287910
  42.2065160  70.5683570  25.0291820  42.4007110  69.8327190  23.7203640
  54.0360090  72.7297180  33.4944880  53.4362080  72.7889740  32.7508800
  54.1653990  71.7902160  33.6241730  55.2761540  70.4715000  18.8314590
  54.4454500  70.5391650  19.3021820  55.4533370  71.3619120  18.5281450
  54.7318000  67.2162480  21.3348790  55.4936910  67.7859130  21.4408480
  54.7472370  66.6489680  22.1057100  38.2322340  65.7400410  25.5656450
  37.5771180  65.4712050  24.9216150  39.0700290  65.6304890  25.1158430
  55.7377970  68.0712580  26.1790720  56.1086800  67.2879900  25.7726690
  56.3779900  68.7601680  26.0008020  52.7211730  69.4549160  31.5921040
  51.9071570  69.8846320  31.8546830  53.1285930  70.0667570  30.9790090
  54.7837170  67.5096850  18.4921310  55.0586010  68.4175730  18.3640530
  54.5947910  67.4459380  19.4283300  51.1812780  60.5341700  19.7874940
  51.5997660  60.3472680  18.9471600  50.8748840  59.6820750  20.0977870
  54.6802510  65.4465840  23.4850740  54.3046110  64.6793770  23.0532030
  53.9505630  65.8288540  23.9725670  39.2698270  66.1252980  30.1059790
  39.6371310  66.0380380  30.9855810  38.7009090  65.3619530  30.0066650
  54.0702130  64.5937360  33.1190260  53.8388220  64.3650110  32.2188210
  54.3306680  65.5136910  33.0735150  38.8214270  63.0362070  34.0118210
  37.9270320  63.0028830  34.3511920  39.3611820  63.2348860  34.7769460
  52.5090200  59.8193790  35.8969960  53.3860380  59.8277190  36.2803960
  52.5211040  59.0824630  35.2862310  37.4460420  62.9499340  21.5081780
  36.5424500  63.2129540  21.3333440  37.9301040  63.2210510  20.7281740
  53.9553470  63.6723330  26.7857980  54.4790950  63.1785980  26.1548150
  54.5412890  63.8073690  27.5305550  54.1343190  63.7563200  30.3077530
  53.1845900  63.7226740  30.4222520  54.3156200  64.6663310  30.0727300
  39.9887630  62.0064880  19.4176160  40.6979330  61.5848100  18.9323440
  39.2727570  62.0740110  18.7859510  39.6361790  58.0604210  18.4578810
  40.3589920  58.6013150  18.7760030  39.9086310  57.7867630  17.5820350
  53.4453440  62.9296680  22.7250390  53.9412560  62.6967550  23.5099270
  53.2469510  62.0908520  22.3088030  39.3253980  57.3110400  28.3601430
  39.9730170  56.7607780  27.9196590  39.7455820  57.5653550  29.1817240
  54.8740600  61.5657630  25.2588070  54.7639880  61.4113670  26.1970340
  55.6348190  61.0378570  25.0163480  53.2206320  57.5051760  31.7171070
  53.8578540  58.1185900  32.0830260  53.3681210  57.5412420  30.7720300
  55.7630870  59.3965550  18.4994210  56.6880180  59.2646730  18.2912500
  55.7406660  59.4758370  19.4530660  55.8369360  60.1676210  21.1250920
  55.0420860  60.1021330  21.6543830  56.0412640  61.1026850  21.1136270
  39.0785980  57.4666070  31.1026750  38.7300800  57.9229890  31.8684930
  38.7473680  56.5723200  31.1849180  40.6850350  70.6385670  35.2679940
  40.6419980  70.2678580  36.1494400  40.8161360  71.5763240  35.4081760
  44.3856380  72.1945260  30.8689660  44.1447740  72.4619820  29.9820180
  45.3259020  72.3650990  30.9240520  46.5910800  58.6577950  34.6246170
  46.5299690  59.2499780  35.3741580  47.5311180  58.5503910  34.4796430
  49.2285360  58.3148010  34.2638460  49.8425770  58.6327300  33.6019540
  49.7734920  57.8296600  34.8834320  39.7506620  56.9942270  34.3777520
  40.2989610  56.8130320  33.6143630  39.8161930  56.2036380  34.9133830
  40.5238380  73.5847920  32.3877720  39.9298700  73.4532620  33.1267760
  40.5162220  72.7486060  31.9219820  49.9693400  56.8780150  30.5907750
  49.0953240  57.2115260  30.3880680  49.8604150  56.4053330  31.4159620
  50.8765380  59.0851020  31.9749470  50.5478740  58.2702780  31.5951200
  51.8247680  59.0420830  31.8515160  40.1550610  70.9506300  31.3385760
  39.4284670  70.3311590  31.2711710  40.2159760  71.3446910  30.4683840
  43.7595710  73.1651300  28.1235170  44.2760730  72.5538660  27.5983430
  44.4093090  73.6680080  28.6146180  47.7168220  57.7949990  29.5300660
  46.9340010  58.2695490  29.8097420  47.4231150  56.8904820  29.4213840
  52.2689290  58.4973090  27.5749750  52.7097380  58.4418190  26.7271350
  51.9996880  59.4131100  27.6459930  54.1327860  58.1288330  25.5858570
  54.0716260  57.1849550  25.4389590  54.9119890  58.2368420  26.1312030
  39.0608630  58.0997470  22.0514380  39.8187990  58.2126350  21.4778410
  38.5985800  58.9366670  22.0057810  45.6022440  60.2136740  25.0416690
  44.7896950  59.8393630  24.7012570  46.1064080  59.4581820  25.3437880
  50.1047420  56.8779190  26.2799760  50.7076790  57.4499400  26.7548280
  49.3640410  57.4418630  26.0573660  53.2482020  57.2800750  21.5540040
  53.4432650  58.1784200  21.8207470  52.4611890  57.0487830  22.0472990
  40.0443310  72.9613920  21.9932660  39.5190930  73.3421950  21.2894620
  39.9687890  73.5864690  22.7142370  41.4333780  58.6261520  20.5916350
  41.9626540  57.8391320  20.4624300  42.0662100  59.3052710  20.8251880
  43.6271620  58.3636660  23.6461740  42.9974360  57.6623970  23.8131870
  43.0876760  59.1240790  23.4294900  43.7527180  57.6420640  36.0814230
  43.4711450  58.1454240  35.3175050  44.1346880  56.8442390  35.7156360
  41.8051070  71.0261030  20.8728240  41.1759950  71.4946130  21.4214070
  41.9198900  70.1810250  21.3074430  50.3542640  57.0574220  36.6594700
  50.2408090  57.3768830  37.5546220  51.1712380  57.4586730  36.3631980
  49.2600790  65.0766690   7.0229440  49.1794840  64.1621300   6.7521150
  48.8465210  65.5733760   6.3169150  47.3918830  66.8545710   8.9038710
  46.6160930  66.3746150   9.1937280  48.0431760  66.1751360   8.7294870
  41.4084660  67.1665520   9.7814470  40.5769540  66.9114230  10.1810980
  42.0165640  67.2376290  10.5172390  51.4126260  71.2605900   7.6837840
  50.9507790  70.4893140   8.0125010  52.2251810  71.2871970   8.1890290
  41.3885920  71.2005610   9.9772490  41.6913960  70.3103350   9.7982710
  42.1329510  71.7575830   9.7494740  39.8176610  62.1267410   3.5656860
  38.9293310  62.4683380   3.4636740  40.1017800  61.9267730   2.6737690
  37.7809620  64.7273060   9.4496560  38.3525730  63.9595260   9.4500200
  37.7811160  65.0261820   8.5403170  46.8327820  69.5302900   8.9108870
  46.7636100  68.5892840   8.7498000  47.5947680  69.6204310   9.4831440
  39.0234490  60.1357420  11.2365490  38.8437330  59.2383170  11.5168250
  38.6214570  60.6829290  11.9112440  47.8632990  62.3373280   9.1377800
  48.2397810  61.4645160   9.0251470  47.7652500  62.6731980   8.2468240
  41.9938000  60.7098910   4.5995240  42.1004750  61.6102640   4.9064000
  41.0830360  60.6616880   4.3089890  51.6457110  59.8323720   6.0706140
  52.4666730  59.3420290   6.1131620  51.6791190  60.4221380   6.8237980
  39.6421160  62.6317920   9.8447830  40.3231270  62.8956290  10.4635230
  39.3269210  61.7918790  10.1785840  43.8345730  63.6785280   8.9320420
  44.3423950  64.1766250   9.5725440  44.3658970  62.9020480   8.7559780
  55.9356660  61.8490470  12.6349770  55.2308830  62.2372180  12.1164880
  56.2014580  62.5440760  13.2370700  42.1181830  58.3183840  13.1983840
  42.1200270  58.8356230  12.3929740  41.2886140  57.8414020  13.1753770
  48.5052920  68.4303150   4.6973740  47.8870190  68.8952600   4.1336460
  49.0176170  69.1230630   5.1143250  43.3684680  67.9579020  11.3757340
  43.0354060  68.5847940  12.0178410  43.5451360  68.4840900  10.5959010
  51.8818590  61.7724100   8.8433680  51.1774160  62.0608990   9.4236790
  52.2430750  62.5824210   8.4833240  41.7997160  60.0293800  11.2054290
  42.1413970  60.8735850  10.9108160  40.8612970  60.1777540  11.3219630
  42.5803780  69.9259820  13.1906520  43.1977780  70.6010900  12.9090970
  41.7196900  70.3347800  13.0994020  37.8736120  69.1159680   2.0713370
  37.4964100  69.6046780   1.3398270  38.1309190  69.7884960   2.7019900
  53.4981370  71.3899230  11.1061160  52.8144890  72.0598340  11.0977830
  54.0375660  71.5879880  10.3406020  54.9505510  61.2178890   9.2342890
  54.0030420  61.2517870   9.3658320  55.2755500  62.0317840   9.6192250
  45.4825050  57.5176070   7.5298880  45.7900030  56.9622960   6.8134380
  44.5525750  57.6520530   7.3471870  52.3285530  69.9559580   4.9096510
  52.2181860  69.0133910   5.0345930  52.3253780  70.3175220   5.7959270
  50.4325550  68.1373200  11.1488950  50.8494340  67.9233310  10.3142410
  51.1565370  68.3945990  11.7197570  47.8705810  65.5824900   4.2659000
  46.9435090  65.5162280   4.4947470  48.0230630  66.5205030   4.1514240
  54.3787650  66.5360420  11.2405190  53.5506280  66.6053510  10.7655320
  54.9738130  67.1214730  10.7721020  51.9003100  67.1445200   4.7694250
  51.2815520  66.8064750   4.1220550  51.8827550  66.5004960   5.4773440
  51.3429660  63.3229740  12.1860060  50.9300840  64.1483450  12.4400050
  50.6105610  62.7374780  11.9936420  43.4762450  66.1089640   7.0478730
  43.0719450  65.3966890   6.5524630  43.5625570  65.7642880   7.9366770
  43.9444150  69.7957200   9.2117940  43.6472440  69.1902670   8.5325720
  44.8943970  69.8334510   9.1007300  42.1891070  62.8832850  10.8277770
  42.7405660  62.9928190  10.0531020  42.7034580  63.2570450  11.5433000
  43.0362580  69.5338890  15.8625740  42.1391110  69.7578860  16.1099140
  43.0615450  69.6573830  14.9137140  50.0767800  66.3832010   1.7767000
  50.5161080  65.5454440   1.6304820  50.7896220  67.0161410   1.8631140
  41.8633800  66.4052210  14.4383110  41.7241570  67.2775010  14.8070510
  40.9815160  66.0625020  14.2931050  48.1863180  71.3228080   5.7448240
  48.6259090  72.0652410   5.3303630  48.1250070  71.5654650   6.6687200
  43.6614150  72.3473910  16.6468260  43.6329580  72.7516860  15.7796690
  43.4979120  71.4184270  16.4839860  40.1767080  65.0034620   4.5485380
  40.0564680  65.7296710   3.9366650  39.8667970  64.2337530   4.0713290
  55.6128970  73.1301010  17.9432430  56.0888690  73.6083900  18.6221510
  56.2336130  73.0618500  17.2177930  37.8152450  68.1749760  10.3554020
  37.8932870  68.3098530   9.4109740  38.4294130  67.4665650  10.5482140
  39.0600080  69.8749950   6.7660200  38.6528160  70.0164540   5.9113800
  39.9513090  69.5910110   6.5631410  55.0162220  70.3213860  15.1032440
  55.1425280  70.0825740  14.1849620  55.0583600  69.4898400  15.5754520
  54.8686230  62.3746320  16.0682180  54.2530500  62.8825990  15.5397640
  54.5482650  61.4744650  16.0108120  37.8711970  69.2163930  12.8948480
  38.0343010  68.7469290  12.0767850  38.3364420  68.7087490  13.5597320
  42.6430740  58.3469690   7.9309050  42.1998890  59.1279230   7.5993570
  43.2015730  58.6699580   8.6379990  46.9300550  61.2138210  13.5344370
  46.4679920  61.4221230  14.3464310  46.5278660  60.3997560  13.2315040
  51.9305060  62.4347160  14.6641030  51.0798650  62.1352910  14.9850100
  51.7706850  62.6789170  13.7524850  49.0254770  63.9348910  16.7639820
  49.3508180  63.1012660  16.4242050  49.8135100  64.4577430  16.9118150
  45.7589560  57.9680390   2.8114880  45.1343740  57.9640260   3.5368190
  45.6719680  57.1011350   2.4150850  44.6806640  58.8917020   9.7898650
  44.9778970  59.7979850   9.7090670  45.2292200  58.4035800   9.1758220
  42.4344960  63.4703260   5.6590300  42.2085880  63.2540430   6.5636920
  41.6537490  63.9031720   5.3136270  49.6642720  63.4766630   4.2580950
  49.0651610  64.2002430   4.0744570  50.2122330  63.4143410   3.4757400
  44.8744170  64.3688840  16.3250570  44.7787770  63.4283570  16.1750970
  45.7176150  64.5903910  15.9298640  48.2707590  62.1130170   6.2884230
  48.6637160  62.4302370   5.4752920  48.6324440  61.2342050   6.4028750
  40.0054710  60.7802510  14.4784350  39.6118100  61.6277720  14.6857130
  39.3173110  60.1428880  14.6692990  46.5799760  60.8637480  17.5481090
  45.8898080  60.6709680  18.1827180  47.3232060  61.1472120  18.0805390
  37.3071760  58.7030970   8.5114430  37.0184810  59.2733830   9.2239410
  38.0517520  58.2235420   8.8745660  48.8562730  64.7035920  10.3835010
  48.1243850  65.2122730  10.7325110  48.4587070  63.8865900  10.0823790
  45.2940120  61.3790120   8.7887500  45.2976180  60.9380070   7.9392040
  46.1891240  61.7007450   8.8959320  41.1442500  61.2616610   7.7481710
  40.8042550  61.7391840   8.5048760  40.3819820  60.8081730   7.3882810
  45.3560270  62.3802200   1.7794260  45.4773090  62.3388680   2.7280080
  44.9708780  63.2426350   1.6240990  49.3188640  60.1569600   9.7957950
  49.3361380  60.6078250  10.6399800  49.0704220  59.2575240  10.0091390
  52.7459390  57.5701780  15.6344330  53.0705160  56.8391440  16.1602310
  52.7815900  57.2515420  14.7325320  39.4450950  68.5915360  15.0544290
  39.0605740  67.9509030  15.6527250  39.7563140  69.2951480  15.6239020
  45.5948090  65.4391900  10.5352910  45.9618220  64.9650470  11.2814250
  45.4053150  66.3133470  10.8761250  38.4588580  60.1835590   6.6646380
  38.1735500  59.8191260   7.5025000  38.3967440  59.4516050   6.0509520
  43.3847460  64.4800540  12.8537120  43.0804530  65.3592520  13.0787480
  44.3393920  64.5400330  12.8894560  41.9129250  68.6861530   3.4503970
  41.1391510  68.1459150   3.2902690  42.6423880  68.1668140   3.1121730
  52.6717230  67.6826890   9.2430360  53.3916350  68.1782180   8.8526470
  52.4699050  67.0044780   8.5984230  48.1327170  59.0764850   3.3859750
  47.3191780  58.5778020   3.3105060  47.9389120  59.9163100   2.9696100
  48.0536030  67.7535950  15.1299360  47.9873340  66.8331620  14.8756950
  47.4241170  67.8511390  15.8444000  41.9566650  68.3541910   7.0882780
  42.4745320  67.5510170   7.0339670  41.5050670  68.2921050   7.9299610
  46.8436150  69.6208190   2.3610080  47.1851850  70.3650420   1.8653400
  46.0148860  69.9339310   2.7234910  39.4411190  65.3203280  14.0008480
  39.0826130  65.9857130  14.5881820  39.1465750  64.4886830  14.3721100
  42.6424310  65.7787520  16.8848030  42.3424450  65.9244700  15.9875850
  43.4135550  65.2192810  16.7921420  47.9852760  70.5756520  14.8803160
  47.9997300  69.6437480  14.6622070  47.2777860  70.6616280  15.5192930
  54.1963970  67.2163860  14.2271740  53.4712160  67.8092640  14.0301130
  54.7239430  67.2087400  13.4285110  54.1477080  71.6138600   3.8783900
  53.5053240  70.9594220   4.1527620  53.7607740  72.0193690   3.1024570
  49.7263560  68.9424030   7.7255590  50.0787380  68.3452160   7.0656960
  48.8425890  68.6168260   7.8963840  45.8126840  69.7021720   5.1326000
  46.4997970  70.2490930   5.5133590  45.0259260  70.2462450   5.1675610
  45.1154050  66.7067750   4.7451360  45.5716830  67.5173000   4.9711550
  44.7642260  66.3890890   5.5769850  47.4186660  72.2174090  11.9743660
  48.0628880  72.4233470  12.6517080  47.7816100  71.4562490  11.5214510
  41.0165830  57.0505400   5.2173880  40.8880460  57.0423300   6.1658800
  40.1927850  57.3888490   4.8664890  48.6918740  70.2206440  10.6921110
  49.3340970  69.5199600  10.8053280  49.2168090  71.0004880  10.5118000
  50.4656360  71.0201340  13.8957170  50.8012600  71.6068030  14.5735090
  49.5456700  70.8894050  14.1254960  38.0159760  58.8096520  14.6780580
  37.3018280  59.0093440  15.2833190  38.4354800  58.0336090  15.0495380
  52.1190710  68.4227000   2.0774410  51.8312410  68.8839690   2.8652290
  52.9142880  67.9624770   2.3458630  38.3032350  72.7976780  15.6647110
  38.4123470  71.8571520  15.5242500  37.6512910  73.0631530  15.0160840
  46.2944940  71.0692670  17.0645230  45.9741810  70.3501910  17.6090920
  45.6203300  71.7447740  17.1381290  44.3359110  71.9153120   2.0078380
  44.3269210  72.6482810   1.3922890  43.4157470  71.6684700   2.1005340
  39.9365750  67.1368010   2.7525140  39.3293700  67.8766910   2.7620440
  40.4115100  67.2267370   1.9263340  49.5098540  61.3018830  12.4282030
  49.8779360  60.4814040  12.7561600  48.6496740  61.3620720  12.8437680
  52.8760570  60.2575770   3.2369590  52.2473730  60.3621440   2.5227820
  52.3812490  60.4772550   4.0263470  44.8444600  62.5361720   4.6527470
  44.1360750  63.0048060   5.0941080  45.1289080  61.8783730   5.2872660
  46.4700530  63.9558420  12.6520000  46.9685780  64.4304240  13.3171850
  46.6123480  63.0321940  12.8590030  48.8760030  59.2612380   6.0923260
  48.7527810  59.2798510   5.1432770  49.8244590  59.3091320   6.2121660
  43.0479620  60.8446800   2.0278180  43.8970150  61.2816950   1.9618370
  42.6810890  61.1567060   2.8550240  53.6767390  60.1726380  13.4948390
  53.1740990  60.9131780  13.8342200  54.4924050  60.5610380  13.1785180
  51.9689400  65.4159560   6.9409750  51.0279540  65.4309790   7.1157440
  52.2833470  64.6295520   7.3870050  53.9714980  72.5868410   8.6164010
  54.0962400  73.4099580   9.0887820  54.8380540  72.3759140   8.2688160
  38.3277990  70.7473190   4.1622650  37.4017770  70.9894330   4.1528060
  38.7934420  71.5747450   4.0407400  49.2855420  69.9725560  17.4242130
  48.6793580  69.9957160  16.6837880  48.9809530  69.2408600  17.9609380
  38.1688600  66.3519150  16.4202770  38.6727620  65.7726430  16.9919000
  37.4296020  66.6359380  16.9579140  45.2226540  67.7590140  15.9538290
  44.4572210  68.3275140  15.8692960  45.4042500  67.4666350  15.0606520
  52.3649890  69.4895470  16.5113310  53.1059360  69.8271230  16.0080770
  51.6022570  69.6587530  15.9583080  40.2011680  64.4948740  17.3152840
  40.2417020  64.1962610  18.2238070  41.0557180  64.8956350  17.1560360
  43.9790070  67.0944290   2.4756350  44.4006490  66.9284160   3.3187740
  44.1040910  66.2844520   1.9811490  42.1417490  63.0740840  15.2827330
  41.6113950  62.5831790  14.6550670  42.8105560  63.5025040  14.7485260
  51.0395550  67.5410300  15.0468520  51.4536570  67.6955380  15.8958940
  50.1046550  67.6665520  15.2094300  51.5117720  64.8806460  17.0507670
  52.0938490  64.1258780  16.9628150  51.6879490  65.4113900  16.2739150
  42.6289790  60.0403210  15.3624620  42.5346660  59.4223960  14.6375490
  42.0487180  60.7669500  15.1354530  45.3951230  58.5976450  12.3952010
  44.9468530  58.6200710  11.5497560  44.7616430  58.1995470  12.9922310
  45.8010780  67.4930780  13.0164450  46.2198890  68.3363510  12.8440690
  44.8819410  67.6302820  12.7871230  48.1374680  65.2246960  14.4002290
  48.2570890  64.6288100  15.1397130  48.9968680  65.2616650  13.9803590
  50.4762580  65.7784150  12.9764800  49.9497800  66.3026770  12.3729940
  50.8193920  66.4111540  13.6074530  44.9043450  61.7668310  15.6578110
  45.4943140  61.4584160  16.3455930  44.0863690  61.2948060  15.8138010
  49.7236880  61.3834120  15.8911130  49.0352400  60.7215660  15.8261120
  50.4442900  60.9372390  16.3359590  50.3537280  57.9785750   1.9501390
  50.6339570  57.1353650   2.3060810  49.5803010  58.2108860   2.4640140
  37.9107700  72.3609590   7.6942450  38.2410710  71.4930650   7.4621090
  38.3398700  72.5668110   8.5247410  42.5069620  70.6918600   5.3544420
  42.2065160  70.5683570   6.2548330  42.4007110  69.8327190   4.9460150
  54.0360090  72.7297180  14.7201390  53.4362080  72.7889740  13.9765310
  54.1653990  71.7902160  14.8498240  54.7318000  67.2162480   2.5605300
  55.4936910  67.7859130   2.6664990  54.7472370  66.6489680   3.3313610
  38.2322340  65.7400410   6.7912960  37.5771180  65.4712050   6.1472660
  39.0700290  65.6304890   6.3414940  55.7377970  68.0712580   7.4047230
  56.1086800  67.2879900   6.9983200  56.3779900  68.7601680   7.2264530
  52.7211730  69.4549160  12.8177550  51.9071570  69.8846320  13.0803340
  53.1285930  70.0667570  12.2046600  54.6802510  65.4465840   4.7107250
  54.3046110  64.6793770   4.2788540  53.9505630  65.8288540   5.1982180
  39.2698270  66.1252980  11.3316300  39.6371310  66.0380380  12.2112320
  38.7009090  65.3619530  11.2323160  54.0702130  64.5937360  14.3446770
  53.8388220  64.3650110  13.4444720  54.3306680  65.5136910  14.2991660
  38.8214270  63.0362070  15.2374720  37.9270320  63.0028830  15.5768430
  39.3611820  63.2348860  16.0025970  52.5090200  59.8193790  17.1226470
  53.3860380  59.8277190  17.5060470  52.5211040  59.0824630  16.5118820
  37.4460420  62.9499340   2.7338290  36.5424500  63.2129540   2.5589950
  37.9301040  63.2210510   1.9538250  53.9553470  63.6723330   8.0114490
  54.4790950  63.1785980   7.3804660  54.5412890  63.8073690   8.7562060
  54.1343190  63.7563200  11.5334040  53.1845900  63.7226740  11.6479030
  54.3156200  64.6663310  11.2983810  53.4453440  62.9296680   3.9506900
  53.9412560  62.6967550   4.7355780  53.2469510  62.0908520   3.5344540
  39.3253980  57.3110400   9.5857940  39.9730170  56.7607780   9.1453100
  39.7455820  57.5653550  10.4073750  54.8740600  61.5657630   6.4844580
  54.7639880  61.4113670   7.4226850  55.6348190  61.0378570   6.2419990
  53.2206320  57.5051760  12.9427580  53.8578540  58.1185900  13.3086770
  53.3681210  57.5412420  11.9976810  55.8369360  60.1676210   2.3507430
  55.0420860  60.1021330   2.8800340  56.0412640  61.1026850   2.3392780
  39.0785980  57.4666070  12.3283260  38.7300800  57.9229890  13.0941440
  38.7473680  56.5723200  12.4105690  40.6850350  70.6385670  16.4936450
  40.6419980  70.2678580  17.3750910  40.8161360  71.5763240  16.6338270
  44.3856380  72.1945260  12.0946170  44.1447740  72.4619820  11.2076690
  45.3259020  72.3650990  12.1497030  46.5910800  58.6577950  15.8502680
  46.5299690  59.2499780  16.5998090  47.5311180  58.5503910  15.7052940
  49.2285360  58.3148010  15.4894970  49.8425770  58.6327300  14.8276050
  49.7734920  57.8296600  16.1090830  39.7506620  56.9942270  15.6034030
  40.2989610  56.8130320  14.8400140  39.8161930  56.2036380  16.1390340
  40.5238380  73.5847920  13.6134230  39.9298700  73.4532620  14.3524270
  40.5162220  72.7486060  13.1476330  49.9693400  56.8780150  11.8164260
  49.0953240  57.2115260  11.6137190  49.8604150  56.4053330  12.6416130
  50.8765380  59.0851020  13.2005980  50.5478740  58.2702780  12.8207710
  51.8247680  59.0420830  13.0771670  40.1550610  70.9506300  12.5642270
  39.4284670  70.3311590  12.4968220  40.2159760  71.3446910  11.6940350
  43.7595710  73.1651300   9.3491680  44.2760730  72.5538660   8.8239940
  44.4093090  73.6680080   9.8402690  47.7168220  57.7949990  10.7557170
  46.9340010  58.2695490  11.0353930  47.4231150  56.8904820  10.6470350
  52.2689290  58.4973090   8.8006260  52.7097380  58.4418190   7.9527860
  51.9996880  59.4131100   8.8716440  54.1327860  58.1288330   6.8115080
  54.0716260  57.1849550   6.6646100  54.9119890  58.2368420   7.3568540
  39.0608630  58.0997470   3.2770890  39.8187990  58.2126350   2.7034920
  38.5985800  58.9366670   3.2314320  45.6022440  60.2136740   6.2673200
  44.7896950  59.8393630   5.9269080  46.1064080  59.4581820   6.5694390
  50.1047420  56.8779190   7.5056270  50.7076790  57.4499400   7.9804790
  49.3640410  57.4418630   7.2830170  53.2482020  57.2800750   2.7796550
  53.4432650  58.1784200   3.0463980  52.4611890  57.0487830   3.2729500
  40.0443310  72.9613920   3.2189170  39.5190930  73.3421950   2.5151130
  39.9687890  73.5864690   3.9398880  41.4333780  58.6261520   1.8172860
  41.9626540  57.8391320   1.6880810  42.0662100  59.3052710   2.0508390
  43.6271620  58.3636660   4.8718250  42.9974360  57.6623970   5.0388380
  43.0876760  59.1240790   4.6551410  43.7527180  57.6420640  17.3070740
  43.4711450  58.1454240  16.5431560  44.1346880  56.8442390  16.9412870
  41.8051070  71.0261030   2.0984750  41.1759950  71.4946130   2.6470580
  41.9198900  70.1810250   2.5330940  50.3542640  57.0574220  17.8851210
  50.2408090  57.3768830  18.7802730  51.1712380  57.4586730  17.5888490
  49.2600790  46.3023200  63.3459910  49.1794840  45.3877810  63.0751620
  48.8465210  46.7990270  62.6399620  47.3918830  48.0802220  65.2269180
  46.6160930  47.6002660  65.5167750  48.0431760  47.4007870  65.0525340
  41.4084660  48.3922030  66.1044940  40.5769540  48.1370740  66.5041450
  42.0165640  48.4632800  66.8402860  51.4126260  52.4862410  64.0068310
  50.9507790  51.7149650  64.3355480  52.2251810  52.5128480  64.5120760
  41.3885920  52.4262120  66.3002960  41.6913960  51.5359860  66.1213180
  42.1329510  52.9832340  66.0725210  39.8176610  43.3523920  59.8887330
  38.9293310  43.6939890  59.7867210  40.1017800  43.1524240  58.9968160
  37.7809620  45.9529570  65.7727030  38.3525730  45.1851770  65.7730670
  37.7811160  46.2518330  64.8633640  47.6389570  54.7720420  63.6272300
  47.0201010  55.2277920  63.0566740  48.4941350  54.9271880  63.2262000
  46.8327820  50.7559410  65.2339340  46.7636100  49.8149350  65.0728470
  47.5947680  50.8460820  65.8061910  39.0234490  41.3613930  67.5595960
  38.8437330  40.4639680  67.8398720  38.6214570  41.9085800  68.2342910
  47.8632990  43.5629790  65.4608270  48.2397810  42.6901670  65.3481940
  47.7652500  43.8988490  64.5698710  41.9938000  41.9355420  60.9225710
  42.1004750  42.8359150  61.2294470  41.0830360  41.8873390  60.6320360
  51.6457110  41.0580230  62.3936610  52.4666730  40.5676800  62.4362090
  51.6791190  41.6477890  63.1468450  39.6421160  43.8574430  66.1678300
  40.3231270  44.1212800  66.7865700  39.3269210  43.0175300  66.5016310
  43.8345730  44.9041790  65.2550890  44.3423950  45.4022760  65.8955910
  44.3658970  44.1276990  65.0790250  55.9356660  43.0746980  68.9580240
  55.2308830  43.4628690  68.4395350  56.2014580  43.7697270  69.5601170
  42.1181830  39.5440350  69.5214310  42.1200270  40.0612740  68.7160210
  41.2886140  39.0670530  69.4984240  48.5052920  49.6559660  61.0204210
  47.8870190  50.1209110  60.4566930  49.0176170  50.3487140  61.4373720
  43.3684680  49.1835530  67.6987810  43.0354060  49.8104450  68.3408880
  43.5451360  49.7097410  66.9189480  51.8818590  42.9980610  65.1664150
  51.1774160  43.2865500  65.7467260  52.2430750  43.8080720  64.8063710
  41.7997160  41.2550310  67.5284760  42.1413970  42.0992360  67.2338630
  40.8612970  41.4034050  67.6450100  42.5803780  51.1516330  69.5136990
  43.1977780  51.8267410  69.2321440  41.7196900  51.5604310  69.4224490
  37.8736120  50.3416190  58.3943840  37.4964100  50.8303290  57.6628740
  38.1309190  51.0141470  59.0250370  53.4981370  52.6155740  67.4291630
  52.8144890  53.2854850  67.4208300  54.0375660  52.8136390  66.6636490
  54.9505510  42.4435400  65.5573360  54.0030420  42.4774380  65.6888790
  55.2755500  43.2574350  65.9422720  45.4825050  38.7432580  63.8529350
  45.7900030  38.1879470  63.1364850  44.5525750  38.8777040  63.6702340
  51.0340110  54.4599870  66.1436810  51.0467270  54.0562160  65.2759070
  50.4815330  55.2347160  66.0398240  52.3285530  51.1816090  61.2326980
  52.2181860  50.2390420  61.3576400  52.3253780  51.5431730  62.1189740
  50.4325550  49.3629710  67.4719420  50.8494340  49.1489820  66.6372880
  51.1565370  49.6202500  68.0428040  47.8705810  46.8081410  60.5889470
  46.9435090  46.7418790  60.8177940  48.0230630  47.7461540  60.4744710
  47.8574890  43.0798410  57.5856630  46.9178560  43.2412370  57.6709090
  48.1758150  43.7984090  57.0392620  54.3787650  47.7616930  67.5635660
  53.5506280  47.8310020  67.0885790  54.9738130  48.3471240  67.0951490
  51.9003100  48.3701710  61.0924720  51.2815520  48.0321260  60.4451020
  51.8827550  47.7261470  61.8003910  51.3429660  44.5486250  68.5090530
  50.9300840  45.3739960  68.7630520  50.6105610  43.9631290  68.3166890
  43.4762450  47.3346150  63.3709200  43.0719450  46.6223400  62.8755100
  43.5625570  46.9899390  64.2597240  43.9444150  51.0213710  65.5348410
  43.6472440  50.4159180  64.8556190  44.8943970  51.0591020  65.4237770
  42.1891070  44.1089360  67.1508240  42.7405660  44.2184700  66.3761490
  42.7034580  44.4826960  67.8663470  52.0329760  54.5945580  69.1971510
  51.5560320  55.4017770  69.0044120  51.3491550  53.9423910  69.3497720
  50.0767800  47.6088520  58.0997470  50.5161080  46.7710950  57.9535290
  50.7896220  48.2417920  58.1861610  41.8633800  47.6308720  70.7613580
  41.7241570  48.5031520  71.1300980  40.9815160  47.2881530  70.6161520
  48.1863180  52.5484590  62.0678710  48.6259090  53.2908920  61.6534100
  48.1250070  52.7911160  62.9917670  53.6584940  38.8631330  56.4138510
  53.3457600  38.9558160  57.3137580  54.4197410  39.4412360  56.3635940
  40.1767080  46.2291130  60.8715850  40.0564680  46.9553220  60.2597120
  39.8667970  45.4594040  60.3943760  37.8152450  49.4006270  66.6784490
  37.8932870  49.5355040  65.7340210  38.4294130  48.6922160  66.8712610
  39.0600080  51.1006460  63.0890670  38.6528160  51.2421050  62.2344270
  39.9513090  50.8166620  62.8861880  55.0162220  51.5470370  71.4262910
  55.1425280  51.3082250  70.5080090  55.0583600  50.7154910  71.8984990
  48.8778960  55.2498370  69.9957720  49.3923630  55.1606380  70.7980150
  48.0348040  55.5958070  70.2885630  50.8533360  55.5353710  59.4241720
  50.6934500  55.2456650  60.3223550  50.6880070  54.7593840  58.8886950
  43.3321740  55.3152240  61.2013340  43.1564220  54.3987780  60.9881140
  42.4777480  55.6739530  61.4411140  50.5559490  53.0441270  57.9839720
  49.8624650  53.0418560  57.3242000  51.2982350  52.6200590  57.5533890
  50.1209420  54.6703980  62.0588210  50.5766370  53.8893360  62.3726830
  50.4601940  55.3810800  62.6029390  37.8711970  50.4420440  69.2178950
  38.0343010  49.9725800  68.3998320  38.3364420  49.9344000  69.8827790
  42.6430740  39.5726200  64.2539520  42.1998890  40.3535740  63.9224040
  43.2015730  39.8956090  64.9610460  46.9300550  42.4394720  69.8574840
  46.4679920  42.6477740  70.6694780  46.5278660  41.6254070  69.5545510
  51.9305060  43.6603670  70.9871500  51.0798650  43.3609420  71.3080570
  51.7706850  43.9045680  70.0755320  45.7589560  39.1936900  59.1345350
  45.1343740  39.1896770  59.8598660  45.6719680  38.3267860  58.7381320
  44.6806640  40.1173530  66.1129120  44.9778970  41.0236360  66.0321140
  45.2292200  39.6292310  65.4988690  42.4344960  44.6959770  61.9820770
  42.2085880  44.4796940  62.8867390  41.6537490  45.1288230  61.6366740
  49.6642720  44.7023140  60.5811420  49.0651610  45.4258940  60.3975040
  50.2122330  44.6399920  59.7987870  48.2707590  43.3386680  62.6114700
  48.6637160  43.6558880  61.7983390  48.6324440  42.4598560  62.7259220
  40.0054710  42.0059020  70.8014820  39.6118100  42.8534230  71.0087600
  39.3173110  41.3685390  70.9923460  37.3071760  39.9287480  64.8344900
  37.0184810  40.4990340  65.5469880  38.0517520  39.4491930  65.1976130
  37.4941990  43.8707600  56.0447620  37.4116660  44.8138360  56.1862610
  37.1425050  43.7282510  55.1659970  48.8562730  45.9292430  66.7065480
  48.1243850  46.4379240  67.0555580  48.4587070  45.1122410  66.4054260
  45.2940120  42.6046630  65.1117970  45.2976180  42.1636580  64.2622510
  46.1891240  42.9263960  65.2189790  41.1442500  42.4873120  64.0712180
  40.8042550  42.9648350  64.8279230  40.3819820  42.0338240  63.7113280
  45.3560270  43.6058710  58.1024730  45.4773090  43.5645190  59.0510550
  44.9708780  44.4682860  57.9471460  49.3188640  41.3826110  66.1188420
  49.3361380  41.8334760  66.9630270  49.0704220  40.4831750  66.3321860
  44.3681770  45.9159850  57.5008030  43.7998670  45.4678100  56.8743940
  45.0770770  46.2752630  56.9673180  39.4450950  49.8171870  71.3774760
  39.0605740  49.1765540  71.9757720  39.7563140  50.5207990  71.9469490
  45.5948090  46.6648410  66.8583380  45.9618220  46.1906980  67.6044720
  45.4053150  47.5389980  67.1991720  38.4588580  41.4092100  62.9876850
  38.1735500  41.0447770  63.8255470  38.3967440  40.6772560  62.3739990
  43.3847460  45.7057050  69.1767590  43.0804530  46.5849030  69.4017950
  44.3393920  45.7656840  69.2125030  41.9129250  49.9118040  59.7734440
  41.1391510  49.3715660  59.6133160  42.6423880  49.3924650  59.4352200
  52.6717230  48.9083400  65.5660830  53.3916350  49.4038690  65.1756940
  52.4699050  48.2301290  64.9214700  48.1327170  40.3021360  59.7090220
  47.3191780  39.8034530  59.6335530  47.9389120  41.1419610  59.2926570
  48.0536030  48.9792460  71.4529830  47.9873340  48.0588130  71.1987420
  47.4241170  49.0767900  72.1674470  50.8475560  44.6741010  58.0052380
  51.7355180  44.9858240  57.8303720  50.8180650  43.8013260  57.6132960
  41.9566650  49.5798420  63.4113250  42.4745320  48.7766680  63.3570140
  41.5050670  49.5177560  64.2530080  46.8436150  50.8464700  58.6840550
  47.1851850  51.5906930  58.1883870  46.0148860  51.1595820  59.0465380
  39.4411190  46.5459790  70.3238950  39.0826130  47.2113640  70.9112290
  39.1465750  45.7143340  70.6951570  47.9852760  51.8013030  71.2033630
  47.9997300  50.8693990  70.9852540  47.2777860  51.8872790  71.8423400
  53.1189830  45.9852850  57.4732240  53.0353550  46.4167070  56.6228680
  53.8384020  46.4451200  57.9059060  54.1963970  48.4420370  70.5502210
  53.4712160  49.0349150  70.3531600  54.7239430  48.4343910  69.7515580
  54.1477080  52.8395110  60.2014370  53.5053240  52.1850730  60.4758090
  53.7607740  53.2450200  59.4255040  49.7263560  50.1680540  64.0486060
  50.0787380  49.5708670  63.3887430  48.8425890  49.8424770  64.2194310
  45.8126840  50.9278230  61.4556470  46.4997970  51.4747440  61.8364060
  45.0259260  51.4718960  61.4906080  37.9519240  46.5451050  56.9473550
  38.8214090  46.8275850  57.2309470  37.4609560  47.3586920  56.8322360
  45.1154050  47.9324260  61.0681830  45.5716830  48.7429510  61.2942020
  44.7642260  47.6147400  61.9000320  47.4186660  53.4430600  68.2974130
  48.0628880  53.6489980  68.9747550  47.7816100  52.6819000  67.8444980
  41.0165830  38.2761910  61.5404350  40.8880460  38.2679810  62.4889270
  40.1927850  38.6145000  61.1895360  48.6918740  51.4462950  67.0151580
  49.3340970  50.7456110  67.1283750  49.2168090  52.2261390  66.8348470
  52.5374460  51.7311570  56.7390720  52.3112040  51.0142010  57.3315360
  52.1470660  51.4824010  55.9012470  50.4656360  52.2457850  70.2187640
  50.8012600  52.8324540  70.8965560  49.5456700  52.1150560  70.4485430
  38.3190490  55.7578430  57.5135180  38.6788130  56.3567770  56.8592450
  38.1782830  56.3038320  58.2870210  38.0159760  40.0353030  71.0011050
  37.3018280  40.2349950  71.6063660  38.4354800  39.2592600  71.3725850
  52.1190710  49.6483510  58.4004880  51.8312410  50.1096200  59.1882760
  52.9142880  49.1881280  58.6689100  38.3032350  54.0233290  71.9877580
  38.4123470  53.0828030  71.8472970  37.6512910  54.2888040  71.3391310
  44.3359110  53.1409630  58.3308850  44.3269210  53.8739320  57.7153360
  43.4157470  52.8941210  58.4235810  39.9365750  48.3624520  59.0755610
  39.3293700  49.1023420  59.0850910  40.4115100  48.4523880  58.2493810
  49.5098540  42.5275340  68.7512500  49.8779360  41.7070550  69.0792070
  48.6496740  42.5877230  69.1668150  52.8760570  41.4832280  59.5600060
  52.2473730  41.5877950  58.8458290  52.3812490  41.7029060  60.3493940
  47.3218710  53.2037870  56.9934040  47.4230690  53.0001860  56.0636020
  46.4220450  52.9496150  57.1981820  44.8444600  43.7618230  60.9757940
  44.1360750  44.2304570  61.4171550  45.1289080  43.1040240  61.6103130
  46.4700530  45.1814930  68.9750470  46.9685780  45.6560750  69.6402320
  46.6123480  44.2578450  69.1820500  48.8760030  40.4868890  62.4153730
  48.7527810  40.5055020  61.4663240  49.8244590  40.5347830  62.5352130
  45.9636820  55.7224190  61.6881710  46.2178320  55.6845580  60.7661080
  45.0149300  55.5957520  61.6809960  43.0479620  42.0703310  58.3508650
  43.8970150  42.5073460  58.2848840  42.6810890  42.3823570  59.1780710
  53.6767390  41.3982890  69.8178860  53.1740990  42.1388290  70.1572670
  54.4924050  41.7866890  69.5015650  51.9689400  46.6416070  63.2640220
  51.0279540  46.6566300  63.4387910  52.2833470  45.8552030  63.7100520
  41.9471040  48.3235670  56.8244180  42.7134310  48.2117030  57.3869610
  42.0245730  47.6273640  56.1720950  40.6417800  45.7560740  57.5077070
  40.7221390  44.8088250  57.6194470  41.5337550  46.0867620  57.6137730
  53.9714980  53.8124920  64.9394480  54.0962400  54.6356090  65.4118290
  54.8380540  53.6015650  64.5918630  41.4432510  55.9056130  64.6111610
  42.1794990  55.3571590  64.8820180  41.8273430  56.7712140  64.4717600
  38.3277990  51.9729700  60.4853120  37.4017770  52.2150840  60.4758530
  38.7934420  52.8003960  60.3637870  44.5534820  55.0786440  56.4337180
  45.3463430  55.3675270  55.9818970  44.0339170  54.6478610  55.7549660
  53.6064990  54.3056570  57.8573920  53.3206500  53.8921710  57.0428100
  53.4084540  55.2344280  57.7374440  45.0712220  50.2989850  56.2979530
  44.9662860  49.6842200  57.0240910  44.9036440  49.7755740  55.5142540
  48.3114950  49.3609880  56.9021520  47.7625050  49.8079180  57.5464260
  48.9334210  48.8559130  57.4259190  43.9790070  48.3200800  58.7986820
  44.4006490  48.1540670  59.6418210  44.1040910  47.5101030  58.3041960
  42.1417490  44.2997350  71.6057800  41.6113950  43.8088300  70.9781140
  42.8105560  44.7281550  71.0715730  46.4917710  47.3438410  56.0463920
  47.0123370  46.6287430  55.6805070  47.1386110  47.9824280  56.3464430
  51.0395550  48.7666810  71.3698990  51.4536570  48.9211890  72.2189410
  50.1046550  48.8922030  71.5324770  42.6289790  41.2659720  71.6855090
  42.5346660  40.6480470  70.9605960  42.0487180  41.9926010  71.4585000
  45.3951230  39.8232960  68.7182480  44.9468530  39.8457220  67.8728030
  44.7616430  39.4251980  69.3152780  45.8010780  48.7187290  69.3394920
  46.2198890  49.5620020  69.1671160  44.8819410  48.8559330  69.1101700
  48.1374680  46.4503470  70.7232760  48.2570890  45.8544610  71.4627600
  48.9968680  46.4873160  70.3034060  50.4762580  47.0040660  69.2995270
  49.9497800  47.5283280  68.6960410  50.8193920  47.6368050  69.9305000
  42.8748970  44.3934030  55.7444980  42.6738030  43.5301390  56.1058320
  42.7041020  44.3067390  54.8066580  43.6518200  55.0240300  70.4552650
  43.1139290  55.7486360  70.1361350  43.9052160  54.5470640  69.6649990
  50.3537280  39.2042260  58.2731860  50.6339570  38.3610160  58.6291280
  49.5803010  39.4365370  58.7870610  41.6731770  41.4934650  55.7322860
  41.9757670  41.5002080  54.8242010  42.4126360  41.1432510  56.2290520
  46.5080410  56.2591510  70.7139300  46.4339110  57.1626650  71.0211670
  45.6059250  55.9403410  70.6861370  44.8916700  40.4369270  56.7179060
  44.5438700  39.7593260  56.1381510  45.0929470  39.9758780  57.5322450
  47.0565740  55.4250020  58.3365660  47.9516530  55.7634990  58.3584420
  47.0883370  54.7029430  57.7089940  40.6961900  50.7977070  56.5652660
  41.1336770  51.3406740  57.2210240  41.1809630  49.9724020  56.5749000
  37.9107700  53.5866100  64.0172920  38.2410710  52.7187160  63.7851560
  38.3398700  53.7924620  64.8477880  42.5069620  51.9175110  61.6774890
  42.2065160  51.7940080  62.5778800  42.4007110  51.0583700  61.2690620
  38.3997910  54.4536690  66.7554550  37.9628900  54.6337490  67.5878700
  38.9675590  55.2111310  66.6136270  54.0360090  53.9553690  71.0431860
  53.4362080  54.0146250  70.2995780  54.1653990  53.0158670  71.1728710
  55.2761540  51.6971510  56.3801570  54.4454500  51.7648160  56.8508800
  55.4533370  52.5875630  56.0768430  54.7318000  48.4418990  58.8835770
  55.4936910  49.0115640  58.9895460  54.7472370  47.8746190  59.6544080
  38.2322340  46.9656920  63.1143430  37.5771180  46.6968560  62.4703130
  39.0700290  46.8561400  62.6645410  55.7377970  49.2969090  63.7277700
  56.1086800  48.5136410  63.3213670  56.3779900  49.9858190  63.5495000
  52.7211730  50.6805670  69.1408020  51.9071570  51.1102830  69.4033810
  53.1285930  51.2924080  68.5277070  54.7837170  48.7353360  56.0408290
  55.0586010  49.6432240  55.9127510  54.5947910  48.6715890  56.9770280
  51.1812780  41.7598210  57.3361920  51.5997660  41.5729190  56.4958580
  50.8748840  40.9077260  57.6464850  54.6802510  46.6722350  61.0337720
  54.3046110  45.9050280  60.6019010  53.9505630  47.0545050  61.5212650
  39.2698270  47.3509490  67.6546770  39.6371310  47.2636890  68.5342790
  38.7009090  46.5876040  67.5553630  54.0702130  45.8193870  70.6677240
  53.8388220  45.5906620  69.7675190  54.3306680  46.7393420  70.6222130
  37.4460420  44.1755850  59.0568760  36.5424500  44.4386050  58.8820420
  37.9301040  44.4467020  58.2768720  53.9553470  44.8979840  64.3344960
  54.4790950  44.4042490  63.7035130  54.5412890  45.0330200  65.0792530
  54.1343190  44.9819710  67.8564510  53.1845900  44.9483250  67.9709500
  54.3156200  45.8919820  67.6214280  39.9887630  43.2321390  56.9663140
  40.6979330  42.8104610  56.4810420  39.2727570  43.2996620  56.3346490
  39.6361790  39.2860720  56.0065790  40.3589920  39.8269660  56.3247010
  39.9086310  39.0124140  55.1307330  53.4453440  44.1553190  60.2737370
  53.9412560  43.9224060  61.0586250  53.2469510  43.3165030  59.8575010
  39.3253980  38.5366910  65.9088410  39.9730170  37.9864290  65.4683570
  39.7455820  38.7910060  66.7304220  54.8740600  42.7914140  62.8075050
  54.7639880  42.6370180  63.7457320  55.6348190  42.2635080  62.5650460
  53.2206320  38.7308270  69.2658050  53.8578540  39.3442410  69.6317240
  53.3681210  38.7668930  68.3207280  55.7630870  40.6222060  56.0481190
  56.6880180  40.4903240  55.8399480  55.7406660  40.7014880  57.0017640
  55.8369360  41.3932720  58.6737900  55.0420860  41.3277840  59.2030810
  56.0412640  42.3283360  58.6623250  52.7787780  55.4324270  62.6676290
  53.3746850  55.1108840  61.9910710  53.0365930  54.9596090  63.4589560
  39.0785980  38.6922580  68.6513730  38.7300800  39.1486400  69.4171910
  38.7473680  37.7979710  68.7336160  44.3856380  53.4201770  68.4176640
  44.1447740  53.6876330  67.5307160  45.3259020  53.5907500  68.4727500
  55.6460540  55.4396150  69.2187280  55.1518820  55.8365020  68.5014410
  55.0373830  54.8145360  69.6124560  40.5238380  54.8104430  69.9364700
  39.9298700  54.6789130  70.6754740  40.5162220  53.9742570  69.4706800
  49.9693400  38.1036660  68.1394730  49.0953240  38.4371770  67.9367660
  49.8604150  37.6309840  68.9646600  50.8765380  40.3107530  69.5236450
  50.5478740  39.4959290  69.1438180  51.8247680  40.2677340  69.4002140
  53.3299990  56.0819570  66.4974020  52.8702960  56.8335380  66.1232040
  52.7012450  55.3626040  66.4388820  40.1550610  52.1762810  68.8872740
  39.4284670  51.5568100  68.8198690  40.2159760  52.5703420  68.0170820
  43.7595710  54.3907810  65.6722150  44.2760730  53.7795170  65.1470410
  44.4093090  54.8936590  66.1633160  46.4991210  55.2816300  66.4991130
  46.7869020  55.0270600  65.6224140  47.0114430  54.7293660  67.0896700
  47.7168220  39.0206500  67.0787640  46.9340010  39.4952000  67.3584400
  47.4231150  38.1161330  66.9700820  52.2689290  39.7229600  65.1236730
  52.7097380  39.6674700  64.2758330  51.9996880  40.6387610  65.1946910
  54.1327860  39.3544840  63.1345550  54.0716260  38.4106060  62.9876570
  54.9119890  39.4624930  63.6799010  38.4380610  55.4937200  62.0969500
  38.2702650  54.8607880  62.7951390  37.5715120  55.6996600  61.7463690
  39.0608630  39.3253980  59.6001360  39.8187990  39.4382860  59.0265390
  38.5985800  40.1623180  59.5544790  45.6022440  41.4393250  62.5903670
  44.7896950  41.0650140  62.2499550  46.1064080  40.6838330  62.8924860
  50.1047420  38.1035700  63.8286740  50.7076790  38.6755910  64.3035260
  49.3640410  38.6675140  63.6060640  53.2482020  38.5057260  59.1027020
  53.4432650  39.4040710  59.3694450  52.4611890  38.2744340  59.5959970
  40.0443310  54.1870430  59.5419640  39.5190930  54.5678460  58.8381600
  39.9687890  54.8121200  60.2629350  41.4333780  39.8518030  58.1403330
  41.9626540  39.0647830  58.0111280  42.0662100  40.5309220  58.3738860
  43.6271620  39.5893170  61.1948720  42.9974360  38.8880480  61.3618850
  43.0876760  40.3497300  60.9781880  54.8008630  55.7457970  60.8633580
  54.9760820  55.0595710  60.2194500  54.1030200  56.2705020  60.4710250
  42.6436280  56.1352810  58.4168890  43.3755100  55.8512090  57.8692780
  42.9029950  55.8966090  59.3068270  41.8051070  52.2517540  58.4215220
  41.1759950  52.7202640  58.9701050  41.9198900  51.4066760  58.8561410
  49.2600790  46.3023200  44.5716420  49.1794840  45.3877810  44.3008130
  48.8465210  46.7990270  43.8656130  47.3918830  48.0802220  46.4525690
  46.6160930  47.6002660  46.7424260  48.0431760  47.4007870  46.2781850
  41.4084660  48.3922030  47.3301450  40.5769540  48.1370740  47.7297960
  42.0165640  48.4632800  48.0659370  51.4126260  52.4862410  45.2324820
  50.9507790  51.7149650  45.5611990  52.2251810  52.5128480  45.7377270
  41.3885920  52.4262120  47.5259470  41.6913960  51.5359860  47.3469690
  42.1329510  52.9832340  47.2981720  37.7809620  45.9529570  46.9983540
  38.3525730  45.1851770  46.9987180  37.7811160  46.2518330  46.0890150
  47.6389570  54.7720420  44.8528810  47.0201010  55.2277920  44.2823250
  48.4941350  54.9271880  44.4518510  46.8327820  50.7559410  46.4595850
  46.7636100  49.8149350  46.2984980  47.5947680  50.8460820  47.0318420
  39.0234490  41.3613930  48.7852470  38.8437330  40.4639680  49.0655230
  38.6214570  41.9085800  49.4599420  47.8632990  43.5629790  46.6864780
  48.2397810  42.6901670  46.5738450  47.7652500  43.8988490  45.7955220
  41.9938000  41.9355420  42.1482220  42.1004750  42.8359150  42.4550980
  41.0830360  41.8873390  41.8576870  51.6457110  41.0580230  43.6193120
  52.4666730  40.5676800  43.6618600  51.6791190  41.6477890  44.3724960
  39.6421160  43.8574430  47.3934810  40.3231270  44.1212800  48.0122210
  39.3269210  43.0175300  47.7272820  43.8345730  44.9041790  46.4807400
  44.3423950  45.4022760  47.1212420  44.3658970  44.1276990  46.3046760
  55.9356660  43.0746980  50.1836750  55.2308830  43.4628690  49.6651860
  56.2014580  43.7697270  50.7857680  42.1181830  39.5440350  50.7470820
  42.1200270  40.0612740  49.9416720  41.2886140  39.0670530  50.7240750
  48.5052920  49.6559660  42.2460720  47.8870190  50.1209110  41.6823440
  49.0176170  50.3487140  42.6630230  43.3684680  49.1835530  48.9244320
  43.0354060  49.8104450  49.5665390  43.5451360  49.7097410  48.1445990
  51.8818590  42.9980610  46.3920660  51.1774160  43.2865500  46.9723770
  52.2430750  43.8080720  46.0320220  41.7997160  41.2550310  48.7541270
  42.1413970  42.0992360  48.4595140  40.8612970  41.4034050  48.8706610
  42.5803780  51.1516330  50.7393500  43.1977780  51.8267410  50.4577950
  41.7196900  51.5604310  50.6481000  37.8736120  50.3416190  39.6200350
  37.4964100  50.8303290  38.8885250  38.1309190  51.0141470  40.2506880
  53.4981370  52.6155740  48.6548140  52.8144890  53.2854850  48.6464810
  54.0375660  52.8136390  47.8893000  54.9505510  42.4435400  46.7829870
  54.0030420  42.4774380  46.9145300  55.2755500  43.2574350  47.1679230
  45.4825050  38.7432580  45.0785860  45.7900030  38.1879470  44.3621360
  44.5525750  38.8777040  44.8958850  51.0340110  54.4599870  47.3693320
  51.0467270  54.0562160  46.5015580  50.4815330  55.2347160  47.2654750
  52.3285530  51.1816090  42.4583490  52.2181860  50.2390420  42.5832910
  52.3253780  51.5431730  43.3446250  50.4325550  49.3629710  48.6975930
  50.8494340  49.1489820  47.8629390  51.1565370  49.6202500  49.2684550
  47.8705810  46.8081410  41.8145980  46.9435090  46.7418790  42.0434450
  48.0230630  47.7461540  41.7001220  47.8574890  43.0798410  38.8113140
  46.9178560  43.2412370  38.8965600  48.1758150  43.7984090  38.2649130
  54.3787650  47.7616930  48.7892170  53.5506280  47.8310020  48.3142300
  54.9738130  48.3471240  48.3208000  51.9003100  48.3701710  42.3181230
  51.2815520  48.0321260  41.6707530  51.8827550  47.7261470  43.0260420
  51.3429660  44.5486250  49.7347040  50.9300840  45.3739960  49.9887030
  50.6105610  43.9631290  49.5423400  43.4762450  47.3346150  44.5965710
  43.0719450  46.6223400  44.1011610  43.5625570  46.9899390  45.4853750
  43.9444150  51.0213710  46.7604920  43.6472440  50.4159180  46.0812700
  44.8943970  51.0591020  46.6494280  42.1891070  44.1089360  48.3764750
  42.7405660  44.2184700  47.6018000  42.7034580  44.4826960  49.0919980
  52.0329760  54.5945580  50.4228020  51.5560320  55.4017770  50.2300630
  51.3491550  53.9423910  50.5754230  43.0362580  50.7595400  53.4112720
  42.1391110  50.9835370  53.6586120  43.0615450  50.8830340  52.4624120
  50.0767800  47.6088520  39.3253980  50.5161080  46.7710950  39.1791800
  50.7896220  48.2417920  39.4118120  41.8633800  47.6308720  51.9870090
  41.7241570  48.5031520  52.3557490  40.9815160  47.2881530  51.8418030
  48.1863180  52.5484590  43.2935220  48.6259090  53.2908920  42.8790610
  48.1250070  52.7911160  44.2174180  43.6614150  53.5730420  54.1955240
  43.6329580  53.9773370  53.3283670  43.4979120  52.6440780  54.0326840
  53.6584940  38.8631330  37.6395020  53.3457600  38.9558160  38.5394090
  54.4197410  39.4412360  37.5892450  40.1767080  46.2291130  42.0972360
  40.0564680  46.9553220  41.4853630  39.8667970  45.4594040  41.6200270
  55.6128970  54.3557520  55.4919410  56.0888690  54.8340410  56.1708490
  56.2336130  54.2875010  54.7664910  37.8152450  49.4006270  47.9041000
  37.8932870  49.5355040  46.9596720  38.4294130  48.6922160  48.0969120
  39.0600080  51.1006460  44.3147180  38.6528160  51.2421050  43.4600780
  39.9513090  50.8166620  44.1118390  55.0162220  51.5470370  52.6519420
  55.1425280  51.3082250  51.7336600  55.0583600  50.7154910  53.1241500
  48.8778960  55.2498370  51.2214230  49.3923630  55.1606380  52.0236660
  48.0348040  55.5958070  51.5142140  50.8533360  55.5353710  40.6498230
  50.6934500  55.2456650  41.5480060  50.6880070  54.7593840  40.1143460
  43.3321740  55.3152240  42.4269850  43.1564220  54.3987780  42.2137650
  42.4777480  55.6739530  42.6667650  50.5559490  53.0441270  39.2096230
  49.8624650  53.0418560  38.5498510  51.2982350  52.6200590  38.7790400
  50.1209420  54.6703980  43.2844720  50.5766370  53.8893360  43.5983340
  50.4601940  55.3810800  43.8285900  54.8686230  43.6002830  53.6169160
  54.2530500  44.1082500  53.0884620  54.5482650  42.7001160  53.5595100
  37.8711970  50.4420440  50.4435460  38.0343010  49.9725800  49.6254830
  38.3364420  49.9344000  51.1084300  42.6430740  39.5726200  45.4796030
  42.1998890  40.3535740  45.1480550  43.2015730  39.8956090  46.1866970
  46.9300550  42.4394720  51.0831350  46.4679920  42.6477740  51.8951290
  46.5278660  41.6254070  50.7802020  51.9305060  43.6603670  52.2128010
  51.0798650  43.3609420  52.5337080  51.7706850  43.9045680  51.3011830
  49.0254770  45.1605420  54.3126800  49.3508180  44.3269170  53.9729030
  49.8135100  45.6833940  54.4605130  45.7589560  39.1936900  40.3601860
  45.1343740  39.1896770  41.0855170  45.6719680  38.3267860  39.9637830
  44.6806640  40.1173530  47.3385630  44.9778970  41.0236360  47.2577650
  45.2292200  39.6292310  46.7245200  42.4344960  44.6959770  43.2077280
  42.2085880  44.4796940  44.1123900  41.6537490  45.1288230  42.8623250
  49.6642720  44.7023140  41.8067930  49.0651610  45.4258940  41.6231550
  50.2122330  44.6399920  41.0244380  44.8744170  45.5945350  53.8737550
  44.7787770  44.6540080  53.7237950  45.7176150  45.8160420  53.4785620
  48.2707590  43.3386680  43.8371210  48.6637160  43.6558880  43.0239900
  48.6324440  42.4598560  43.9515730  40.0054710  42.0059020  52.0271330
  39.6118100  42.8534230  52.2344110  39.3173110  41.3685390  52.2179970
  46.5799760  42.0893990  55.0968070  45.8898080  41.8966190  55.7314160
  47.3232060  42.3728630  55.6292370  37.3071760  39.9287480  46.0601410
  37.0184810  40.4990340  46.7726390  38.0517520  39.4491930  46.4232640
  48.8562730  45.9292430  47.9321990  48.1243850  46.4379240  48.2812090
  48.4587070  45.1122410  47.6310770  45.2940120  42.6046630  46.3374480
  45.2976180  42.1636580  45.4879020  46.1891240  42.9263960  46.4446300
  41.1442500  42.4873120  45.2968690  40.8042550  42.9648350  46.0535740
  40.3819820  42.0338240  44.9369790  45.3560270  43.6058710  39.3281240
  45.4773090  43.5645190  40.2767060  44.9708780  44.4682860  39.1727970
  49.3188640  41.3826110  47.3444930  49.3361380  41.8334760  48.1886780
  49.0704220  40.4831750  47.5578370  44.3681770  45.9159850  38.7264540
  43.7998670  45.4678100  38.1000450  45.0770770  46.2752630  38.1929690
  52.7459390  38.7958290  53.1831310  53.0705160  38.0647950  53.7089290
  52.7815900  38.4771930  52.2812300  39.4450950  49.8171870  52.6031270
  39.0605740  49.1765540  53.2014230  39.7563140  50.5207990  53.1726000
  45.5948090  46.6648410  48.0839890  45.9618220  46.1906980  48.8301230
  45.4053150  47.5389980  48.4248230  38.4588580  41.4092100  44.2133360
  38.1735500  41.0447770  45.0511980  38.3967440  40.6772560  43.5996500
  43.3847460  45.7057050  50.4024100  43.0804530  46.5849030  50.6274460
  44.3393920  45.7656840  50.4381540  41.9129250  49.9118040  40.9990950
  41.1391510  49.3715660  40.8389670  42.6423880  49.3924650  40.6608710
  52.6717230  48.9083400  46.7917340  53.3916350  49.4038690  46.4013450
  52.4699050  48.2301290  46.1471210  48.1327170  40.3021360  40.9346730
  47.3191780  39.8034530  40.8592040  47.9389120  41.1419610  40.5183080
  48.0536030  48.9792460  52.6786340  47.9873340  48.0588130  52.4243930
  47.4241170  49.0767900  53.3930980  50.8475560  44.6741010  39.2308890
  51.7355180  44.9858240  39.0560230  50.8180650  43.8013260  38.8389470
  41.9566650  49.5798420  44.6369760  42.4745320  48.7766680  44.5826650
  41.5050670  49.5177560  45.4786590  46.8436150  50.8464700  39.9097060
  47.1851850  51.5906930  39.4140380  46.0148860  51.1595820  40.2721890
  39.4411190  46.5459790  51.5495460  39.0826130  47.2113640  52.1368800
  39.1465750  45.7143340  51.9208080  42.6424310  47.0044030  54.4335010
  42.3424450  47.1501210  53.5362830  43.4135550  46.4449320  54.3408400
  47.9852760  51.8013030  52.4290140  47.9997300  50.8693990  52.2109050
  47.2777860  51.8872790  53.0679910  53.1189830  45.9852850  38.6988750
  53.0353550  46.4167070  37.8485190  53.8384020  46.4451200  39.1315570
  54.1963970  48.4420370  51.7758720  53.4712160  49.0349150  51.5788110
  54.7239430  48.4343910  50.9772090  54.1477080  52.8395110  41.4270880
  53.5053240  52.1850730  41.7014600  53.7607740  53.2450200  40.6511550
  49.7263560  50.1680540  45.2742570  50.0787380  49.5708670  44.6143940
  48.8425890  49.8424770  45.4450820  45.8126840  50.9278230  42.6812980
  46.4997970  51.4747440  43.0620570  45.0259260  51.4718960  42.7162590
  37.9519240  46.5451050  38.1730060  38.8214090  46.8275850  38.4565980
  37.4609560  47.3586920  38.0578870  45.1154050  47.9324260  42.2938340
  45.5716830  48.7429510  42.5198530  44.7642260  47.6147400  43.1256830
  47.4186660  53.4430600  49.5230640  48.0628880  53.6489980  50.2004060
  47.7816100  52.6819000  49.0701490  41.0165830  38.2761910  42.7660860
  40.8880460  38.2679810  43.7145780  40.1927850  38.6145000  42.4151870
  48.6918740  51.4462950  48.2408090  49.3340970  50.7456110  48.3540260
  49.2168090  52.2261390  48.0604980  52.5374460  51.7311570  37.9647230
  52.3112040  51.0142010  38.5571870  52.1470660  51.4824010  37.1268980
  50.4656360  52.2457850  51.4444150  50.8012600  52.8324540  52.1222070
  49.5456700  52.1150560  51.6741940  38.3190490  55.7578430  38.7391690
  38.6788130  56.3567770  38.0848960  38.1782830  56.3038320  39.5126720
  38.0159760  40.0353030  52.2267560  37.3018280  40.2349950  52.8320170
  38.4354800  39.2592600  52.5982360  52.1190710  49.6483510  39.6261390
  51.8312410  50.1096200  40.4139270  52.9142880  49.1881280  39.8945610
  38.3032350  54.0233290  53.2134090  38.4123470  53.0828030  53.0729480
  37.6512910  54.2888040  52.5647820  46.2944940  52.2949180  54.6132210
  45.9741810  51.5758420  55.1577900  45.6203300  52.9704250  54.6868270
  44.3359110  53.1409630  39.5565360  44.3269210  53.8739320  38.9409870
  43.4157470  52.8941210  39.6492320  39.9365750  48.3624520  40.3012120
  39.3293700  49.1023420  40.3107420  40.4115100  48.4523880  39.4750320
  49.5098540  42.5275340  49.9769010  49.8779360  41.7070550  50.3048580
  48.6496740  42.5877230  50.3924660  52.8760570  41.4832280  40.7856570
  52.2473730  41.5877950  40.0714800  52.3812490  41.7029060  41.5750450
  47.3218710  53.2037870  38.2190550  47.4230690  53.0001860  37.2892530
  46.4220450  52.9496150  38.4238330  44.8444600  43.7618230  42.2014450
  44.1360750  44.2304570  42.6428060  45.1289080  43.1040240  42.8359640
  46.4700530  45.1814930  50.2006980  46.9685780  45.6560750  50.8658830
  46.6123480  44.2578450  50.4077010  48.8760030  40.4868890  43.6410240
  48.7527810  40.5055020  42.6919750  49.8244590  40.5347830  43.7608640
  45.9636820  55.7224190  42.9138220  46.2178320  55.6845580  41.9917590
  45.0149300  55.5957520  42.9066470  43.0479620  42.0703310  39.5765160
  43.8970150  42.5073460  39.5105350  42.6810890  42.3823570  40.4037220
  53.6767390  41.3982890  51.0435370  53.1740990  42.1388290  51.3829180
  54.4924050  41.7866890  50.7272160  51.9689400  46.6416070  44.4896730
  51.0279540  46.6566300  44.6644420  52.2833470  45.8552030  44.9357030
  41.9471040  48.3235670  38.0500690  42.7134310  48.2117030  38.6126120
  42.0245730  47.6273640  37.3977460  40.6417800  45.7560740  38.7333580
  40.7221390  44.8088250  38.8450980  41.5337550  46.0867620  38.8394240
  53.9714980  53.8124920  46.1650990  54.0962400  54.6356090  46.6374800
  54.8380540  53.6015650  45.8175140  41.4432510  55.9056130  45.8368120
  42.1794990  55.3571590  46.1076690  41.8273430  56.7712140  45.6974110
  38.3277990  51.9729700  41.7109630  37.4017770  52.2150840  41.7015040
  38.7934420  52.8003960  41.5894380  40.4490790  55.0902200  55.0253700
  41.2503520  55.4114250  55.4389100  39.9342610  54.7297780  55.7473610
  44.5534820  55.0786440  37.6593690  45.3463430  55.3675270  37.2075480
  44.0339170  54.6478610  36.9806170  49.2855420  51.1982070  54.9729110
  48.6793580  51.2213670  54.2324860  48.9809530  50.4665110  55.5096360
  50.7155790  54.9262360  53.5838520  51.6677540  54.8420380  53.5338760
  50.5684010  55.5904070  54.2572310  53.6064990  54.3056570  39.0830430
  53.3206500  53.8921710  38.2684610  53.4084540  55.2344280  38.9630950
  38.1688600  47.5775660  53.9689750  38.6727620  46.9982940  54.5405980
  37.4296020  47.8615890  54.5066120  45.0712220  50.2989850  37.5236040
  44.9662860  49.6842200  38.2497420  44.9036440  49.7755740  36.7399050
  45.2226540  48.9846650  53.5025270  44.4572210  49.5531650  53.4179940
  45.4042500  48.6922860  52.6093500  48.3114950  49.3609880  38.1278030
  47.7625050  49.8079180  38.7720770  48.9334210  48.8559130  38.6515700
  52.3649890  50.7151980  54.0600290  53.1059360  51.0527740  53.5567750
  51.6022570  50.8844040  53.5070060  40.2011680  45.7205250  54.8639820
  40.2417020  45.4219120  55.7725050  41.0557180  46.1212860  54.7047340
  43.9790070  48.3200800  40.0243330  44.4006490  48.1540670  40.8674720
  44.1040910  47.5101030  39.5298470  42.1417490  44.2997350  52.8314310
  41.6113950  43.8088300  52.2037650  42.8105560  44.7281550  52.2972240
  46.4917710  47.3438410  37.2720430  47.0123370  46.6287430  36.9061580
  47.1386110  47.9824280  37.5720940  51.0395550  48.7666810  52.5955500
  51.4536570  48.9211890  53.4445920  50.1046550  48.8922030  52.7581280
  51.5117720  46.1062970  54.5994650  52.0938490  45.3515290  54.5115130
  51.6879490  46.6370410  53.8226130  42.6289790  41.2659720  52.9111600
  42.5346660  40.6480470  52.1862470  42.0487180  41.9926010  52.6841510
  45.3951230  39.8232960  49.9438990  44.9468530  39.8457220  49.0984540
  44.7616430  39.4251980  50.5409290  45.8010780  48.7187290  50.5651430
  46.2198890  49.5620020  50.3927670  44.8819410  48.8559330  50.3358210
  48.1374680  46.4503470  51.9489270  48.2570890  45.8544610  52.6884110
  48.9968680  46.4873160  51.5290570  50.4762580  47.0040660  50.5251780
  49.9497800  47.5283280  49.9216920  50.8193920  47.6368050  51.1561510
  42.8748970  44.3934030  36.9701490  42.6738030  43.5301390  37.3314830
  42.7041020  44.3067390  36.0323090  43.6518200  55.0240300  51.6809160
  43.1139290  55.7486360  51.3617860  43.9052160  54.5470640  50.8906500
  44.9043450  42.9924820  53.2065090  45.4943140  42.6840670  53.8942910
  44.0863690  42.5204570  53.3624990  49.7236880  42.6090630  53.4398110
  49.0352400  41.9472170  53.3748100  50.4442900  42.1628900  53.8846570
  50.3537280  39.2042260  39.4988370  50.6339570  38.3610160  39.8547790
  49.5803010  39.4365370  40.0127120  46.5080410  56.2591510  51.9395810
  46.4339110  57.1626650  52.2468180  45.6059250  55.9403410  51.9117880
  44.8916700  40.4369270  37.9435570  44.5438700  39.7593260  37.3638020
  45.0929470  39.9758780  38.7578960  47.0565740  55.4250020  39.5622170
  47.9516530  55.7634990  39.5840930  47.0883370  54.7029430  38.9346450
  40.6961900  50.7977070  37.7909170  41.1336770  51.3406740  38.4466750
  41.1809630  49.9724020  37.8005510  37.9107700  53.5866100  45.2429430
  38.2410710  52.7187160  45.0108070  38.3398700  53.7924620  46.0734390
  42.5069620  51.9175110  42.9031400  42.2065160  51.7940080  43.8035310
  42.4007110  51.0583700  42.4947130  38.3997910  54.4536690  47.9811060
  37.9628900  54.6337490  48.8135210  38.9675590  55.2111310  47.8392780
  54.0360090  53.9553690  52.2688370  53.4362080  54.0146250  51.5252290
  54.1653990  53.0158670  52.3985220  55.2761540  51.6971510  37.6058080
  54.4454500  51.7648160  38.0765310  55.4533370  52.5875630  37.3024940
  54.7318000  48.4418990  40.1092280  55.4936910  49.0115640  40.2151970
  54.7472370  47.8746190  40.8800590  38.2322340  46.9656920  44.3399940
  37.5771180  46.6968560  43.6959640  39.0700290  46.8561400  43.8901920
  55.7377970  49.2969090  44.9534210  56.1086800  48.5136410  44.5470180
  56.3779900  49.9858190  44.7751510  52.7211730  50.6805670  50.3664530
  51.9071570  51.1102830  50.6290320  53.1285930  51.2924080  49.7533580
  54.7837170  48.7353360  37.2664800  55.0586010  49.6432240  37.1384020
  54.5947910  48.6715890  38.2026790  51.1812780  41.7598210  38.5618430
  51.5997660  41.5729190  37.7215090  50.8748840  40.9077260  38.8721360
  54.6802510  46.6722350  42.2594230  54.3046110  45.9050280  41.8275520
  53.9505630  47.0545050  42.7469160  39.2698270  47.3509490  48.8803280
  39.6371310  47.2636890  49.7599300  38.7009090  46.5876040  48.7810140
  54.0702130  45.8193870  51.8933750  53.8388220  45.5906620  50.9931700
  54.3306680  46.7393420  51.8478640  38.8214270  44.2618580  52.7861700
  37.9270320  44.2285340  53.1255410  39.3611820  44.4605370  53.5512950
  52.5090200  41.0450300  54.6713450  53.3860380  41.0533700  55.0547450
  52.5211040  40.3081140  54.0605800  53.9553470  44.8979840  45.5601470
  54.4790950  44.4042490  44.9291640  54.5412890  45.0330200  46.3049040
  54.1343190  44.9819710  49.0821020  53.1845900  44.9483250  49.1966010
  54.3156200  45.8919820  48.8470790  53.4453440  44.1553190  41.4993880
  53.9412560  43.9224060  42.2842760  53.2469510  43.3165030  41.0831520
  39.3253980  38.5366910  47.1344920  39.9730170  37.9864290  46.6940080
  39.7455820  38.7910060  47.9560730  54.8740600  42.7914140  44.0331560
  54.7639880  42.6370180  44.9713830  55.6348190  42.2635080  43.7906970
  53.2206320  38.7308270  50.4914560  53.8578540  39.3442410  50.8573750
  53.3681210  38.7668930  49.5463790  55.7630870  40.6222060  37.2737700
  56.6880180  40.4903240  37.0655990  55.7406660  40.7014880  38.2274150
  55.8369360  41.3932720  39.8994410  55.0420860  41.3277840  40.4287320
  56.0412640  42.3283360  39.8879760  52.7787780  55.4324270  43.8932800
  53.3746850  55.1108840  43.2167220  53.0365930  54.9596090  44.6846070
  39.0785980  38.6922580  49.8770240  38.7300800  39.1486400  50.6428420
  38.7473680  37.7979710  49.9592670  40.6850350  51.8642180  54.0423430
  40.6419980  51.4935090  54.9237890  40.8161360  52.8019750  54.1825250
  44.3856380  53.4201770  49.6433150  44.1447740  53.6876330  48.7563670
  45.3259020  53.5907500  49.6984010  46.5910800  39.8834460  53.3989660
  46.5299690  40.4756290  54.1485070  47.5311180  39.7760420  53.2539920
  49.2285360  39.5404520  53.0381950  49.8425770  39.8583810  52.3763030
  49.7734920  39.0553110  53.6577810  55.6460540  55.4396150  50.4443790
  55.1518820  55.8365020  49.7270920  55.0373830  54.8145360  50.8381070
  39.7506620  38.2198780  53.1521010  40.2989610  38.0386830  52.3887120
  39.8161930  37.4292890  53.6877320  40.5238380  54.8104430  51.1621210
  39.9298700  54.6789130  51.9011250  40.5162220  53.9742570  50.6963310
  49.9693400  38.1036660  49.3651240  49.0953240  38.4371770  49.1624170
  49.8604150  37.6309840  50.1903110  50.8765380  40.3107530  50.7492960
  50.5478740  39.4959290  50.3694690  51.8247680  40.2677340  50.6258650
  53.3299990  56.0819570  47.7230530  52.8702960  56.8335380  47.3488550
  52.7012450  55.3626040  47.6645330  40.1550610  52.1762810  50.1129250
  39.4284670  51.5568100  50.0455200  40.2159760  52.5703420  49.2427330
  43.7595710  54.3907810  46.8978660  44.2760730  53.7795170  46.3726920
  44.4093090  54.8936590  47.3889670  46.4991210  55.2816300  47.7247640
  46.7869020  55.0270600  46.8480650  47.0114430  54.7293660  48.3153210
  47.7168220  39.0206500  48.3044150  46.9340010  39.4952000  48.5840910
  47.4231150  38.1161330  48.1957330  52.2689290  39.7229600  46.3493240
  52.7097380  39.6674700  45.5014840  51.9996880  40.6387610  46.4203420
  54.1327860  39.3544840  44.3602060  54.0716260  38.4106060  44.2133080
  54.9119890  39.4624930  44.9055520  38.4380610  55.4937200  43.3226010
  38.2702650  54.8607880  44.0207900  37.5715120  55.6996600  42.9720200
  45.6022440  41.4393250  43.8160180  44.7896950  41.0650140  43.4756060
  46.1064080  40.6838330  44.1181370  50.1047420  38.1035700  45.0543250
  50.7076790  38.6755910  45.5291770  49.3640410  38.6675140  44.8317150
  53.2482020  38.5057260  40.3283530  53.4432650  39.4040710  40.5950960
  52.4611890  38.2744340  40.8216480  40.0443310  54.1870430  40.7676150
  39.5190930  54.5678460  40.0638110  39.9687890  54.8121200  41.4885860
  43.6271620  39.5893170  42.4205230  42.9974360  38.8880480  42.5875360
  43.0876760  40.3497300  42.2038390  46.5663570  56.2032400  55.0915840
  47.4930880  55.9676670  55.1351800  46.5514000  57.0304400  54.6101870
  54.8008630  55.7457970  42.0890090  54.9760820  55.0595710  41.4451010
  54.1030200  56.2705020  41.6966760  43.7527180  38.8677150  54.8557720
  43.4711450  39.3710750  54.0918540  44.1346880  38.0698900  54.4899850
  42.6436280  56.1352810  39.6425400  43.3755100  55.8512090  39.0949290
  42.9029950  55.8966090  40.5324780  41.8051070  52.2517540  39.6471730
  41.1759950  52.7202640  40.1957560  41.9198900  51.4066760  40.0817920
  50.3542640  38.2830730  55.4338190  50.2408090  38.6025340  56.3289710
  51.1712380  38.6843240  55.1375470  53.1341130  55.4302260  54.9156880
  53.9266450  54.9351490  54.7082840  53.4274280  56.1092400  55.5232490
  49.2600790  46.3023200  25.7972930  49.1794840  45.3877810  25.5264640
  48.8465210  46.7990270  25.0912640  47.3918830  48.0802220  27.6782200
  46.6160930  47.6002660  27.9680770  48.0431760  47.4007870  27.5038360
  41.4084660  48.3922030  28.5557960  40.5769540  48.1370740  28.9554470
  42.0165640  48.4632800  29.2915880  51.4126260  52.4862410  26.4581330
  50.9507790  51.7149650  26.7868500  52.2251810  52.5128480  26.9633780
  41.3885920  52.4262120  28.7515980  41.6913960  51.5359860  28.5726200
  42.1329510  52.9832340  28.5238230  39.8176610  43.3523920  22.3400350
  38.9293310  43.6939890  22.2380230  40.1017800  43.1524240  21.4481180
  37.7809620  45.9529570  28.2240050  38.3525730  45.1851770  28.2243690
  37.7811160  46.2518330  27.3146660  47.6389570  54.7720420  26.0785320
  47.0201010  55.2277920  25.5079760  48.4941350  54.9271880  25.6775020
  46.8327820  50.7559410  27.6852360  46.7636100  49.8149350  27.5241490
  47.5947680  50.8460820  28.2574930  39.0234490  41.3613930  30.0108980
  38.8437330  40.4639680  30.2911740  38.6214570  41.9085800  30.6855930
  47.8632990  43.5629790  27.9121290  48.2397810  42.6901670  27.7994960
  47.7652500  43.8988490  27.0211730  41.9938000  41.9355420  23.3738730
  42.1004750  42.8359150  23.6807490  41.0830360  41.8873390  23.0833380
  51.6457110  41.0580230  24.8449630  52.4666730  40.5676800  24.8875110
  51.6791190  41.6477890  25.5981470  39.6421160  43.8574430  28.6191320
  40.3231270  44.1212800  29.2378720  39.3269210  43.0175300  28.9529330
  43.8345730  44.9041790  27.7063910  44.3423950  45.4022760  28.3468930
  44.3658970  44.1276990  27.5303270  55.9356660  43.0746980  31.4093260
  55.2308830  43.4628690  30.8908370  56.2014580  43.7697270  32.0114190
  42.1181830  39.5440350  31.9727330  42.1200270  40.0612740  31.1673230
  41.2886140  39.0670530  31.9497260  48.5052920  49.6559660  23.4717230
  47.8870190  50.1209110  22.9079950  49.0176170  50.3487140  23.8886740
  43.3684680  49.1835530  30.1500830  43.0354060  49.8104450  30.7921900
  43.5451360  49.7097410  29.3702500  51.8818590  42.9980610  27.6177170
  51.1774160  43.2865500  28.1980280  52.2430750  43.8080720  27.2576730
  41.7997160  41.2550310  29.9797780  42.1413970  42.0992360  29.6851650
  40.8612970  41.4034050  30.0963120  42.5803780  51.1516330  31.9650010
  43.1977780  51.8267410  31.6834460  41.7196900  51.5604310  31.8737510
  37.8736120  50.3416190  20.8456860  37.4964100  50.8303290  20.1141760
  38.1309190  51.0141470  21.4763390  53.4981370  52.6155740  29.8804650
  52.8144890  53.2854850  29.8721320  54.0375660  52.8136390  29.1149510
  54.9505510  42.4435400  28.0086380  54.0030420  42.4774380  28.1401810
  55.2755500  43.2574350  28.3935740  45.4825050  38.7432580  26.3042370
  45.7900030  38.1879470  25.5877870  44.5525750  38.8777040  26.1215360
  51.0340110  54.4599870  28.5949830  51.0467270  54.0562160  27.7272090
  50.4815330  55.2347160  28.4911260  52.3285530  51.1816090  23.6840000
  52.2181860  50.2390420  23.8089420  52.3253780  51.5431730  24.5702760
  50.4325550  49.3629710  29.9232440  50.8494340  49.1489820  29.0885900
  51.1565370  49.6202500  30.4941060  47.8705810  46.8081410  23.0402490
  46.9435090  46.7418790  23.2690960  48.0230630  47.7461540  22.9257730
  47.8574890  43.0798410  20.0369650  46.9178560  43.2412370  20.1222110
  48.1758150  43.7984090  19.4905640  54.3787650  47.7616930  30.0148680
  53.5506280  47.8310020  29.5398810  54.9738130  48.3471240  29.5464510
  51.9003100  48.3701710  23.5437740  51.2815520  48.0321260  22.8964040
  51.8827550  47.7261470  24.2516930  51.3429660  44.5486250  30.9603550
  50.9300840  45.3739960  31.2143540  50.6105610  43.9631290  30.7679910
  43.4762450  47.3346150  25.8222220  43.0719450  46.6223400  25.3268120
  43.5625570  46.9899390  26.7110260  43.9444150  51.0213710  27.9861430
  43.6472440  50.4159180  27.3069210  44.8943970  51.0591020  27.8750790
  42.1891070  44.1089360  29.6021260  42.7405660  44.2184700  28.8274510
  42.7034580  44.4826960  30.3176490  52.0329760  54.5945580  31.6484530
  51.5560320  55.4017770  31.4557140  51.3491550  53.9423910  31.8010740
  43.0362580  50.7595400  34.6369230  42.1391110  50.9835370  34.8842630
  43.0615450  50.8830340  33.6880630  50.0767800  47.6088520  20.5510490
  50.5161080  46.7710950  20.4048310  50.7896220  48.2417920  20.6374630
  41.8633800  47.6308720  33.2126600  41.7241570  48.5031520  33.5814000
  40.9815160  47.2881530  33.0674540  48.1863180  52.5484590  24.5191730
  48.6259090  53.2908920  24.1047120  48.1250070  52.7911160  25.4430690
  43.6614150  53.5730420  35.4211750  43.6329580  53.9773370  34.5540180
  43.4979120  52.6440780  35.2583350  53.6584940  38.8631330  18.8651530
  53.3457600  38.9558160  19.7650600  54.4197410  39.4412360  18.8148960
  40.1767080  46.2291130  23.3228870  40.0564680  46.9553220  22.7110140
  39.8667970  45.4594040  22.8456780  55.6128970  54.3557520  36.7175920
  56.0888690  54.8340410  37.3965000  56.2336130  54.2875010  35.9921420
  37.8152450  49.4006270  29.1297510  37.8932870  49.5355040  28.1853230
  38.4294130  48.6922160  29.3225630  39.0600080  51.1006460  25.5403690
  38.6528160  51.2421050  24.6857290  39.9513090  50.8166620  25.3374900
  55.0162220  51.5470370  33.8775930  55.1425280  51.3082250  32.9593110
  55.0583600  50.7154910  34.3498010  48.8778960  55.2498370  32.4470740
  49.3923630  55.1606380  33.2493170  48.0348040  55.5958070  32.7398650
  50.8533360  55.5353710  21.8754740  50.6934500  55.2456650  22.7736570
  50.6880070  54.7593840  21.3399970  43.3321740  55.3152240  23.6526360
  43.1564220  54.3987780  23.4394160  42.4777480  55.6739530  23.8924160
  50.5559490  53.0441270  20.4352740  49.8624650  53.0418560  19.7755020
  51.2982350  52.6200590  20.0046910  50.1209420  54.6703980  24.5101230
  50.5766370  53.8893360  24.8239850  50.4601940  55.3810800  25.0542410
  54.8686230  43.6002830  34.8425670  54.2530500  44.1082500  34.3141130
  54.5482650  42.7001160  34.7851610  37.8711970  50.4420440  31.6691970
  38.0343010  49.9725800  30.8511340  38.3364420  49.9344000  32.3340810
  42.6430740  39.5726200  26.7052540  42.1998890  40.3535740  26.3737060
  43.2015730  39.8956090  27.4123480  46.9300550  42.4394720  32.3087860
  46.4679920  42.6477740  33.1207800  46.5278660  41.6254070  32.0058530
  51.9305060  43.6603670  33.4384520  51.0798650  43.3609420  33.7593590
  51.7706850  43.9045680  32.5268340  49.0254770  45.1605420  35.5383310
  49.3508180  44.3269170  35.1985540  49.8135100  45.6833940  35.6861640
  45.7589560  39.1936900  21.5858370  45.1343740  39.1896770  22.3111680
  45.6719680  38.3267860  21.1894340  44.6806640  40.1173530  28.5642140
  44.9778970  41.0236360  28.4834160  45.2292200  39.6292310  27.9501710
  42.4344960  44.6959770  24.4333790  42.2085880  44.4796940  25.3380410
  41.6537490  45.1288230  24.0879760  49.6642720  44.7023140  23.0324440
  49.0651610  45.4258940  22.8488060  50.2122330  44.6399920  22.2500890
  44.8744170  45.5945350  35.0994060  44.7787770  44.6540080  34.9494460
  45.7176150  45.8160420  34.7042130  48.2707590  43.3386680  25.0627720
  48.6637160  43.6558880  24.2496410  48.6324440  42.4598560  25.1772240
  40.0054710  42.0059020  33.2527840  39.6118100  42.8534230  33.4600620
  39.3173110  41.3685390  33.4436480  46.5799760  42.0893990  36.3224580
  45.8898080  41.8966190  36.9570670  47.3232060  42.3728630  36.8548880
  37.3071760  39.9287480  27.2857920  37.0184810  40.4990340  27.9982900
  38.0517520  39.4491930  27.6489150  37.4941990  43.8707600  18.4960640
  37.4116660  44.8138360  18.6375630  37.1425050  43.7282510  17.6172990
  48.8562730  45.9292430  29.1578500  48.1243850  46.4379240  29.5068600
  48.4587070  45.1122410  28.8567280  45.2940120  42.6046630  27.5630990
  45.2976180  42.1636580  26.7135530  46.1891240  42.9263960  27.6702810
  41.1442500  42.4873120  26.5225200  40.8042550  42.9648350  27.2792250
  40.3819820  42.0338240  26.1626300  45.3560270  43.6058710  20.5537750
  45.4773090  43.5645190  21.5023570  44.9708780  44.4682860  20.3984480
  49.3188640  41.3826110  28.5701440  49.3361380  41.8334760  29.4143290
  49.0704220  40.4831750  28.7834880  44.3681770  45.9159850  19.9521050
  43.7998670  45.4678100  19.3256960  45.0770770  46.2752630  19.4186200
  52.7459390  38.7958290  34.4087820  53.0705160  38.0647950  34.9345800
  52.7815900  38.4771930  33.5068810  39.4450950  49.8171870  33.8287780
  39.0605740  49.1765540  34.4270740  39.7563140  50.5207990  34.3982510
  45.5948090  46.6648410  29.3096400  45.9618220  46.1906980  30.0557740
  45.4053150  47.5389980  29.6504740  38.4588580  41.4092100  25.4389870
  38.1735500  41.0447770  26.2768490  38.3967440  40.6772560  24.8253010
  43.3847460  45.7057050  31.6280610  43.0804530  46.5849030  31.8530970
  44.3393920  45.7656840  31.6638050  41.9129250  49.9118040  22.2247460
  41.1391510  49.3715660  22.0646180  42.6423880  49.3924650  21.8865220
  52.6717230  48.9083400  28.0173850  53.3916350  49.4038690  27.6269960
  52.4699050  48.2301290  27.3727720  48.1327170  40.3021360  22.1603240
  47.3191780  39.8034530  22.0848550  47.9389120  41.1419610  21.7439590
  48.0536030  48.9792460  33.9042850  47.9873340  48.0588130  33.6500440
  47.4241170  49.0767900  34.6187490  50.8475560  44.6741010  20.4565400
  51.7355180  44.9858240  20.2816740  50.8180650  43.8013260  20.0645980
  41.9566650  49.5798420  25.8626270  42.4745320  48.7766680  25.8083160
  41.5050670  49.5177560  26.7043100  46.8436150  50.8464700  21.1353570
  47.1851850  51.5906930  20.6396890  46.0148860  51.1595820  21.4978400
  39.4411190  46.5459790  32.7751970  39.0826130  47.2113640  33.3625310
  39.1465750  45.7143340  33.1464590  42.6424310  47.0044030  35.6591520
  42.3424450  47.1501210  34.7619340  43.4135550  46.4449320  35.5664910
  47.9852760  51.8013030  33.6546650  47.9997300  50.8693990  33.4365560
  47.2777860  51.8872790  34.2936420  53.1189830  45.9852850  19.9245260
  53.0353550  46.4167070  19.0741700  53.8384020  46.4451200  20.3572080
  54.1963970  48.4420370  33.0015230  53.4712160  49.0349150  32.8044620
  54.7239430  48.4343910  32.2028600  54.1477080  52.8395110  22.6527390
  53.5053240  52.1850730  22.9271110  53.7607740  53.2450200  21.8768060
  49.7263560  50.1680540  26.4999080  50.0787380  49.5708670  25.8400450
  48.8425890  49.8424770  26.6707330  45.8126840  50.9278230  23.9069490
  46.4997970  51.4747440  24.2877080  45.0259260  51.4718960  23.9419100
  37.9519240  46.5451050  19.3986570  38.8214090  46.8275850  19.6822490
  37.4609560  47.3586920  19.2835380  45.1154050  47.9324260  23.5194850
  45.5716830  48.7429510  23.7455040  44.7642260  47.6147400  24.3513340
  47.4186660  53.4430600  30.7487150  48.0628880  53.6489980  31.4260570
  47.7816100  52.6819000  30.2958000  41.0165830  38.2761910  23.9917370
  40.8880460  38.2679810  24.9402290  40.1927850  38.6145000  23.6408380
  48.6918740  51.4462950  29.4664600  49.3340970  50.7456110  29.5796770
  49.2168090  52.2261390  29.2861490  52.5374460  51.7311570  19.1903740
  52.3112040  51.0142010  19.7828380  52.1470660  51.4824010  18.3525490
  50.4656360  52.2457850  32.6700660  50.8012600  52.8324540  33.3478580
  49.5456700  52.1150560  32.8998450  38.3190490  55.7578430  19.9648200
  38.6788130  56.3567770  19.3105470  38.1782830  56.3038320  20.7383230
  38.0159760  40.0353030  33.4524070  37.3018280  40.2349950  34.0576680
  38.4354800  39.2592600  33.8238870  52.1190710  49.6483510  20.8517900
  51.8312410  50.1096200  21.6395780  52.9142880  49.1881280  21.1202120
  38.3032350  54.0233290  34.4390600  38.4123470  53.0828030  34.2985990
  37.6512910  54.2888040  33.7904330  46.2944940  52.2949180  35.8388720
  45.9741810  51.5758420  36.3834410  45.6203300  52.9704250  35.9124780
  44.3359110  53.1409630  20.7821870  44.3269210  53.8739320  20.1666380
  43.4157470  52.8941210  20.8748830  39.9365750  48.3624520  21.5268630
  39.3293700  49.1023420  21.5363930  40.4115100  48.4523880  20.7006830
  49.5098540  42.5275340  31.2025520  49.8779360  41.7070550  31.5305090
  48.6496740  42.5877230  31.6181170  52.8760570  41.4832280  22.0113080
  52.2473730  41.5877950  21.2971310  52.3812490  41.7029060  22.8006960
  47.3218710  53.2037870  19.4447060  47.4230690  53.0001860  18.5149040
  46.4220450  52.9496150  19.6494840  44.8444600  43.7618230  23.4270960
  44.1360750  44.2304570  23.8684570  45.1289080  43.1040240  24.0616150
  46.4700530  45.1814930  31.4263490  46.9685780  45.6560750  32.0915340
  46.6123480  44.2578450  31.6333520  48.8760030  40.4868890  24.8666750
  48.7527810  40.5055020  23.9176260  49.8244590  40.5347830  24.9865150
  45.9636820  55.7224190  24.1394730  46.2178320  55.6845580  23.2174100
  45.0149300  55.5957520  24.1322980  43.0479620  42.0703310  20.8021670
  43.8970150  42.5073460  20.7361860  42.6810890  42.3823570  21.6293730
  53.6767390  41.3982890  32.2691880  53.1740990  42.1388290  32.6085690
  54.4924050  41.7866890  31.9528670  51.9689400  46.6416070  25.7153240
  51.0279540  46.6566300  25.8900930  52.2833470  45.8552030  26.1613540
  41.9471040  48.3235670  19.2757200  42.7134310  48.2117030  19.8382630
  42.0245730  47.6273640  18.6233970  40.6417800  45.7560740  19.9590090
  40.7221390  44.8088250  20.0707490  41.5337550  46.0867620  20.0650750
  53.9714980  53.8124920  27.3907500  54.0962400  54.6356090  27.8631310
  54.8380540  53.6015650  27.0431650  41.4432510  55.9056130  27.0624630
  42.1794990  55.3571590  27.3333200  41.8273430  56.7712140  26.9230620
  38.3277990  51.9729700  22.9366140  37.4017770  52.2150840  22.9271550
  38.7934420  52.8003960  22.8150890  40.4490790  55.0902200  36.2510210
  41.2503520  55.4114250  36.6645610  39.9342610  54.7297780  36.9730120
  44.5534820  55.0786440  18.8850200  45.3463430  55.3675270  18.4331990
  44.0339170  54.6478610  18.2062680  49.2855420  51.1982070  36.1985620
  48.6793580  51.2213670  35.4581370  48.9809530  50.4665110  36.7352870
  50.7155790  54.9262360  34.8095030  51.6677540  54.8420380  34.7595270
  50.5684010  55.5904070  35.4828820  53.6064990  54.3056570  20.3086940
  53.3206500  53.8921710  19.4941120  53.4084540  55.2344280  20.1887460
  38.1688600  47.5775660  35.1946260  38.6727620  46.9982940  35.7662490
  37.4296020  47.8615890  35.7322630  45.0712220  50.2989850  18.7492550
  44.9662860  49.6842200  19.4753930  44.9036440  49.7755740  17.9655560
  45.2226540  48.9846650  34.7281780  44.4572210  49.5531650  34.6436450
  45.4042500  48.6922860  33.8350010  48.3114950  49.3609880  19.3534540
  47.7625050  49.8079180  19.9977280  48.9334210  48.8559130  19.8772210
  52.3649890  50.7151980  35.2856800  53.1059360  51.0527740  34.7824260
  51.6022570  50.8844040  34.7326570  40.2011680  45.7205250  36.0896330
  40.2417020  45.4219120  36.9981560  41.0557180  46.1212860  35.9303850
  43.9790070  48.3200800  21.2499840  44.4006490  48.1540670  22.0931230
  44.1040910  47.5101030  20.7554980  42.1417490  44.2997350  34.0570820
  41.6113950  43.8088300  33.4294160  42.8105560  44.7281550  33.5228750
  46.4917710  47.3438410  18.4976940  47.0123370  46.6287430  18.1318090
  47.1386110  47.9824280  18.7977450  51.0395550  48.7666810  33.8212010
  51.4536570  48.9211890  34.6702430  50.1046550  48.8922030  33.9837790
  51.5117720  46.1062970  35.8251160  52.0938490  45.3515290  35.7371640
  51.6879490  46.6370410  35.0482640  42.6289790  41.2659720  34.1368110
  42.5346660  40.6480470  33.4118980  42.0487180  41.9926010  33.9098020
  45.3951230  39.8232960  31.1695500  44.9468530  39.8457220  30.3241050
  44.7616430  39.4251980  31.7665800  45.8010780  48.7187290  31.7907940
  46.2198890  49.5620020  31.6184180  44.8819410  48.8559330  31.5614720
  48.1374680  46.4503470  33.1745780  48.2570890  45.8544610  33.9140620
  48.9968680  46.4873160  32.7547080  50.4762580  47.0040660  31.7508290
  49.9497800  47.5283280  31.1473430  50.8193920  47.6368050  32.3818020
  42.8748970  44.3934030  18.1958000  42.6738030  43.5301390  18.5571340
  42.7041020  44.3067390  17.2579600  43.6518200  55.0240300  32.9065670
  43.1139290  55.7486360  32.5874370  43.9052160  54.5470640  32.1163010
  44.9043450  42.9924820  34.4321600  45.4943140  42.6840670  35.1199420
  44.0863690  42.5204570  34.5881500  49.7236880  42.6090630  34.6654620
  49.0352400  41.9472170  34.6004610  50.4442900  42.1628900  35.1103080
  50.3537280  39.2042260  20.7244880  50.6339570  38.3610160  21.0804300
  49.5803010  39.4365370  21.2383630  41.6731770  41.4934650  18.1835880
  41.9757670  41.5002080  17.2755030  42.4126360  41.1432510  18.6803540
  46.5080410  56.2591510  33.1652320  46.4339110  57.1626650  33.4724690
  45.6059250  55.9403410  33.1374390  44.8916700  40.4369270  19.1692080
  44.5438700  39.7593260  18.5894530  45.0929470  39.9758780  19.9835470
  47.0565740  55.4250020  20.7878680  47.9516530  55.7634990  20.8097440
  47.0883370  54.7029430  20.1602960  40.6961900  50.7977070  19.0165680
  41.1336770  51.3406740  19.6723260  41.1809630  49.9724020  19.0262020
  37.9107700  53.5866100  26.4685940  38.2410710  52.7187160  26.2364580
  38.3398700  53.7924620  27.2990900  42.5069620  51.9175110  24.1287910
  42.2065160  51.7940080  25.0291820  42.4007110  51.0583700  23.7203640
  38.3997910  54.4536690  29.2067570  37.9628900  54.6337490  30.0391720
  38.9675590  55.2111310  29.0649290  54.0360090  53.9553690  33.4944880
  53.4362080  54.0146250  32.7508800  54.1653990  53.0158670  33.6241730
  55.2761540  51.6971510  18.8314590  54.4454500  51.7648160  19.3021820
  55.4533370  52.5875630  18.5281450  54.7318000  48.4418990  21.3348790
  55.4936910  49.0115640  21.4408480  54.7472370  47.8746190  22.1057100
  38.2322340  46.9656920  25.5656450  37.5771180  46.6968560  24.9216150
  39.0700290  46.8561400  25.1158430  55.7377970  49.2969090  26.1790720
  56.1086800  48.5136410  25.7726690  56.3779900  49.9858190  26.0008020
  52.7211730  50.6805670  31.5921040  51.9071570  51.1102830  31.8546830
  53.1285930  51.2924080  30.9790090  54.7837170  48.7353360  18.4921310
  55.0586010  49.6432240  18.3640530  54.5947910  48.6715890  19.4283300
  51.1812780  41.7598210  19.7874940  51.5997660  41.5729190  18.9471600
  50.8748840  40.9077260  20.0977870  54.6802510  46.6722350  23.4850740
  54.3046110  45.9050280  23.0532030  53.9505630  47.0545050  23.9725670
  39.2698270  47.3509490  30.1059790  39.6371310  47.2636890  30.9855810
  38.7009090  46.5876040  30.0066650  54.0702130  45.8193870  33.1190260
  53.8388220  45.5906620  32.2188210  54.3306680  46.7393420  33.0735150
  38.8214270  44.2618580  34.0118210  37.9270320  44.2285340  34.3511920
  39.3611820  44.4605370  34.7769460  52.5090200  41.0450300  35.8969960
  53.3860380  41.0533700  36.2803960  52.5211040  40.3081140  35.2862310
  37.4460420  44.1755850  21.5081780  36.5424500  44.4386050  21.3333440
  37.9301040  44.4467020  20.7281740  53.9553470  44.8979840  26.7857980
  54.4790950  44.4042490  26.1548150  54.5412890  45.0330200  27.5305550
  54.1343190  44.9819710  30.3077530  53.1845900  44.9483250  30.4222520
  54.3156200  45.8919820  30.0727300  39.9887630  43.2321390  19.4176160
  40.6979330  42.8104610  18.9323440  39.2727570  43.2996620  18.7859510
  39.6361790  39.2860720  18.4578810  40.3589920  39.8269660  18.7760030
  39.9086310  39.0124140  17.5820350  53.4453440  44.1553190  22.7250390
  53.9412560  43.9224060  23.5099270  53.2469510  43.3165030  22.3088030
  39.3253980  38.5366910  28.3601430  39.9730170  37.9864290  27.9196590
  39.7455820  38.7910060  29.1817240  54.8740600  42.7914140  25.2588070
  54.7639880  42.6370180  26.1970340  55.6348190  42.2635080  25.0163480
  53.2206320  38.7308270  31.7171070  53.8578540  39.3442410  32.0830260
  53.3681210  38.7668930  30.7720300  55.7630870  40.6222060  18.4994210
  56.6880180  40.4903240  18.2912500  55.7406660  40.7014880  19.4530660
  55.8369360  41.3932720  21.1250920  55.0420860  41.3277840  21.6543830
  56.0412640  42.3283360  21.1136270  52.7787780  55.4324270  25.1189310
  53.3746850  55.1108840  24.4423730  53.0365930  54.9596090  25.9102580
  39.0785980  38.6922580  31.1026750  38.7300800  39.1486400  31.8684930
  38.7473680  37.7979710  31.1849180  40.6850350  51.8642180  35.2679940
  40.6419980  51.4935090  36.1494400  40.8161360  52.8019750  35.4081760
  44.3856380  53.4201770  30.8689660  44.1447740  53.6876330  29.9820180
  45.3259020  53.5907500  30.9240520  46.5910800  39.8834460  34.6246170
  46.5299690  40.4756290  35.3741580  47.5311180  39.7760420  34.4796430
  49.2285360  39.5404520  34.2638460  49.8425770  39.8583810  33.6019540
  49.7734920  39.0553110  34.8834320  55.6460540  55.4396150  31.6700300
  55.1518820  55.8365020  30.9527430  55.0373830  54.8145360  32.0637580
  40.5238380  54.8104430  32.3877720  39.9298700  54.6789130  33.1267760
  40.5162220  53.9742570  31.9219820  49.9693400  38.1036660  30.5907750
  49.0953240  38.4371770  30.3880680  49.8604150  37.6309840  31.4159620
  50.8765380  40.3107530  31.9749470  50.5478740  39.4959290  31.5951200
  51.8247680  40.2677340  31.8515160  53.3299990  56.0819570  28.9487040
  52.8702960  56.8335380  28.5745060  52.7012450  55.3626040  28.8901840
  40.1550610  52.1762810  31.3385760  39.4284670  51.5568100  31.2711710
  40.2159760  52.5703420  30.4683840  43.7595710  54.3907810  28.1235170
  44.2760730  53.7795170  27.5983430  44.4093090  54.8936590  28.6146180
  46.4991210  55.2816300  28.9504150  46.7869020  55.0270600  28.0737160
  47.0114430  54.7293660  29.5409720  47.7168220  39.0206500  29.5300660
  46.9340010  39.4952000  29.8097420  47.4231150  38.1161330  29.4213840
  52.2689290  39.7229600  27.5749750  52.7097380  39.6674700  26.7271350
  51.9996880  40.6387610  27.6459930  54.1327860  39.3544840  25.5858570
  54.0716260  38.4106060  25.4389590  54.9119890  39.4624930  26.1312030
  38.4380610  55.4937200  24.5482520  38.2702650  54.8607880  25.2464410
  37.5715120  55.6996600  24.1976710  39.0608630  39.3253980  22.0514380
  39.8187990  39.4382860  21.4778410  38.5985800  40.1623180  22.0057810
  45.6022440  41.4393250  25.0416690  44.7896950  41.0650140  24.7012570
  46.1064080  40.6838330  25.3437880  50.1047420  38.1035700  26.2799760
  50.7076790  38.6755910  26.7548280  49.3640410  38.6675140  26.0573660
  53.2482020  38.5057260  21.5540040  53.4432650  39.4040710  21.8207470
  52.4611890  38.2744340  22.0472990  40.0443310  54.1870430  21.9932660
  39.5190930  54.5678460  21.2894620  39.9687890  54.8121200  22.7142370
  41.4333780  39.8518030  20.5916350  41.9626540  39.0647830  20.4624300
  42.0662100  40.5309220  20.8251880  43.6271620  39.5893170  23.6461740
  42.9974360  38.8880480  23.8131870  43.0876760  40.3497300  23.4294900
  46.5663570  56.2032400  36.3172350  47.4930880  55.9676670  36.3608310
  46.5514000  57.0304400  35.8358380  54.8008630  55.7457970  23.3146600
  54.9760820  55.0595710  22.6707520  54.1030200  56.2705020  22.9223270
  43.7527180  38.8677150  36.0814230  43.4711450  39.3710750  35.3175050
  44.1346880  38.0698900  35.7156360  42.6436280  56.1352810  20.8681910
  43.3755100  55.8512090  20.3205800  42.9029950  55.8966090  21.7581290
  41.8051070  52.2517540  20.8728240  41.1759950  52.7202640  21.4214070
  41.9198900  51.4066760  21.3074430  50.3542640  38.2830730  36.6594700
  50.2408090  38.6025340  37.5546220  51.1712380  38.6843240  36.3631980
  53.1341130  55.4302260  36.1413390  53.9266450  54.9351490  35.9339350
  53.4274280  56.1092400  36.7489000  49.2600790  46.3023200   7.0229440
  49.1794840  45.3877810   6.7521150  48.8465210  46.7990270   6.3169150
  47.3918830  48.0802220   8.9038710  46.6160930  47.6002660   9.1937280
  48.0431760  47.4007870   8.7294870  41.4084660  48.3922030   9.7814470
  40.5769540  48.1370740  10.1810980  42.0165640  48.4632800  10.5172390
  51.4126260  52.4862410   7.6837840  50.9507790  51.7149650   8.0125010
  52.2251810  52.5128480   8.1890290  41.3885920  52.4262120   9.9772490
  41.6913960  51.5359860   9.7982710  42.1329510  52.9832340   9.7494740
  39.8176610  43.3523920   3.5656860  38.9293310  43.6939890   3.4636740
  40.1017800  43.1524240   2.6737690  37.7809620  45.9529570   9.4496560
  38.3525730  45.1851770   9.4500200  37.7811160  46.2518330   8.5403170
  47.6389570  54.7720420   7.3041830  47.0201010  55.2277920   6.7336270
  48.4941350  54.9271880   6.9031530  46.8327820  50.7559410   8.9108870
  46.7636100  49.8149350   8.7498000  47.5947680  50.8460820   9.4831440
  39.0234490  41.3613930  11.2365490  38.8437330  40.4639680  11.5168250
  38.6214570  41.9085800  11.9112440  47.8632990  43.5629790   9.1377800
  48.2397810  42.6901670   9.0251470  47.7652500  43.8988490   8.2468240
  41.9938000  41.9355420   4.5995240  42.1004750  42.8359150   4.9064000
  41.0830360  41.8873390   4.3089890  51.6457110  41.0580230   6.0706140
  52.4666730  40.5676800   6.1131620  51.6791190  41.6477890   6.8237980
  39.6421160  43.8574430   9.8447830  40.3231270  44.1212800  10.4635230
  39.3269210  43.0175300  10.1785840  43.8345730  44.9041790   8.9320420
  44.3423950  45.4022760   9.5725440  44.3658970  44.1276990   8.7559780
  55.9356660  43.0746980  12.6349770  55.2308830  43.4628690  12.1164880
  56.2014580  43.7697270  13.2370700  42.1181830  39.5440350  13.1983840
  42.1200270  40.0612740  12.3929740  41.2886140  39.0670530  13.1753770
  48.5052920  49.6559660   4.6973740  47.8870190  50.1209110   4.1336460
  49.0176170  50.3487140   5.1143250  43.3684680  49.1835530  11.3757340
  43.0354060  49.8104450  12.0178410  43.5451360  49.7097410  10.5959010
  51.8818590  42.9980610   8.8433680  51.1774160  43.2865500   9.4236790
  52.2430750  43.8080720   8.4833240  41.7997160  41.2550310  11.2054290
  42.1413970  42.0992360  10.9108160  40.8612970  41.4034050  11.3219630
  42.5803780  51.1516330  13.1906520  43.1977780  51.8267410  12.9090970
  41.7196900  51.5604310  13.0994020  37.8736120  50.3416190   2.0713370
  37.4964100  50.8303290   1.3398270  38.1309190  51.0141470   2.7019900
  53.4981370  52.6155740  11.1061160  52.8144890  53.2854850  11.0977830
  54.0375660  52.8136390  10.3406020  54.9505510  42.4435400   9.2342890
  54.0030420  42.4774380   9.3658320  55.2755500  43.2574350   9.6192250
  45.4825050  38.7432580   7.5298880  45.7900030  38.1879470   6.8134380
  44.5525750  38.8777040   7.3471870  51.0340110  54.4599870   9.8206340
  51.0467270  54.0562160   8.9528600  50.4815330  55.2347160   9.7167770
  52.3285530  51.1816090   4.9096510  52.2181860  50.2390420   5.0345930
  52.3253780  51.5431730   5.7959270  50.4325550  49.3629710  11.1488950
  50.8494340  49.1489820  10.3142410  51.1565370  49.6202500  11.7197570
  47.8705810  46.8081410   4.2659000  46.9435090  46.7418790   4.4947470
  48.0230630  47.7461540   4.1514240  54.3787650  47.7616930  11.2405190
  53.5506280  47.8310020  10.7655320  54.9738130  48.3471240  10.7721020
  51.9003100  48.3701710   4.7694250  51.2815520  48.0321260   4.1220550
  51.8827550  47.7261470   5.4773440  51.3429660  44.5486250  12.1860060
  50.9300840  45.3739960  12.4400050  50.6105610  43.9631290  11.9936420
  43.4762450  47.3346150   7.0478730  43.0719450  46.6223400   6.5524630
  43.5625570  46.9899390   7.9366770  43.9444150  51.0213710   9.2117940
  43.6472440  50.4159180   8.5325720  44.8943970  51.0591020   9.1007300
  42.1891070  44.1089360  10.8277770  42.7405660  44.2184700  10.0531020
  42.7034580  44.4826960  11.5433000  52.0329760  54.5945580  12.8741040
  51.5560320  55.4017770  12.6813650  51.3491550  53.9423910  13.0267250
  43.0362580  50.7595400  15.8625740  42.1391110  50.9835370  16.1099140
  43.0615450  50.8830340  14.9137140  50.0767800  47.6088520   1.7767000
  50.5161080  46.7710950   1.6304820  50.7896220  48.2417920   1.8631140
  41.8633800  47.6308720  14.4383110  41.7241570  48.5031520  14.8070510
  40.9815160  47.2881530  14.2931050  48.1863180  52.5484590   5.7448240
  48.6259090  53.2908920   5.3303630  48.1250070  52.7911160   6.6687200
  43.6614150  53.5730420  16.6468260  43.6329580  53.9773370  15.7796690
  43.4979120  52.6440780  16.4839860  40.1767080  46.2291130   4.5485380
  40.0564680  46.9553220   3.9366650  39.8667970  45.4594040   4.0713290
  55.6128970  54.3557520  17.9432430  56.0888690  54.8340410  18.6221510
  56.2336130  54.2875010  17.2177930  37.8152450  49.4006270  10.3554020
  37.8932870  49.5355040   9.4109740  38.4294130  48.6922160  10.5482140
  39.0600080  51.1006460   6.7660200  38.6528160  51.2421050   5.9113800
  39.9513090  50.8166620   6.5631410  55.0162220  51.5470370  15.1032440
  55.1425280  51.3082250  14.1849620  55.0583600  50.7154910  15.5754520
  48.8778960  55.2498370  13.6727250  49.3923630  55.1606380  14.4749680
  48.0348040  55.5958070  13.9655160  50.8533360  55.5353710   3.1011250
  50.6934500  55.2456650   3.9993080  50.6880070  54.7593840   2.5656480
  43.3321740  55.3152240   4.8782870  43.1564220  54.3987780   4.6650670
  42.4777480  55.6739530   5.1180670  50.1209420  54.6703980   5.7357740
  50.5766370  53.8893360   6.0496360  50.4601940  55.3810800   6.2798920
  54.8686230  43.6002830  16.0682180  54.2530500  44.1082500  15.5397640
  54.5482650  42.7001160  16.0108120  37.8711970  50.4420440  12.8948480
  38.0343010  49.9725800  12.0767850  38.3364420  49.9344000  13.5597320
  42.6430740  39.5726200   7.9309050  42.1998890  40.3535740   7.5993570
  43.2015730  39.8956090   8.6379990  46.9300550  42.4394720  13.5344370
  46.4679920  42.6477740  14.3464310  46.5278660  41.6254070  13.2315040
  51.9305060  43.6603670  14.6641030  51.0798650  43.3609420  14.9850100
  51.7706850  43.9045680  13.7524850  49.0254770  45.1605420  16.7639820
  49.3508180  44.3269170  16.4242050  49.8135100  45.6833940  16.9118150
  45.7589560  39.1936900   2.8114880  45.1343740  39.1896770   3.5368190
  45.6719680  38.3267860   2.4150850  44.6806640  40.1173530   9.7898650
  44.9778970  41.0236360   9.7090670  45.2292200  39.6292310   9.1758220
  42.4344960  44.6959770   5.6590300  42.2085880  44.4796940   6.5636920
  41.6537490  45.1288230   5.3136270  49.6642720  44.7023140   4.2580950
  49.0651610  45.4258940   4.0744570  50.2122330  44.6399920   3.4757400
  44.8744170  45.5945350  16.3250570  44.7787770  44.6540080  16.1750970
  45.7176150  45.8160420  15.9298640  48.2707590  43.3386680   6.2884230
  48.6637160  43.6558880   5.4752920  48.6324440  42.4598560   6.4028750
  40.0054710  42.0059020  14.4784350  39.6118100  42.8534230  14.6857130
  39.3173110  41.3685390  14.6692990  46.5799760  42.0893990  17.5481090
  45.8898080  41.8966190  18.1827180  47.3232060  42.3728630  18.0805390
  37.3071760  39.9287480   8.5114430  37.0184810  40.4990340   9.2239410
  38.0517520  39.4491930   8.8745660  48.8562730  45.9292430  10.3835010
  48.1243850  46.4379240  10.7325110  48.4587070  45.1122410  10.0823790
  45.2940120  42.6046630   8.7887500  45.2976180  42.1636580   7.9392040
  46.1891240  42.9263960   8.8959320  41.1442500  42.4873120   7.7481710
  40.8042550  42.9648350   8.5048760  40.3819820  42.0338240   7.3882810
  45.3560270  43.6058710   1.7794260  45.4773090  43.5645190   2.7280080
  44.9708780  44.4682860   1.6240990  49.3188640  41.3826110   9.7957950
  49.3361380  41.8334760  10.6399800  49.0704220  40.4831750  10.0091390
  52.7459390  38.7958290  15.6344330  53.0705160  38.0647950  16.1602310
  52.7815900  38.4771930  14.7325320  39.4450950  49.8171870  15.0544290
  39.0605740  49.1765540  15.6527250  39.7563140  50.5207990  15.6239020
  45.5948090  46.6648410  10.5352910  45.9618220  46.1906980  11.2814250
  45.4053150  47.5389980  10.8761250  38.4588580  41.4092100   6.6646380
  38.1735500  41.0447770   7.5025000  38.3967440  40.6772560   6.0509520
  43.3847460  45.7057050  12.8537120  43.0804530  46.5849030  13.0787480
  44.3393920  45.7656840  12.8894560  41.9129250  49.9118040   3.4503970
  41.1391510  49.3715660   3.2902690  42.6423880  49.3924650   3.1121730
  52.6717230  48.9083400   9.2430360  53.3916350  49.4038690   8.8526470
  52.4699050  48.2301290   8.5984230  48.1327170  40.3021360   3.3859750
  47.3191780  39.8034530   3.3105060  47.9389120  41.1419610   2.9696100
  48.0536030  48.9792460  15.1299360  47.9873340  48.0588130  14.8756950
  47.4241170  49.0767900  15.8444000  41.9566650  49.5798420   7.0882780
  42.4745320  48.7766680   7.0339670  41.5050670  49.5177560   7.9299610
  46.8436150  50.8464700   2.3610080  47.1851850  51.5906930   1.8653400
  46.0148860  51.1595820   2.7234910  39.4411190  46.5459790  14.0008480
  39.0826130  47.2113640  14.5881820  39.1465750  45.7143340  14.3721100
  42.6424310  47.0044030  16.8848030  42.3424450  47.1501210  15.9875850
  43.4135550  46.4449320  16.7921420  47.9852760  51.8013030  14.8803160
  47.9997300  50.8693990  14.6622070  47.2777860  51.8872790  15.5192930
  54.1963970  48.4420370  14.2271740  53.4712160  49.0349150  14.0301130
  54.7239430  48.4343910  13.4285110  54.1477080  52.8395110   3.8783900
  53.5053240  52.1850730   4.1527620  53.7607740  53.2450200   3.1024570
  49.7263560  50.1680540   7.7255590  50.0787380  49.5708670   7.0656960
  48.8425890  49.8424770   7.8963840  45.8126840  50.9278230   5.1326000
  46.4997970  51.4747440   5.5133590  45.0259260  51.4718960   5.1675610
  45.1154050  47.9324260   4.7451360  45.5716830  48.7429510   4.9711550
  44.7642260  47.6147400   5.5769850  47.4186660  53.4430600  11.9743660
  48.0628880  53.6489980  12.6517080  47.7816100  52.6819000  11.5214510
  41.0165830  38.2761910   5.2173880  40.8880460  38.2679810   6.1658800
  40.1927850  38.6145000   4.8664890  48.6918740  51.4462950  10.6921110
  49.3340970  50.7456110  10.8053280  49.2168090  52.2261390  10.5118000
  50.4656360  52.2457850  13.8957170  50.8012600  52.8324540  14.5735090
  49.5456700  52.1150560  14.1254960  38.0159760  40.0353030  14.6780580
  37.3018280  40.2349950  15.2833190  38.4354800  39.2592600  15.0495380
  52.1190710  49.6483510   2.0774410  51.8312410  50.1096200   2.8652290
  52.9142880  49.1881280   2.3458630  38.3032350  54.0233290  15.6647110
  38.4123470  53.0828030  15.5242500  37.6512910  54.2888040  15.0160840
  46.2944940  52.2949180  17.0645230  45.9741810  51.5758420  17.6090920
  45.6203300  52.9704250  17.1381290  44.3359110  53.1409630   2.0078380
  44.3269210  53.8739320   1.3922890  43.4157470  52.8941210   2.1005340
  39.9365750  48.3624520   2.7525140  39.3293700  49.1023420   2.7620440
  40.4115100  48.4523880   1.9263340  49.5098540  42.5275340  12.4282030
  49.8779360  41.7070550  12.7561600  48.6496740  42.5877230  12.8437680
  52.8760570  41.4832280   3.2369590  52.2473730  41.5877950   2.5227820
  52.3812490  41.7029060   4.0263470  44.8444600  43.7618230   4.6527470
  44.1360750  44.2304570   5.0941080  45.1289080  43.1040240   5.2872660
  46.4700530  45.1814930  12.6520000  46.9685780  45.6560750  13.3171850
  46.6123480  44.2578450  12.8590030  48.8760030  40.4868890   6.0923260
  48.7527810  40.5055020   5.1432770  49.8244590  40.5347830   6.2121660
  45.9636820  55.7224190   5.3651240  46.2178320  55.6845580   4.4430610
  45.0149300  55.5957520   5.3579490  43.0479620  42.0703310   2.0278180
  43.8970150  42.5073460   1.9618370  42.6810890  42.3823570   2.8550240
  53.6767390  41.3982890  13.4948390  53.1740990  42.1388290  13.8342200
  54.4924050  41.7866890  13.1785180  51.9689400  46.6416070   6.9409750
  51.0279540  46.6566300   7.1157440  52.2833470  45.8552030   7.3870050
  53.9714980  53.8124920   8.6164010  54.0962400  54.6356090   9.0887820
  54.8380540  53.6015650   8.2688160  41.4432510  55.9056130   8.2881140
  42.1794990  55.3571590   8.5589710  41.8273430  56.7712140   8.1487130
  38.3277990  51.9729700   4.1622650  37.4017770  52.2150840   4.1528060
  38.7934420  52.8003960   4.0407400  40.4490790  55.0902200  17.4766720
  41.2503520  55.4114250  17.8902120  39.9342610  54.7297780  18.1986630
  49.2855420  51.1982070  17.4242130  48.6793580  51.2213670  16.6837880
  48.9809530  50.4665110  17.9609380  50.7155790  54.9262360  16.0351540
  51.6677540  54.8420380  15.9851780  50.5684010  55.5904070  16.7085330
  38.1688600  47.5775660  16.4202770  38.6727620  46.9982940  16.9919000
  37.4296020  47.8615890  16.9579140  45.2226540  48.9846650  15.9538290
  44.4572210  49.5531650  15.8692960  45.4042500  48.6922860  15.0606520
  52.3649890  50.7151980  16.5113310  53.1059360  51.0527740  16.0080770
  51.6022570  50.8844040  15.9583080  40.2011680  45.7205250  17.3152840
  40.2417020  45.4219120  18.2238070  41.0557180  46.1212860  17.1560360
  43.9790070  48.3200800   2.4756350  44.4006490  48.1540670   3.3187740
  44.1040910  47.5101030   1.9811490  42.1417490  44.2997350  15.2827330
  41.6113950  43.8088300  14.6550670  42.8105560  44.7281550  14.7485260
  51.0395550  48.7666810  15.0468520  51.4536570  48.9211890  15.8958940
  50.1046550  48.8922030  15.2094300  51.5117720  46.1062970  17.0507670
  52.0938490  45.3515290  16.9628150  51.6879490  46.6370410  16.2739150
  42.6289790  41.2659720  15.3624620  42.5346660  40.6480470  14.6375490
  42.0487180  41.9926010  15.1354530  45.3951230  39.8232960  12.3952010
  44.9468530  39.8457220  11.5497560  44.7616430  39.4251980  12.9922310
  45.8010780  48.7187290  13.0164450  46.2198890  49.5620020  12.8440690
  44.8819410  48.8559330  12.7871230  48.1374680  46.4503470  14.4002290
  48.2570890  45.8544610  15.1397130  48.9968680  46.4873160  13.9803590
  50.4762580  47.0040660  12.9764800  49.9497800  47.5283280  12.3729940
  50.8193920  47.6368050  13.6074530  43.6518200  55.0240300  14.1322180
  43.1139290  55.7486360  13.8130880  43.9052160  54.5470640  13.3419520
  44.9043450  42.9924820  15.6578110  45.4943140  42.6840670  16.3455930
  44.0863690  42.5204570  15.8138010  49.7236880  42.6090630  15.8911130
  49.0352400  41.9472170  15.8261120  50.4442900  42.1628900  16.3359590
  50.3537280  39.2042260   1.9501390  50.6339570  38.3610160   2.3060810
  49.5803010  39.4365370   2.4640140  46.5080410  56.2591510  14.3908830
  46.4339110  57.1626650  14.6981200  45.6059250  55.9403410  14.3630900
  47.0565740  55.4250020   2.0135190  47.9516530  55.7634990   2.0353950
  47.0883370  54.7029430   1.3859470  37.9107700  53.5866100   7.6942450
  38.2410710  52.7187160   7.4621090  38.3398700  53.7924620   8.5247410
  42.5069620  51.9175110   5.3544420  42.2065160  51.7940080   6.2548330
  42.4007110  51.0583700   4.9460150  38.3997910  54.4536690  10.4324080
  37.9628900  54.6337490  11.2648230  38.9675590  55.2111310  10.2905800
  54.0360090  53.9553690  14.7201390  53.4362080  54.0146250  13.9765310
  54.1653990  53.0158670  14.8498240  54.7318000  48.4418990   2.5605300
  55.4936910  49.0115640   2.6664990  54.7472370  47.8746190   3.3313610
  38.2322340  46.9656920   6.7912960  37.5771180  46.6968560   6.1472660
  39.0700290  46.8561400   6.3414940  55.7377970  49.2969090   7.4047230
  56.1086800  48.5136410   6.9983200  56.3779900  49.9858190   7.2264530
  52.7211730  50.6805670  12.8177550  51.9071570  51.1102830  13.0803340
  53.1285930  51.2924080  12.2046600  54.6802510  46.6722350   4.7107250
  54.3046110  45.9050280   4.2788540  53.9505630  47.0545050   5.1982180
  39.2698270  47.3509490  11.3316300  39.6371310  47.2636890  12.2112320
  38.7009090  46.5876040  11.2323160  54.0702130  45.8193870  14.3446770
  53.8388220  45.5906620  13.4444720  54.3306680  46.7393420  14.2991660
  38.8214270  44.2618580  15.2374720  37.9270320  44.2285340  15.5768430
  39.3611820  44.4605370  16.0025970  52.5090200  41.0450300  17.1226470
  53.3860380  41.0533700  17.5060470  52.5211040  40.3081140  16.5118820
  37.4460420  44.1755850   2.7338290  36.5424500  44.4386050   2.5589950
  37.9301040  44.4467020   1.9538250  53.9553470  44.8979840   8.0114490
  54.4790950  44.4042490   7.3804660  54.5412890  45.0330200   8.7562060
  54.1343190  44.9819710  11.5334040  53.1845900  44.9483250  11.6479030
  54.3156200  45.8919820  11.2983810  53.4453440  44.1553190   3.9506900
  53.9412560  43.9224060   4.7355780  53.2469510  43.3165030   3.5344540
  39.3253980  38.5366910   9.5857940  39.9730170  37.9864290   9.1453100
  39.7455820  38.7910060  10.4073750  54.8740600  42.7914140   6.4844580
  54.7639880  42.6370180   7.4226850  55.6348190  42.2635080   6.2419990
  53.2206320  38.7308270  12.9427580  53.8578540  39.3442410  13.3086770
  53.3681210  38.7668930  11.9976810  55.8369360  41.3932720   2.3507430
  55.0420860  41.3277840   2.8800340  56.0412640  42.3283360   2.3392780
  52.7787780  55.4324270   6.3445820  53.3746850  55.1108840   5.6680240
  53.0365930  54.9596090   7.1359090  39.0785980  38.6922580  12.3283260
  38.7300800  39.1486400  13.0941440  38.7473680  37.7979710  12.4105690
  40.6850350  51.8642180  16.4936450  40.6419980  51.4935090  17.3750910
  40.8161360  52.8019750  16.6338270  44.3856380  53.4201770  12.0946170
  44.1447740  53.6876330  11.2076690  45.3259020  53.5907500  12.1497030
  46.5910800  39.8834460  15.8502680  46.5299690  40.4756290  16.5998090
  47.5311180  39.7760420  15.7052940  49.2285360  39.5404520  15.4894970
  49.8425770  39.8583810  14.8276050  49.7734920  39.0553110  16.1090830
  55.6460540  55.4396150  12.8956810  55.1518820  55.8365020  12.1783940
  55.0373830  54.8145360  13.2894090  39.7506620  38.2198780  15.6034030
  40.2989610  38.0386830  14.8400140  39.8161930  37.4292890  16.1390340
  40.5238380  54.8104430  13.6134230  39.9298700  54.6789130  14.3524270
  40.5162220  53.9742570  13.1476330  49.9693400  38.1036660  11.8164260
  49.0953240  38.4371770  11.6137190  49.8604150  37.6309840  12.6416130
  50.8765380  40.3107530  13.2005980  50.5478740  39.4959290  12.8207710
  51.8247680  40.2677340  13.0771670  53.3299990  56.0819570  10.1743550
  52.8702960  56.8335380   9.8001570  52.7012450  55.3626040  10.1158350
  40.1550610  52.1762810  12.5642270  39.4284670  51.5568100  12.4968220
  40.2159760  52.5703420  11.6940350  43.7595710  54.3907810   9.3491680
  44.2760730  53.7795170   8.8239940  44.4093090  54.8936590   9.8402690
  46.4991210  55.2816300  10.1760660  46.7869020  55.0270600   9.2993670
  47.0114430  54.7293660  10.7666230  47.7168220  39.0206500  10.7557170
  46.9340010  39.4952000  11.0353930  47.4231150  38.1161330  10.6470350
  52.2689290  39.7229600   8.8006260  52.7097380  39.6674700   7.9527860
  51.9996880  40.6387610   8.8716440  54.1327860  39.3544840   6.8115080
  54.0716260  38.4106060   6.6646100  54.9119890  39.4624930   7.3568540
  38.4380610  55.4937200   5.7739030  38.2702650  54.8607880   6.4720920
  37.5715120  55.6996600   5.4233220  39.0608630  39.3253980   3.2770890
  39.8187990  39.4382860   2.7034920  38.5985800  40.1623180   3.2314320
  45.6022440  41.4393250   6.2673200  44.7896950  41.0650140   5.9269080
  46.1064080  40.6838330   6.5694390  50.1047420  38.1035700   7.5056270
  50.7076790  38.6755910   7.9804790  49.3640410  38.6675140   7.2830170
  53.2482020  38.5057260   2.7796550  53.4432650  39.4040710   3.0463980
  52.4611890  38.2744340   3.2729500  40.0443310  54.1870430   3.2189170
  39.5190930  54.5678460   2.5151130  39.9687890  54.8121200   3.9398880
  41.4333780  39.8518030   1.8172860  41.9626540  39.0647830   1.6880810
  42.0662100  40.5309220   2.0508390  43.6271620  39.5893170   4.8718250
  42.9974360  38.8880480   5.0388380  43.0876760  40.3497300   4.6551410
  46.5663570  56.2032400  17.5428860  47.4930880  55.9676670  17.5864820
  46.5514000  57.0304400  17.0614890  54.8008630  55.7457970   4.5403110
  54.9760820  55.0595710   3.8964030  54.1030200  56.2705020   4.1479780
  43.7527180  38.8677150  17.3070740  43.4711450  39.3710750  16.5431560
  44.1346880  38.0698900  16.9412870  42.6436280  56.1352810   2.0938420
  43.3755100  55.8512090   1.5462310  42.9029950  55.8966090   2.9837800
  41.8051070  52.2517540   2.0984750  41.1759950  52.7202640   2.6470580
  41.9198900  51.4066760   2.5330940  50.3542640  38.2830730  17.8851210
  50.2408090  38.6025340  18.7802730  51.1712380  38.6843240  17.5888490
  53.1341130  55.4302260  17.3669900  53.9266450  54.9351490  17.1595860
  53.4274280  56.1092400  17.9745510  49.2600790  27.5279710  63.3459910
  49.1794840  26.6134320  63.0751620  48.8465210  28.0246780  62.6399620
  47.3918830  29.3058730  65.2269180  46.6160930  28.8259170  65.5167750
  48.0431760  28.6264380  65.0525340  41.4084660  29.6178540  66.1044940
  40.5769540  29.3627250  66.5041450  42.0165640  29.6889310  66.8402860
  51.4126260  33.7118920  64.0068310  50.9507790  32.9406160  64.3355480
  52.2251810  33.7384990  64.5120760  41.3885920  33.6518630  66.3002960
  41.6913960  32.7616370  66.1213180  42.1329510  34.2088850  66.0725210
  39.8176610  24.5780430  59.8887330  38.9293310  24.9196400  59.7867210
  40.1017800  24.3780750  58.9968160  37.7809620  27.1786080  65.7727030
  38.3525730  26.4108280  65.7730670  37.7811160  27.4774840  64.8633640
  47.6389570  35.9976930  63.6272300  47.0201010  36.4534430  63.0566740
  48.4941350  36.1528390  63.2262000  46.8327820  31.9815920  65.2339340
  46.7636100  31.0405860  65.0728470  47.5947680  32.0717330  65.8061910
  39.0234490  22.5870440  67.5595960  38.8437330  21.6896190  67.8398720
  38.6214570  23.1342310  68.2342910  47.8632990  24.7886300  65.4608270
  48.2397810  23.9158180  65.3481940  47.7652500  25.1245000  64.5698710
  41.9938000  23.1611930  60.9225710  42.1004750  24.0615660  61.2294470
  41.0830360  23.1129900  60.6320360  51.6457110  22.2836740  62.3936610
  52.4666730  21.7933310  62.4362090  51.6791190  22.8734400  63.1468450
  39.6421160  25.0830940  66.1678300  40.3231270  25.3469310  66.7865700
  39.3269210  24.2431810  66.5016310  43.8345730  26.1298300  65.2550890
  44.3423950  26.6279270  65.8955910  44.3658970  25.3533500  65.0790250
  55.9356660  24.3003490  68.9580240  55.2308830  24.6885200  68.4395350
  56.2014580  24.9953780  69.5601170  42.1181830  20.7696860  69.5214310
  42.1200270  21.2869250  68.7160210  41.2886140  20.2927040  69.4984240
  48.5052920  30.8816170  61.0204210  47.8870190  31.3465620  60.4566930
  49.0176170  31.5743650  61.4373720  43.3684680  30.4092040  67.6987810
  43.0354060  31.0360960  68.3408880  43.5451360  30.9353920  66.9189480
  51.8818590  24.2237120  65.1664150  51.1774160  24.5122010  65.7467260
  52.2430750  25.0337230  64.8063710  41.7997160  22.4806820  67.5284760
  42.1413970  23.3248870  67.2338630  40.8612970  22.6290560  67.6450100
  42.5803780  32.3772840  69.5136990  43.1977780  33.0523920  69.2321440
  41.7196900  32.7860820  69.4224490  37.8736120  31.5672700  58.3943840
  37.4964100  32.0559800  57.6628740  38.1309190  32.2397980  59.0250370
  53.4981370  33.8412250  67.4291630  52.8144890  34.5111360  67.4208300
  54.0375660  34.0392900  66.6636490  54.9505510  23.6691910  65.5573360
  54.0030420  23.7030890  65.6888790  55.2755500  24.4830860  65.9422720
  45.4825050  19.9689090  63.8529350  45.7900030  19.4135980  63.1364850
  44.5525750  20.1033550  63.6702340  51.0340110  35.6856380  66.1436810
  51.0467270  35.2818670  65.2759070  50.4815330  36.4603670  66.0398240
  52.3285530  32.4072600  61.2326980  52.2181860  31.4646930  61.3576400
  52.3253780  32.7688240  62.1189740  50.4325550  30.5886220  67.4719420
  50.8494340  30.3746330  66.6372880  51.1565370  30.8459010  68.0428040
  47.8705810  28.0337920  60.5889470  46.9435090  27.9675300  60.8177940
  48.0230630  28.9718050  60.4744710  47.8574890  24.3054920  57.5856630
  46.9178560  24.4668880  57.6709090  48.1758150  25.0240600  57.0392620
  54.3787650  28.9873440  67.5635660  53.5506280  29.0566530  67.0885790
  54.9738130  29.5727750  67.0951490  51.9003100  29.5958220  61.0924720
  51.2815520  29.2577770  60.4451020  51.8827550  28.9517980  61.8003910
  51.3429660  25.7742760  68.5090530  50.9300840  26.5996470  68.7630520
  50.6105610  25.1887800  68.3166890  43.4762450  28.5602660  63.3709200
  43.0719450  27.8479910  62.8755100  43.5625570  28.2155900  64.2597240
  43.9444150  32.2470220  65.5348410  43.6472440  31.6415690  64.8556190
  44.8943970  32.2847530  65.4237770  42.1891070  25.3345870  67.1508240
  42.7405660  25.4441210  66.3761490  42.7034580  25.7083470  67.8663470
  52.0329760  35.8202090  69.1971510  51.5560320  36.6274280  69.0044120
  51.3491550  35.1680420  69.3497720  50.0767800  28.8345030  58.0997470
  50.5161080  27.9967460  57.9535290  50.7896220  29.4674430  58.1861610
  41.8633800  28.8565230  70.7613580  41.7241570  29.7288030  71.1300980
  40.9815160  28.5138040  70.6161520  48.1863180  33.7741100  62.0678710
  48.6259090  34.5165430  61.6534100  48.1250070  34.0167670  62.9917670
  53.6584940  20.0887840  56.4138510  53.3457600  20.1814670  57.3137580
  54.4197410  20.6668870  56.3635940  40.1767080  27.4547640  60.8715850
  40.0564680  28.1809730  60.2597120  39.8667970  26.6850550  60.3943760
  37.8152450  30.6262780  66.6784490  37.8932870  30.7611550  65.7340210
  38.4294130  29.9178670  66.8712610  39.0600080  32.3262970  63.0890670
  38.6528160  32.4677560  62.2344270  39.9513090  32.0423130  62.8861880
  55.0162220  32.7726880  71.4262910  55.1425280  32.5338760  70.5080090
  55.0583600  31.9411420  71.8984990  48.8778960  36.4754880  69.9957720
  49.3923630  36.3862890  70.7980150  48.0348040  36.8214580  70.2885630
  50.8533360  36.7610220  59.4241720  50.6934500  36.4713160  60.3223550
  50.6880070  35.9850350  58.8886950  43.3321740  36.5408750  61.2013340
  43.1564220  35.6244290  60.9881140  42.4777480  36.8996040  61.4411140
  50.5559490  34.2697780  57.9839720  49.8624650  34.2675070  57.3242000
  51.2982350  33.8457100  57.5533890  50.1209420  35.8960490  62.0588210
  50.5766370  35.1149870  62.3726830  50.4601940  36.6067310  62.6029390
  37.8711970  31.6676950  69.2178950  38.0343010  31.1982310  68.3998320
  38.3364420  31.1600510  69.8827790  42.6430740  20.7982710  64.2539520
  42.1998890  21.5792250  63.9224040  43.2015730  21.1212600  64.9610460
  46.9300550  23.6651230  69.8574840  46.4679920  23.8734250  70.6694780
  46.5278660  22.8510580  69.5545510  51.9305060  24.8860180  70.9871500
  51.0798650  24.5865930  71.3080570  51.7706850  25.1302190  70.0755320
  45.7589560  20.4193410  59.1345350  45.1343740  20.4153280  59.8598660
  45.6719680  19.5524370  58.7381320  44.6806640  21.3430040  66.1129120
  44.9778970  22.2492870  66.0321140  45.2292200  20.8548820  65.4988690
  42.4344960  25.9216280  61.9820770  42.2085880  25.7053450  62.8867390
  41.6537490  26.3544740  61.6366740  49.6642720  25.9279650  60.5811420
  49.0651610  26.6515450  60.3975040  50.2122330  25.8656430  59.7987870
  48.2707590  24.5643190  62.6114700  48.6637160  24.8815390  61.7983390
  48.6324440  23.6855070  62.7259220  40.0054710  23.2315530  70.8014820
  39.6118100  24.0790740  71.0087600  39.3173110  22.5941900  70.9923460
  37.3071760  21.1543990  64.8344900  37.0184810  21.7246850  65.5469880
  38.0517520  20.6748440  65.1976130  37.4941990  25.0964110  56.0447620
  37.4116660  26.0394870  56.1862610  37.1425050  24.9539020  55.1659970
  48.8562730  27.1548940  66.7065480  48.1243850  27.6635750  67.0555580
  48.4587070  26.3378920  66.4054260  45.2940120  23.8303140  65.1117970
  45.2976180  23.3893090  64.2622510  46.1891240  24.1520470  65.2189790
  41.1442500  23.7129630  64.0712180  40.8042550  24.1904860  64.8279230
  40.3819820  23.2594750  63.7113280  45.3560270  24.8315220  58.1024730
  45.4773090  24.7901700  59.0510550  44.9708780  25.6939370  57.9471460
  49.3188640  22.6082620  66.1188420  49.3361380  23.0591270  66.9630270
  49.0704220  21.7088260  66.3321860  44.3681770  27.1416360  57.5008030
  43.7998670  26.6934610  56.8743940  45.0770770  27.5009140  56.9673180
  39.4450950  31.0428380  71.3774760  39.0605740  30.4022050  71.9757720
  39.7563140  31.7464500  71.9469490  45.5948090  27.8904920  66.8583380
  45.9618220  27.4163490  67.6044720  45.4053150  28.7646490  67.1991720
  38.4588580  22.6348610  62.9876850  38.1735500  22.2704280  63.8255470
  38.3967440  21.9029070  62.3739990  43.3847460  26.9313560  69.1767590
  43.0804530  27.8105540  69.4017950  44.3393920  26.9913350  69.2125030
  41.9129250  31.1374550  59.7734440  41.1391510  30.5972170  59.6133160
  42.6423880  30.6181160  59.4352200  52.6717230  30.1339910  65.5660830
  53.3916350  30.6295200  65.1756940  52.4699050  29.4557800  64.9214700
  48.1327170  21.5277870  59.7090220  47.3191780  21.0291040  59.6335530
  47.9389120  22.3676120  59.2926570  48.0536030  30.2048970  71.4529830
  47.9873340  29.2844640  71.1987420  47.4241170  30.3024410  72.1674470
  50.8475560  25.8997520  58.0052380  51.7355180  26.2114750  57.8303720
  50.8180650  25.0269770  57.6132960  41.9566650  30.8054930  63.4113250
  42.4745320  30.0023190  63.3570140  41.5050670  30.7434070  64.2530080
  46.8436150  32.0721210  58.6840550  47.1851850  32.8163440  58.1883870
  46.0148860  32.3852330  59.0465380  39.4411190  27.7716300  70.3238950
  39.0826130  28.4370150  70.9112290  39.1465750  26.9399850  70.6951570
  47.9852760  33.0269540  71.2033630  47.9997300  32.0950500  70.9852540
  47.2777860  33.1129300  71.8423400  53.1189830  27.2109360  57.4732240
  53.0353550  27.6423580  56.6228680  53.8384020  27.6707710  57.9059060
  54.1963970  29.6676880  70.5502210  53.4712160  30.2605660  70.3531600
  54.7239430  29.6600420  69.7515580  54.1477080  34.0651620  60.2014370
  53.5053240  33.4107240  60.4758090  53.7607740  34.4706710  59.4255040
  49.7263560  31.3937050  64.0486060  50.0787380  30.7965180  63.3887430
  48.8425890  31.0681280  64.2194310  45.8126840  32.1534740  61.4556470
  46.4997970  32.7003950  61.8364060  45.0259260  32.6975470  61.4906080
  37.9519240  27.7707560  56.9473550  38.8214090  28.0532360  57.2309470
  37.4609560  28.5843430  56.8322360  45.1154050  29.1580770  61.0681830
  45.5716830  29.9686020  61.2942020  44.7642260  28.8403910  61.9000320
  47.4186660  34.6687110  68.2974130  48.0628880  34.8746490  68.9747550
  47.7816100  33.9075510  67.8444980  41.0165830  19.5018420  61.5404350
  40.8880460  19.4936320  62.4889270  40.1927850  19.8401510  61.1895360
  48.6918740  32.6719460  67.0151580  49.3340970  31.9712620  67.1283750
  49.2168090  33.4517900  66.8348470  52.5374460  32.9568080  56.7390720
  52.3112040  32.2398520  57.3315360  52.1470660  32.7080520  55.9012470
  50.4656360  33.4714360  70.2187640  50.8012600  34.0581050  70.8965560
  49.5456700  33.3407070  70.4485430  38.3190490  36.9834940  57.5135180
  38.6788130  37.5824280  56.8592450  38.1782830  37.5294830  58.2870210
  38.0159760  21.2609540  71.0011050  37.3018280  21.4606460  71.6063660
  38.4354800  20.4849110  71.3725850  52.1190710  30.8740020  58.4004880
  51.8312410  31.3352710  59.1882760  52.9142880  30.4137790  58.6689100
  38.3032350  35.2489800  71.9877580  38.4123470  34.3084540  71.8472970
  37.6512910  35.5144550  71.3391310  44.3359110  34.3666140  58.3308850
  44.3269210  35.0995830  57.7153360  43.4157470  34.1197720  58.4235810
  39.9365750  29.5881030  59.0755610  39.3293700  30.3279930  59.0850910
  40.4115100  29.6780390  58.2493810  49.5098540  23.7531850  68.7512500
  49.8779360  22.9327060  69.0792070  48.6496740  23.8133740  69.1668150
  52.8760570  22.7088790  59.5600060  52.2473730  22.8134460  58.8458290
  52.3812490  22.9285570  60.3493940  47.3218710  34.4294380  56.9934040
  47.4230690  34.2258370  56.0636020  46.4220450  34.1752660  57.1981820
  44.8444600  24.9874740  60.9757940  44.1360750  25.4561080  61.4171550
  45.1289080  24.3296750  61.6103130  46.4700530  26.4071440  68.9750470
  46.9685780  26.8817260  69.6402320  46.6123480  25.4834960  69.1820500
  48.8760030  21.7125400  62.4153730  48.7527810  21.7311530  61.4663240
  49.8244590  21.7604340  62.5352130  45.9636820  36.9480700  61.6881710
  46.2178320  36.9102090  60.7661080  45.0149300  36.8214030  61.6809960
  43.0479620  23.2959820  58.3508650  43.8970150  23.7329970  58.2848840
  42.6810890  23.6080080  59.1780710  53.6767390  22.6239400  69.8178860
  53.1740990  23.3644800  70.1572670  54.4924050  23.0123400  69.5015650
  51.9689400  27.8672580  63.2640220  51.0279540  27.8822810  63.4387910
  52.2833470  27.0808540  63.7100520  41.9471040  29.5492180  56.8244180
  42.7134310  29.4373540  57.3869610  42.0245730  28.8530150  56.1720950
  40.6417800  26.9817250  57.5077070  40.7221390  26.0344760  57.6194470
  41.5337550  27.3124130  57.6137730  53.9714980  35.0381430  64.9394480
  54.0962400  35.8612600  65.4118290  54.8380540  34.8272160  64.5918630
  41.4432510  37.1312640  64.6111610  42.1794990  36.5828100  64.8820180
  41.8273430  37.9968650  64.4717600  38.3277990  33.1986210  60.4853120
  37.4017770  33.4407350  60.4758530  38.7934420  34.0260470  60.3637870
  44.5534820  36.3042950  56.4337180  45.3463430  36.5931780  55.9818970
  44.0339170  35.8735120  55.7549660  53.6064990  35.5313080  57.8573920
  53.3206500  35.1178220  57.0428100  53.4084540  36.4600790  57.7374440
  45.0712220  31.5246360  56.2979530  44.9662860  30.9098710  57.0240910
  44.9036440  31.0012250  55.5142540  48.3114950  30.5866390  56.9021520
  47.7625050  31.0335690  57.5464260  48.9334210  30.0815640  57.4259190
  43.9790070  29.5457310  58.7986820  44.4006490  29.3797180  59.6418210
  44.1040910  28.7357540  58.3041960  42.1417490  25.5253860  71.6057800
  41.6113950  25.0344810  70.9781140  42.8105560  25.9538060  71.0715730
  46.4917710  28.5694920  56.0463920  47.0123370  27.8543940  55.6805070
  47.1386110  29.2080790  56.3464430  51.0395550  29.9923320  71.3698990
  51.4536570  30.1468400  72.2189410  50.1046550  30.1178540  71.5324770
  42.6289790  22.4916230  71.6855090  42.5346660  21.8736980  70.9605960
  42.0487180  23.2182520  71.4585000  45.3951230  21.0489470  68.7182480
  44.9468530  21.0713730  67.8728030  44.7616430  20.6508490  69.3152780
  45.8010780  29.9443800  69.3394920  46.2198890  30.7876530  69.1671160
  44.8819410  30.0815840  69.1101700  48.1374680  27.6759980  70.7232760
  48.2570890  27.0801120  71.4627600  48.9968680  27.7129670  70.3034060
  50.4762580  28.2297170  69.2995270  49.9497800  28.7539790  68.6960410
  50.8193920  28.8624560  69.9305000  42.8748970  25.6190540  55.7444980
  42.6738030  24.7557900  56.1058320  42.7041020  25.5323900  54.8066580
  43.6518200  36.2496810  70.4552650  43.1139290  36.9742870  70.1361350
  43.9052160  35.7727150  69.6649990  50.3537280  20.4298770  58.2731860
  50.6339570  19.5866670  58.6291280  49.5803010  20.6621880  58.7870610
  41.6731770  22.7191160  55.7322860  41.9757670  22.7258590  54.8242010
  42.4126360  22.3689020  56.2290520  46.5080410  37.4848020  70.7139300
  46.4339110  38.3883160  71.0211670  45.6059250  37.1659920  70.6861370
  44.8916700  21.6625780  56.7179060  44.5438700  20.9849770  56.1381510
  45.0929470  21.2015290  57.5322450  47.0565740  36.6506530  58.3365660
  47.9516530  36.9891500  58.3584420  47.0883370  35.9285940  57.7089940
  40.6961900  32.0233580  56.5652660  41.1336770  32.5663250  57.2210240
  41.1809630  31.1980530  56.5749000  37.9107700  34.8122610  64.0172920
  38.2410710  33.9443670  63.7851560  38.3398700  35.0181130  64.8477880
  42.5069620  33.1431620  61.6774890  42.2065160  33.0196590  62.5778800
  42.4007110  32.2840210  61.2690620  38.3997910  35.6793200  66.7554550
  37.9628900  35.8594000  67.5878700  38.9675590  36.4367820  66.6136270
  54.0360090  35.1810200  71.0431860  53.4362080  35.2402760  70.2995780
  54.1653990  34.2415180  71.1728710  55.2761540  32.9228020  56.3801570
  54.4454500  32.9904670  56.8508800  55.4533370  33.8132140  56.0768430
  54.7318000  29.6675500  58.8835770  55.4936910  30.2372150  58.9895460
  54.7472370  29.1002700  59.6544080  38.2322340  28.1913430  63.1143430
  37.5771180  27.9225070  62.4703130  39.0700290  28.0817910  62.6645410
  55.7377970  30.5225600  63.7277700  56.1086800  29.7392920  63.3213670
  56.3779900  31.2114700  63.5495000  52.7211730  31.9062180  69.1408020
  51.9071570  32.3359340  69.4033810  53.1285930  32.5180590  68.5277070
  54.7837170  29.9609870  56.0408290  55.0586010  30.8688750  55.9127510
  54.5947910  29.8972400  56.9770280  51.1812780  22.9854720  57.3361920
  51.5997660  22.7985700  56.4958580  50.8748840  22.1333770  57.6464850
  54.6802510  27.8978860  61.0337720  54.3046110  27.1306790  60.6019010
  53.9505630  28.2801560  61.5212650  39.2698270  28.5766000  67.6546770
  39.6371310  28.4893400  68.5342790  38.7009090  27.8132550  67.5553630
  54.0702130  27.0450380  70.6677240  53.8388220  26.8163130  69.7675190
  54.3306680  27.9649930  70.6222130  37.4460420  25.4012360  59.0568760
  36.5424500  25.6642560  58.8820420  37.9301040  25.6723530  58.2768720
  53.9553470  26.1236350  64.3344960  54.4790950  25.6299000  63.7035130
  54.5412890  26.2586710  65.0792530  54.1343190  26.2076220  67.8564510
  53.1845900  26.1739760  67.9709500  54.3156200  27.1176330  67.6214280
  39.9887630  24.4577900  56.9663140  40.6979330  24.0361120  56.4810420
  39.2727570  24.5253130  56.3346490  39.6361790  20.5117230  56.0065790
  40.3589920  21.0526170  56.3247010  39.9086310  20.2380650  55.1307330
  53.4453440  25.3809700  60.2737370  53.9412560  25.1480570  61.0586250
  53.2469510  24.5421540  59.8575010  39.3253980  19.7623420  65.9088410
  39.9730170  19.2120800  65.4683570  39.7455820  20.0166570  66.7304220
  54.8740600  24.0170650  62.8075050  54.7639880  23.8626690  63.7457320
  55.6348190  23.4891590  62.5650460  53.2206320  19.9564780  69.2658050
  53.8578540  20.5698920  69.6317240  53.3681210  19.9925440  68.3207280
  55.7630870  21.8478570  56.0481190  56.6880180  21.7159750  55.8399480
  55.7406660  21.9271390  57.0017640  55.8369360  22.6189230  58.6737900
  55.0420860  22.5534350  59.2030810  56.0412640  23.5539870  58.6623250
  52.7787780  36.6580780  62.6676290  53.3746850  36.3365350  61.9910710
  53.0365930  36.1852600  63.4589560  39.0785980  19.9179090  68.6513730
  38.7300800  20.3742910  69.4171910  38.7473680  19.0236220  68.7336160
  44.3856380  34.6458280  68.4176640  44.1447740  34.9132840  67.5307160
  45.3259020  34.8164010  68.4727500  55.6460540  36.6652660  69.2187280
  55.1518820  37.0621530  68.5014410  55.0373830  36.0401870  69.6124560
  40.5238380  36.0360940  69.9364700  39.9298700  35.9045640  70.6754740
  40.5162220  35.1999080  69.4706800  49.9693400  19.3293170  68.1394730
  49.0953240  19.6628280  67.9367660  49.8604150  18.8566350  68.9646600
  50.8765380  21.5364040  69.5236450  50.5478740  20.7215800  69.1438180
  51.8247680  21.4933850  69.4002140  53.3299990  37.3076080  66.4974020
  52.8702960  38.0591890  66.1232040  52.7012450  36.5882550  66.4388820
  40.1550610  33.4019320  68.8872740  39.4284670  32.7824610  68.8198690
  40.2159760  33.7959930  68.0170820  43.7595710  35.6164320  65.6722150
  44.2760730  35.0051680  65.1470410  44.4093090  36.1193100  66.1633160
  46.4991210  36.5072810  66.4991130  46.7869020  36.2527110  65.6224140
  47.0114430  35.9550170  67.0896700  47.7168220  20.2463010  67.0787640
  46.9340010  20.7208510  67.3584400  47.4231150  19.3417840  66.9700820
  52.2689290  20.9486110  65.1236730  52.7097380  20.8931210  64.2758330
  51.9996880  21.8644120  65.1946910  54.1327860  20.5801350  63.1345550
  54.0716260  19.6362570  62.9876570  54.9119890  20.6881440  63.6799010
  38.4380610  36.7193710  62.0969500  38.2702650  36.0864390  62.7951390
  37.5715120  36.9253110  61.7463690  39.0608630  20.5510490  59.6001360
  39.8187990  20.6639370  59.0265390  38.5985800  21.3879690  59.5544790
  45.6022440  22.6649760  62.5903670  44.7896950  22.2906650  62.2499550
  46.1064080  21.9094840  62.8924860  50.1047420  19.3292210  63.8286740
  50.7076790  19.9012420  64.3035260  49.3640410  19.8931650  63.6060640
  53.2482020  19.7313770  59.1027020  53.4432650  20.6297220  59.3694450
  52.4611890  19.5000850  59.5959970  40.0443310  35.4126940  59.5419640
  39.5190930  35.7934970  58.8381600  39.9687890  36.0377710  60.2629350
  41.4333780  21.0774540  58.1403330  41.9626540  20.2904340  58.0111280
  42.0662100  21.7565730  58.3738860  43.6271620  20.8149680  61.1948720
  42.9974360  20.1136990  61.3618850  43.0876760  21.5753810  60.9781880
  54.8008630  36.9714480  60.8633580  54.9760820  36.2852220  60.2194500
  54.1030200  37.4961530  60.4710250  42.6436280  37.3609320  58.4168890
  43.3755100  37.0768600  57.8692780  42.9029950  37.1222600  59.3068270
  41.8051070  33.4774050  58.4215220  41.1759950  33.9459150  58.9701050
  41.9198900  32.6323270  58.8561410  49.2600790  27.5279710  44.5716420
  49.1794840  26.6134320  44.3008130  48.8465210  28.0246780  43.8656130
  47.3918830  29.3058730  46.4525690  46.6160930  28.8259170  46.7424260
  48.0431760  28.6264380  46.2781850  41.4084660  29.6178540  47.3301450
  40.5769540  29.3627250  47.7297960  42.0165640  29.6889310  48.0659370
  51.4126260  33.7118920  45.2324820  50.9507790  32.9406160  45.5611990
  52.2251810  33.7384990  45.7377270  41.3885920  33.6518630  47.5259470
  41.6913960  32.7616370  47.3469690  42.1329510  34.2088850  47.2981720
  39.8176610  24.5780430  41.1143840  38.9293310  24.9196400  41.0123720
  40.1017800  24.3780750  40.2224670  37.7809620  27.1786080  46.9983540
  38.3525730  26.4108280  46.9987180  37.7811160  27.4774840  46.0890150
  47.6389570  35.9976930  44.8528810  47.0201010  36.4534430  44.2823250
  48.4941350  36.1528390  44.4518510  46.8327820  31.9815920  46.4595850
  46.7636100  31.0405860  46.2984980  47.5947680  32.0717330  47.0318420
  39.0234490  22.5870440  48.7852470  38.8437330  21.6896190  49.0655230
  38.6214570  23.1342310  49.4599420  47.8632990  24.7886300  46.6864780
  48.2397810  23.9158180  46.5738450  47.7652500  25.1245000  45.7955220
  41.9938000  23.1611930  42.1482220  42.1004750  24.0615660  42.4550980
  41.0830360  23.1129900  41.8576870  51.6457110  22.2836740  43.6193120
  52.4666730  21.7933310  43.6618600  51.6791190  22.8734400  44.3724960
  39.6421160  25.0830940  47.3934810  40.3231270  25.3469310  48.0122210
  39.3269210  24.2431810  47.7272820  43.8345730  26.1298300  46.4807400
  44.3423950  26.6279270  47.1212420  44.3658970  25.3533500  46.3046760
  55.9356660  24.3003490  50.1836750  55.2308830  24.6885200  49.6651860
  56.2014580  24.9953780  50.7857680  42.1181830  20.7696860  50.7470820
  42.1200270  21.2869250  49.9416720  41.2886140  20.2927040  50.7240750
  48.5052920  30.8816170  42.2460720  47.8870190  31.3465620  41.6823440
  49.0176170  31.5743650  42.6630230  43.3684680  30.4092040  48.9244320
  43.0354060  31.0360960  49.5665390  43.5451360  30.9353920  48.1445990
  51.8818590  24.2237120  46.3920660  51.1774160  24.5122010  46.9723770
  52.2430750  25.0337230  46.0320220  41.7997160  22.4806820  48.7541270
  42.1413970  23.3248870  48.4595140  40.8612970  22.6290560  48.8706610
  42.5803780  32.3772840  50.7393500  43.1977780  33.0523920  50.4577950
  41.7196900  32.7860820  50.6481000  53.4981370  33.8412250  48.6548140
  52.8144890  34.5111360  48.6464810  54.0375660  34.0392900  47.8893000
  54.9505510  23.6691910  46.7829870  54.0030420  23.7030890  46.9145300
  55.2755500  24.4830860  47.1679230  45.4825050  19.9689090  45.0785860
  45.7900030  19.4135980  44.3621360  44.5525750  20.1033550  44.8958850
  51.0340110  35.6856380  47.3693320  51.0467270  35.2818670  46.5015580
  50.4815330  36.4603670  47.2654750  52.3285530  32.4072600  42.4583490
  52.2181860  31.4646930  42.5832910  52.3253780  32.7688240  43.3446250
  50.4325550  30.5886220  48.6975930  50.8494340  30.3746330  47.8629390
  51.1565370  30.8459010  49.2684550  47.8705810  28.0337920  41.8145980
  46.9435090  27.9675300  42.0434450  48.0230630  28.9718050  41.7001220
  47.8574890  24.3054920  38.8113140  46.9178560  24.4668880  38.8965600
  48.1758150  25.0240600  38.2649130  54.3787650  28.9873440  48.7892170
  53.5506280  29.0566530  48.3142300  54.9738130  29.5727750  48.3208000
  51.9003100  29.5958220  42.3181230  51.2815520  29.2577770  41.6707530
  51.8827550  28.9517980  43.0260420  51.3429660  25.7742760  49.7347040
  50.9300840  26.5996470  49.9887030  50.6105610  25.1887800  49.5423400
  43.4762450  28.5602660  44.5965710  43.0719450  27.8479910  44.1011610
  43.5625570  28.2155900  45.4853750  43.9444150  32.2470220  46.7604920
  43.6472440  31.6415690  46.0812700  44.8943970  32.2847530  46.6494280
  42.1891070  25.3345870  48.3764750  42.7405660  25.4441210  47.6018000
  42.7034580  25.7083470  49.0919980  52.0329760  35.8202090  50.4228020
  51.5560320  36.6274280  50.2300630  51.3491550  35.1680420  50.5754230
  43.0362580  31.9851910  53.4112720  42.1391110  32.2091880  53.6586120
  43.0615450  32.1086850  52.4624120  50.0767800  28.8345030  39.3253980
  50.5161080  27.9967460  39.1791800  50.7896220  29.4674430  39.4118120
  41.8633800  28.8565230  51.9870090  41.7241570  29.7288030  52.3557490
  40.9815160  28.5138040  51.8418030  48.1863180  33.7741100  43.2935220
  48.6259090  34.5165430  42.8790610  48.1250070  34.0167670  44.2174180
  43.6614150  34.7986930  54.1955240  43.6329580  35.2029880  53.3283670
  43.4979120  33.8697290  54.0326840  53.6584940  20.0887840  37.6395020
  53.3457600  20.1814670  38.5394090  54.4197410  20.6668870  37.5892450
  40.1767080  27.4547640  42.0972360  40.0564680  28.1809730  41.4853630
  39.8667970  26.6850550  41.6200270  55.6128970  35.5814030  55.4919410
  56.0888690  36.0596920  56.1708490  56.2336130  35.5131520  54.7664910
  37.8152450  30.6262780  47.9041000  37.8932870  30.7611550  46.9596720
  38.4294130  29.9178670  48.0969120  39.0600080  32.3262970  44.3147180
  38.6528160  32.4677560  43.4600780  39.9513090  32.0423130  44.1118390
  55.0162220  32.7726880  52.6519420  55.1425280  32.5338760  51.7336600
  55.0583600  31.9411420  53.1241500  48.8778960  36.4754880  51.2214230
  49.3923630  36.3862890  52.0236660  48.0348040  36.8214580  51.5142140
  50.8533360  36.7610220  40.6498230  50.6934500  36.4713160  41.5480060
  50.6880070  35.9850350  40.1143460  43.3321740  36.5408750  42.4269850
  43.1564220  35.6244290  42.2137650  42.4777480  36.8996040  42.6667650
  50.5559490  34.2697780  39.2096230  49.8624650  34.2675070  38.5498510
  51.2982350  33.8457100  38.7790400  50.1209420  35.8960490  43.2844720
  50.5766370  35.1149870  43.5983340  50.4601940  36.6067310  43.8285900
  54.8686230  24.8259340  53.6169160  54.2530500  25.3339010  53.0884620
  54.5482650  23.9257670  53.5595100  37.8711970  31.6676950  50.4435460
  38.0343010  31.1982310  49.6254830  38.3364420  31.1600510  51.1084300
  42.6430740  20.7982710  45.4796030  42.1998890  21.5792250  45.1480550
  43.2015730  21.1212600  46.1866970  46.9300550  23.6651230  51.0831350
  46.4679920  23.8734250  51.8951290  46.5278660  22.8510580  50.7802020
  51.9305060  24.8860180  52.2128010  51.0798650  24.5865930  52.5337080
  51.7706850  25.1302190  51.3011830  49.0254770  26.3861930  54.3126800
  49.3508180  25.5525680  53.9729030  49.8135100  26.9090450  54.4605130
  45.7589560  20.4193410  40.3601860  45.1343740  20.4153280  41.0855170
  45.6719680  19.5524370  39.9637830  44.6806640  21.3430040  47.3385630
  44.9778970  22.2492870  47.2577650  45.2292200  20.8548820  46.7245200
  42.4344960  25.9216280  43.2077280  42.2085880  25.7053450  44.1123900
  41.6537490  26.3544740  42.8623250  49.6642720  25.9279650  41.8067930
  49.0651610  26.6515450  41.6231550  50.2122330  25.8656430  41.0244380
  44.8744170  26.8201860  53.8737550  44.7787770  25.8796590  53.7237950
  45.7176150  27.0416930  53.4785620  48.2707590  24.5643190  43.8371210
  48.6637160  24.8815390  43.0239900  48.6324440  23.6855070  43.9515730
  40.0054710  23.2315530  52.0271330  39.6118100  24.0790740  52.2344110
  39.3173110  22.5941900  52.2179970  46.5799760  23.3150500  55.0968070
  45.8898080  23.1222700  55.7314160  47.3232060  23.5985140  55.6292370
  37.3071760  21.1543990  46.0601410  37.0184810  21.7246850  46.7726390
  38.0517520  20.6748440  46.4232640  37.4941990  25.0964110  37.2704130
  37.4116660  26.0394870  37.4119120  37.1425050  24.9539020  36.3916480
  48.8562730  27.1548940  47.9321990  48.1243850  27.6635750  48.2812090
  48.4587070  26.3378920  47.6310770  45.2940120  23.8303140  46.3374480
  45.2976180  23.3893090  45.4879020  46.1891240  24.1520470  46.4446300
  41.1442500  23.7129630  45.2968690  40.8042550  24.1904860  46.0535740
  40.3819820  23.2594750  44.9369790  45.3560270  24.8315220  39.3281240
  45.4773090  24.7901700  40.2767060  44.9708780  25.6939370  39.1727970
  49.3188640  22.6082620  47.3444930  49.3361380  23.0591270  48.1886780
  49.0704220  21.7088260  47.5578370  44.3681770  27.1416360  38.7264540
  43.7998670  26.6934610  38.1000450  45.0770770  27.5009140  38.1929690
  52.7459390  20.0214800  53.1831310  53.0705160  19.2904460  53.7089290
  52.7815900  19.7028440  52.2812300  39.4450950  31.0428380  52.6031270
  39.0605740  30.4022050  53.2014230  39.7563140  31.7464500  53.1726000
  45.5948090  27.8904920  48.0839890  45.9618220  27.4163490  48.8301230
  45.4053150  28.7646490  48.4248230  38.4588580  22.6348610  44.2133360
  38.1735500  22.2704280  45.0511980  38.3967440  21.9029070  43.5996500
  43.3847460  26.9313560  50.4024100  43.0804530  27.8105540  50.6274460
  44.3393920  26.9913350  50.4381540  41.9129250  31.1374550  40.9990950
  41.1391510  30.5972170  40.8389670  42.6423880  30.6181160  40.6608710
  52.6717230  30.1339910  46.7917340  53.3916350  30.6295200  46.4013450
  52.4699050  29.4557800  46.1471210  48.1327170  21.5277870  40.9346730
  47.3191780  21.0291040  40.8592040  47.9389120  22.3676120  40.5183080
  48.0536030  30.2048970  52.6786340  47.9873340  29.2844640  52.4243930
  47.4241170  30.3024410  53.3930980  50.8475560  25.8997520  39.2308890
  51.7355180  26.2114750  39.0560230  50.8180650  25.0269770  38.8389470
  41.9566650  30.8054930  44.6369760  42.4745320  30.0023190  44.5826650
  41.5050670  30.7434070  45.4786590  46.8436150  32.0721210  39.9097060
  47.1851850  32.8163440  39.4140380  46.0148860  32.3852330  40.2721890
  39.4411190  27.7716300  51.5495460  39.0826130  28.4370150  52.1368800
  39.1465750  26.9399850  51.9208080  42.6424310  28.2300540  54.4335010
  42.3424450  28.3757720  53.5362830  43.4135550  27.6705830  54.3408400
  47.9852760  33.0269540  52.4290140  47.9997300  32.0950500  52.2109050
  47.2777860  33.1129300  53.0679910  53.1189830  27.2109360  38.6988750
  53.0353550  27.6423580  37.8485190  53.8384020  27.6707710  39.1315570
  54.1963970  29.6676880  51.7758720  53.4712160  30.2605660  51.5788110
  54.7239430  29.6600420  50.9772090  54.1477080  34.0651620  41.4270880
  53.5053240  33.4107240  41.7014600  53.7607740  34.4706710  40.6511550
  49.7263560  31.3937050  45.2742570  50.0787380  30.7965180  44.6143940
  48.8425890  31.0681280  45.4450820  45.8126840  32.1534740  42.6812980
  46.4997970  32.7003950  43.0620570  45.0259260  32.6975470  42.7162590
  37.9519240  27.7707560  38.1730060  38.8214090  28.0532360  38.4565980
  37.4609560  28.5843430  38.0578870  45.1154050  29.1580770  42.2938340
  45.5716830  29.9686020  42.5198530  44.7642260  28.8403910  43.1256830
  47.4186660  34.6687110  49.5230640  48.0628880  34.8746490  50.2004060
  47.7816100  33.9075510  49.0701490  41.0165830  19.5018420  42.7660860
  40.8880460  19.4936320  43.7145780  40.1927850  19.8401510  42.4151870
  48.6918740  32.6719460  48.2408090  49.3340970  31.9712620  48.3540260
  49.2168090  33.4517900  48.0604980  52.5374460  32.9568080  37.9647230
  52.3112040  32.2398520  38.5571870  52.1470660  32.7080520  37.1268980
  50.4656360  33.4714360  51.4444150  50.8012600  34.0581050  52.1222070
  49.5456700  33.3407070  51.6741940  38.0159760  21.2609540  52.2267560
  37.3018280  21.4606460  52.8320170  38.4354800  20.4849110  52.5982360
  52.1190710  30.8740020  39.6261390  51.8312410  31.3352710  40.4139270
  52.9142880  30.4137790  39.8945610  38.3032350  35.2489800  53.2134090
  38.4123470  34.3084540  53.0729480  37.6512910  35.5144550  52.5647820
  46.2944940  33.5205690  54.6132210  45.9741810  32.8014930  55.1577900
  45.6203300  34.1960760  54.6868270  44.3359110  34.3666140  39.5565360
  44.3269210  35.0995830  38.9409870  43.4157470  34.1197720  39.6492320
  39.9365750  29.5881030  40.3012120  39.3293700  30.3279930  40.3107420
  40.4115100  29.6780390  39.4750320  49.5098540  23.7531850  49.9769010
  49.8779360  22.9327060  50.3048580  48.6496740  23.8133740  50.3924660
  52.8760570  22.7088790  40.7856570  52.2473730  22.8134460  40.0714800
  52.3812490  22.9285570  41.5750450  47.3218710  34.4294380  38.2190550
  47.4230690  34.2258370  37.2892530  46.4220450  34.1752660  38.4238330
  44.8444600  24.9874740  42.2014450  44.1360750  25.4561080  42.6428060
  45.1289080  24.3296750  42.8359640  46.4700530  26.4071440  50.2006980
  46.9685780  26.8817260  50.8658830  46.6123480  25.4834960  50.4077010
  48.8760030  21.7125400  43.6410240  48.7527810  21.7311530  42.6919750
  49.8244590  21.7604340  43.7608640  45.9636820  36.9480700  42.9138220
  46.2178320  36.9102090  41.9917590  45.0149300  36.8214030  42.9066470
  43.0479620  23.2959820  39.5765160  43.8970150  23.7329970  39.5105350
  42.6810890  23.6080080  40.4037220  53.6767390  22.6239400  51.0435370
  53.1740990  23.3644800  51.3829180  54.4924050  23.0123400  50.7272160
  51.9689400  27.8672580  44.4896730  51.0279540  27.8822810  44.6644420
  52.2833470  27.0808540  44.9357030  41.9471040  29.5492180  38.0500690
  42.7134310  29.4373540  38.6126120  42.0245730  28.8530150  37.3977460
  40.6417800  26.9817250  38.7333580  40.7221390  26.0344760  38.8450980
  41.5337550  27.3124130  38.8394240  53.9714980  35.0381430  46.1650990
  54.0962400  35.8612600  46.6374800  54.8380540  34.8272160  45.8175140
  41.4432510  37.1312640  45.8368120  42.1794990  36.5828100  46.1076690
  41.8273430  37.9968650  45.6974110  40.4490790  36.3158710  55.0253700
  41.2503520  36.6370760  55.4389100  39.9342610  35.9554290  55.7473610
  44.5534820  36.3042950  37.6593690  45.3463430  36.5931780  37.2075480
  44.0339170  35.8735120  36.9806170  49.2855420  32.4238580  54.9729110
  48.6793580  32.4470180  54.2324860  48.9809530  31.6921620  55.5096360
  50.7155790  36.1518870  53.5838520  51.6677540  36.0676890  53.5338760
  50.5684010  36.8160580  54.2572310  53.6064990  35.5313080  39.0830430
  53.3206500  35.1178220  38.2684610  53.4084540  36.4600790  38.9630950
  38.1688600  28.8032170  53.9689750  38.6727620  28.2239450  54.5405980
  37.4296020  29.0872400  54.5066120  45.0712220  31.5246360  37.5236040
  44.9662860  30.9098710  38.2497420  44.9036440  31.0012250  36.7399050
  45.2226540  30.2103160  53.5025270  44.4572210  30.7788160  53.4179940
  45.4042500  29.9179370  52.6093500  48.3114950  30.5866390  38.1278030
  47.7625050  31.0335690  38.7720770  48.9334210  30.0815640  38.6515700
  52.3649890  31.9408490  54.0600290  53.1059360  32.2784250  53.5567750
  51.6022570  32.1100550  53.5070060  40.2011680  26.9461760  54.8639820
  40.2417020  26.6475630  55.7725050  41.0557180  27.3469370  54.7047340
  43.9790070  29.5457310  40.0243330  44.4006490  29.3797180  40.8674720
  44.1040910  28.7357540  39.5298470  42.1417490  25.5253860  52.8314310
  41.6113950  25.0344810  52.2037650  42.8105560  25.9538060  52.2972240
  46.4917710  28.5694920  37.2720430  47.0123370  27.8543940  36.9061580
  47.1386110  29.2080790  37.5720940  51.0395550  29.9923320  52.5955500
  51.4536570  30.1468400  53.4445920  50.1046550  30.1178540  52.7581280
  51.5117720  27.3319480  54.5994650  52.0938490  26.5771800  54.5115130
  51.6879490  27.8626920  53.8226130  42.6289790  22.4916230  52.9111600
  42.5346660  21.8736980  52.1862470  42.0487180  23.2182520  52.6841510
  45.3951230  21.0489470  49.9438990  44.9468530  21.0713730  49.0984540
  44.7616430  20.6508490  50.5409290  45.8010780  29.9443800  50.5651430
  46.2198890  30.7876530  50.3927670  44.8819410  30.0815840  50.3358210
  48.1374680  27.6759980  51.9489270  48.2570890  27.0801120  52.6884110
  48.9968680  27.7129670  51.5290570  50.4762580  28.2297170  50.5251780
  49.9497800  28.7539790  49.9216920  50.8193920  28.8624560  51.1561510
  42.8748970  25.6190540  36.9701490  42.6738030  24.7557900  37.3314830
  42.7041020  25.5323900  36.0323090  43.6518200  36.2496810  51.6809160
  43.1139290  36.9742870  51.3617860  43.9052160  35.7727150  50.8906500
  44.9043450  24.2181330  53.2065090  45.4943140  23.9097180  53.8942910
  44.0863690  23.7461080  53.3624990  49.7236880  23.8347140  53.4398110
  49.0352400  23.1728680  53.3748100  50.4442900  23.3885410  53.8846570
  50.3537280  20.4298770  39.4988370  50.6339570  19.5866670  39.8547790
  49.5803010  20.6621880  40.0127120  41.6731770  22.7191160  36.9579370
  41.9757670  22.7258590  36.0498520  42.4126360  22.3689020  37.4547030
  46.5080410  37.4848020  51.9395810  46.4339110  38.3883160  52.2468180
  45.6059250  37.1659920  51.9117880  44.8916700  21.6625780  37.9435570
  44.5438700  20.9849770  37.3638020  45.0929470  21.2015290  38.7578960
  47.0565740  36.6506530  39.5622170  47.9516530  36.9891500  39.5840930
  47.0883370  35.9285940  38.9346450  37.9107700  34.8122610  45.2429430
  38.2410710  33.9443670  45.0108070  38.3398700  35.0181130  46.0734390
  42.5069620  33.1431620  42.9031400  42.2065160  33.0196590  43.8035310
  42.4007110  32.2840210  42.4947130  38.3997910  35.6793200  47.9811060
  37.9628900  35.8594000  48.8135210  38.9675590  36.4367820  47.8392780
  54.0360090  35.1810200  52.2688370  53.4362080  35.2402760  51.5252290
  54.1653990  34.2415180  52.3985220  55.2761540  32.9228020  37.6058080
  54.4454500  32.9904670  38.0765310  55.4533370  33.8132140  37.3024940
  54.7318000  29.6675500  40.1092280  55.4936910  30.2372150  40.2151970
  54.7472370  29.1002700  40.8800590  38.2322340  28.1913430  44.3399940
  37.5771180  27.9225070  43.6959640  39.0700290  28.0817910  43.8901920
  55.7377970  30.5225600  44.9534210  56.1086800  29.7392920  44.5470180
  56.3779900  31.2114700  44.7751510  52.7211730  31.9062180  50.3664530
  51.9071570  32.3359340  50.6290320  53.1285930  32.5180590  49.7533580
  54.7837170  29.9609870  37.2664800  55.0586010  30.8688750  37.1384020
  54.5947910  29.8972400  38.2026790  51.1812780  22.9854720  38.5618430
  51.5997660  22.7985700  37.7215090  50.8748840  22.1333770  38.8721360
  54.6802510  27.8978860  42.2594230  54.3046110  27.1306790  41.8275520
  53.9505630  28.2801560  42.7469160  39.2698270  28.5766000  48.8803280
  39.6371310  28.4893400  49.7599300  38.7009090  27.8132550  48.7810140
  54.0702130  27.0450380  51.8933750  53.8388220  26.8163130  50.9931700
  54.3306680  27.9649930  51.8478640  38.8214270  25.4875090  52.7861700
  37.9270320  25.4541850  53.1255410  39.3611820  25.6861880  53.5512950
  52.5090200  22.2706810  54.6713450  53.3860380  22.2790210  55.0547450
  52.5211040  21.5337650  54.0605800  37.4460420  25.4012360  40.2825270
  36.5424500  25.6642560  40.1076930  37.9301040  25.6723530  39.5025230
  53.9553470  26.1236350  45.5601470  54.4790950  25.6299000  44.9291640
  54.5412890  26.2586710  46.3049040  54.1343190  26.2076220  49.0821020
  53.1845900  26.1739760  49.1966010  54.3156200  27.1176330  48.8470790
  39.9887630  24.4577900  38.1919650  40.6979330  24.0361120  37.7066930
  39.2727570  24.5253130  37.5603000  39.6361790  20.5117230  37.2322300
  40.3589920  21.0526170  37.5503520  39.9086310  20.2380650  36.3563840
  53.4453440  25.3809700  41.4993880  53.9412560  25.1480570  42.2842760
  53.2469510  24.5421540  41.0831520  39.3253980  19.7623420  47.1344920
  39.9730170  19.2120800  46.6940080  39.7455820  20.0166570  47.9560730
  54.8740600  24.0170650  44.0331560  54.7639880  23.8626690  44.9713830
  55.6348190  23.4891590  43.7906970  53.2206320  19.9564780  50.4914560
  53.8578540  20.5698920  50.8573750  53.3681210  19.9925440  49.5463790
  55.7630870  21.8478570  37.2737700  56.6880180  21.7159750  37.0655990
  55.7406660  21.9271390  38.2274150  55.8369360  22.6189230  39.8994410
  55.0420860  22.5534350  40.4287320  56.0412640  23.5539870  39.8879760
  52.7787780  36.6580780  43.8932800  53.3746850  36.3365350  43.2167220
  53.0365930  36.1852600  44.6846070  39.0785980  19.9179090  49.8770240
  38.7300800  20.3742910  50.6428420  38.7473680  19.0236220  49.9592670
  40.6850350  33.0898690  54.0423430  40.6419980  32.7191600  54.9237890
  40.8161360  34.0276260  54.1825250  44.3856380  34.6458280  49.6433150
  44.1447740  34.9132840  48.7563670  45.3259020  34.8164010  49.6984010
  46.5910800  21.1090970  53.3989660  46.5299690  21.7012800  54.1485070
  47.5311180  21.0016930  53.2539920  49.2285360  20.7661030  53.0381950
  49.8425770  21.0840320  52.3763030  49.7734920  20.2809620  53.6577810
  55.6460540  36.6652660  50.4443790  55.1518820  37.0621530  49.7270920
  55.0373830  36.0401870  50.8381070  39.7506620  19.4455290  53.1521010
  40.2989610  19.2643340  52.3887120  39.8161930  18.6549400  53.6877320
  40.5238380  36.0360940  51.1621210  39.9298700  35.9045640  51.9011250
  40.5162220  35.1999080  50.6963310  49.9693400  19.3293170  49.3651240
  49.0953240  19.6628280  49.1624170  49.8604150  18.8566350  50.1903110
  50.8765380  21.5364040  50.7492960  50.5478740  20.7215800  50.3694690
  51.8247680  21.4933850  50.6258650  53.3299990  37.3076080  47.7230530
  52.8702960  38.0591890  47.3488550  52.7012450  36.5882550  47.6645330
  40.1550610  33.4019320  50.1129250  39.4284670  32.7824610  50.0455200
  40.2159760  33.7959930  49.2427330  43.7595710  35.6164320  46.8978660
  44.2760730  35.0051680  46.3726920  44.4093090  36.1193100  47.3889670
  46.4991210  36.5072810  47.7247640  46.7869020  36.2527110  46.8480650
  47.0114430  35.9550170  48.3153210  47.7168220  20.2463010  48.3044150
  46.9340010  20.7208510  48.5840910  47.4231150  19.3417840  48.1957330
  52.2689290  20.9486110  46.3493240  52.7097380  20.8931210  45.5014840
  51.9996880  21.8644120  46.4203420  54.1327860  20.5801350  44.3602060
  54.0716260  19.6362570  44.2133080  54.9119890  20.6881440  44.9055520
  38.4380610  36.7193710  43.3226010  38.2702650  36.0864390  44.0207900
  37.5715120  36.9253110  42.9720200  39.0608630  20.5510490  40.8257870
  39.8187990  20.6639370  40.2521900  38.5985800  21.3879690  40.7801300
  45.6022440  22.6649760  43.8160180  44.7896950  22.2906650  43.4756060
  46.1064080  21.9094840  44.1181370  50.1047420  19.3292210  45.0543250
  50.7076790  19.9012420  45.5291770  49.3640410  19.8931650  44.8317150
  53.2482020  19.7313770  40.3283530  53.4432650  20.6297220  40.5950960
  52.4611890  19.5000850  40.8216480  41.4333780  21.0774540  39.3659840
  41.9626540  20.2904340  39.2367790  42.0662100  21.7565730  39.5995370
  43.6271620  20.8149680  42.4205230  42.9974360  20.1136990  42.5875360
  43.0876760  21.5753810  42.2038390  46.5663570  37.4288910  55.0915840
  47.4930880  37.1933180  55.1351800  46.5514000  38.2560910  54.6101870
  54.8008630  36.9714480  42.0890090  54.9760820  36.2852220  41.4451010
  54.1030200  37.4961530  41.6966760  43.7527180  20.0933660  54.8557720
  43.4711450  20.5967260  54.0918540  44.1346880  19.2955410  54.4899850
  50.3542640  19.5087240  55.4338190  50.2408090  19.8281850  56.3289710
  51.1712380  19.9099750  55.1375470  53.1341130  36.6558770  54.9156880
  53.9266450  36.1608000  54.7082840  53.4274280  37.3348910  55.5232490
  49.2600790  27.5279710  25.7972930  49.1794840  26.6134320  25.5264640
  48.8465210  28.0246780  25.0912640  47.3918830  29.3058730  27.6782200
  46.6160930  28.8259170  27.9680770  48.0431760  28.6264380  27.5038360
  41.4084660  29.6178540  28.5557960  40.5769540  29.3627250  28.9554470
  42.0165640  29.6889310  29.2915880  51.4126260  33.7118920  26.4581330
  50.9507790  32.9406160  26.7868500  52.2251810  33.7384990  26.9633780
  41.3885920  33.6518630  28.7515980  41.6913960  32.7616370  28.5726200
  42.1329510  34.2088850  28.5238230  39.8176610  24.5780430  22.3400350
  38.9293310  24.9196400  22.2380230  40.1017800  24.3780750  21.4481180
  37.7809620  27.1786080  28.2240050  38.3525730  26.4108280  28.2243690
  37.7811160  27.4774840  27.3146660  47.6389570  35.9976930  26.0785320
  47.0201010  36.4534430  25.5079760  48.4941350  36.1528390  25.6775020
  46.8327820  31.9815920  27.6852360  46.7636100  31.0405860  27.5241490
  47.5947680  32.0717330  28.2574930  39.0234490  22.5870440  30.0108980
  38.8437330  21.6896190  30.2911740  38.6214570  23.1342310  30.6855930
  47.8632990  24.7886300  27.9121290  48.2397810  23.9158180  27.7994960
  47.7652500  25.1245000  27.0211730  41.9938000  23.1611930  23.3738730
  42.1004750  24.0615660  23.6807490  41.0830360  23.1129900  23.0833380
  51.6457110  22.2836740  24.8449630  52.4666730  21.7933310  24.8875110
  51.6791190  22.8734400  25.5981470  39.6421160  25.0830940  28.6191320
  40.3231270  25.3469310  29.2378720  39.3269210  24.2431810  28.9529330
  43.8345730  26.1298300  27.7063910  44.3423950  26.6279270  28.3468930
  44.3658970  25.3533500  27.5303270  55.9356660  24.3003490  31.4093260
  55.2308830  24.6885200  30.8908370  56.2014580  24.9953780  32.0114190
  42.1181830  20.7696860  31.9727330  42.1200270  21.2869250  31.1673230
  41.2886140  20.2927040  31.9497260  48.5052920  30.8816170  23.4717230
  47.8870190  31.3465620  22.9079950  49.0176170  31.5743650  23.8886740
  43.3684680  30.4092040  30.1500830  43.0354060  31.0360960  30.7921900
  43.5451360  30.9353920  29.3702500  51.8818590  24.2237120  27.6177170
  51.1774160  24.5122010  28.1980280  52.2430750  25.0337230  27.2576730
  41.7997160  22.4806820  29.9797780  42.1413970  23.3248870  29.6851650
  40.8612970  22.6290560  30.0963120  42.5803780  32.3772840  31.9650010
  43.1977780  33.0523920  31.6834460  41.7196900  32.7860820  31.8737510
  37.8736120  31.5672700  20.8456860  37.4964100  32.0559800  20.1141760
  38.1309190  32.2397980  21.4763390  53.4981370  33.8412250  29.8804650
  52.8144890  34.5111360  29.8721320  54.0375660  34.0392900  29.1149510
  54.9505510  23.6691910  28.0086380  54.0030420  23.7030890  28.1401810
  55.2755500  24.4830860  28.3935740  45.4825050  19.9689090  26.3042370
  45.7900030  19.4135980  25.5877870  44.5525750  20.1033550  26.1215360
  51.0340110  35.6856380  28.5949830  51.0467270  35.2818670  27.7272090
  50.4815330  36.4603670  28.4911260  52.3285530  32.4072600  23.6840000
  52.2181860  31.4646930  23.8089420  52.3253780  32.7688240  24.5702760
  50.4325550  30.5886220  29.9232440  50.8494340  30.3746330  29.0885900
  51.1565370  30.8459010  30.4941060  47.8705810  28.0337920  23.0402490
  46.9435090  27.9675300  23.2690960  48.0230630  28.9718050  22.9257730
  47.8574890  24.3054920  20.0369650  46.9178560  24.4668880  20.1222110
  48.1758150  25.0240600  19.4905640  54.3787650  28.9873440  30.0148680
  53.5506280  29.0566530  29.5398810  54.9738130  29.5727750  29.5464510
  51.9003100  29.5958220  23.5437740  51.2815520  29.2577770  22.8964040
  51.8827550  28.9517980  24.2516930  51.3429660  25.7742760  30.9603550
  50.9300840  26.5996470  31.2143540  50.6105610  25.1887800  30.7679910
  43.4762450  28.5602660  25.8222220  43.0719450  27.8479910  25.3268120
  43.5625570  28.2155900  26.7110260  43.9444150  32.2470220  27.9861430
  43.6472440  31.6415690  27.3069210  44.8943970  32.2847530  27.8750790
  42.1891070  25.3345870  29.6021260  42.7405660  25.4441210  28.8274510
  42.7034580  25.7083470  30.3176490  52.0329760  35.8202090  31.6484530
  51.5560320  36.6274280  31.4557140  51.3491550  35.1680420  31.8010740
  43.0362580  31.9851910  34.6369230  42.1391110  32.2091880  34.8842630
  43.0615450  32.1086850  33.6880630  50.0767800  28.8345030  20.5510490
  50.5161080  27.9967460  20.4048310  50.7896220  29.4674430  20.6374630
  41.8633800  28.8565230  33.2126600  41.7241570  29.7288030  33.5814000
  40.9815160  28.5138040  33.0674540  48.1863180  33.7741100  24.5191730
  48.6259090  34.5165430  24.1047120  48.1250070  34.0167670  25.4430690
  43.6614150  34.7986930  35.4211750  43.6329580  35.2029880  34.5540180
  43.4979120  33.8697290  35.2583350  53.6584940  20.0887840  18.8651530
  53.3457600  20.1814670  19.7650600  54.4197410  20.6668870  18.8148960
  40.1767080  27.4547640  23.3228870  40.0564680  28.1809730  22.7110140
  39.8667970  26.6850550  22.8456780  55.6128970  35.5814030  36.7175920
  56.0888690  36.0596920  37.3965000  56.2336130  35.5131520  35.9921420
  37.8152450  30.6262780  29.1297510  37.8932870  30.7611550  28.1853230
  38.4294130  29.9178670  29.3225630  39.0600080  32.3262970  25.5403690
  38.6528160  32.4677560  24.6857290  39.9513090  32.0423130  25.3374900
  55.0162220  32.7726880  33.8775930  55.1425280  32.5338760  32.9593110
  55.0583600  31.9411420  34.3498010  48.8778960  36.4754880  32.4470740
  49.3923630  36.3862890  33.2493170  48.0348040  36.8214580  32.7398650
  50.8533360  36.7610220  21.8754740  50.6934500  36.4713160  22.7736570
  50.6880070  35.9850350  21.3399970  43.3321740  36.5408750  23.6526360
  43.1564220  35.6244290  23.4394160  42.4777480  36.8996040  23.8924160
  50.5559490  34.2697780  20.4352740  49.8624650  34.2675070  19.7755020
  51.2982350  33.8457100  20.0046910  50.1209420  35.8960490  24.5101230
  50.5766370  35.1149870  24.8239850  50.4601940  36.6067310  25.0542410
  54.8686230  24.8259340  34.8425670  54.2530500  25.3339010  34.3141130
  54.5482650  23.9257670  34.7851610  37.8711970  31.6676950  31.6691970
  38.0343010  31.1982310  30.8511340  38.3364420  31.1600510  32.3340810
  42.6430740  20.7982710  26.7052540  42.1998890  21.5792250  26.3737060
  43.2015730  21.1212600  27.4123480  46.9300550  23.6651230  32.3087860
  46.4679920  23.8734250  33.1207800  46.5278660  22.8510580  32.0058530
  51.9305060  24.8860180  33.4384520  51.0798650  24.5865930  33.7593590
  51.7706850  25.1302190  32.5268340  49.0254770  26.3861930  35.5383310
  49.3508180  25.5525680  35.1985540  49.8135100  26.9090450  35.6861640
  45.7589560  20.4193410  21.5858370  45.1343740  20.4153280  22.3111680
  45.6719680  19.5524370  21.1894340  44.6806640  21.3430040  28.5642140
  44.9778970  22.2492870  28.4834160  45.2292200  20.8548820  27.9501710
  42.4344960  25.9216280  24.4333790  42.2085880  25.7053450  25.3380410
  41.6537490  26.3544740  24.0879760  49.6642720  25.9279650  23.0324440
  49.0651610  26.6515450  22.8488060  50.2122330  25.8656430  22.2500890
  44.8744170  26.8201860  35.0994060  44.7787770  25.8796590  34.9494460
  45.7176150  27.0416930  34.7042130  48.2707590  24.5643190  25.0627720
  48.6637160  24.8815390  24.2496410  48.6324440  23.6855070  25.1772240
  40.0054710  23.2315530  33.2527840  39.6118100  24.0790740  33.4600620
  39.3173110  22.5941900  33.4436480  46.5799760  23.3150500  36.3224580
  45.8898080  23.1222700  36.9570670  47.3232060  23.5985140  36.8548880
  37.3071760  21.1543990  27.2857920  37.0184810  21.7246850  27.9982900
  38.0517520  20.6748440  27.6489150  37.4941990  25.0964110  18.4960640
  37.4116660  26.0394870  18.6375630  37.1425050  24.9539020  17.6172990
  48.8562730  27.1548940  29.1578500  48.1243850  27.6635750  29.5068600
  48.4587070  26.3378920  28.8567280  45.2940120  23.8303140  27.5630990
  45.2976180  23.3893090  26.7135530  46.1891240  24.1520470  27.6702810
  41.1442500  23.7129630  26.5225200  40.8042550  24.1904860  27.2792250
  40.3819820  23.2594750  26.1626300  45.3560270  24.8315220  20.5537750
  45.4773090  24.7901700  21.5023570  44.9708780  25.6939370  20.3984480
  49.3188640  22.6082620  28.5701440  49.3361380  23.0591270  29.4143290
  49.0704220  21.7088260  28.7834880  44.3681770  27.1416360  19.9521050
  43.7998670  26.6934610  19.3256960  45.0770770  27.5009140  19.4186200
  52.7459390  20.0214800  34.4087820  53.0705160  19.2904460  34.9345800
  52.7815900  19.7028440  33.5068810  39.4450950  31.0428380  33.8287780
  39.0605740  30.4022050  34.4270740  39.7563140  31.7464500  34.3982510
  45.5948090  27.8904920  29.3096400  45.9618220  27.4163490  30.0557740
  45.4053150  28.7646490  29.6504740  38.4588580  22.6348610  25.4389870
  38.1735500  22.2704280  26.2768490  38.3967440  21.9029070  24.8253010
  43.3847460  26.9313560  31.6280610  43.0804530  27.8105540  31.8530970
  44.3393920  26.9913350  31.6638050  41.9129250  31.1374550  22.2247460
  41.1391510  30.5972170  22.0646180  42.6423880  30.6181160  21.8865220
  52.6717230  30.1339910  28.0173850  53.3916350  30.6295200  27.6269960
  52.4699050  29.4557800  27.3727720  48.1327170  21.5277870  22.1603240
  47.3191780  21.0291040  22.0848550  47.9389120  22.3676120  21.7439590
  48.0536030  30.2048970  33.9042850  47.9873340  29.2844640  33.6500440
  47.4241170  30.3024410  34.6187490  50.8475560  25.8997520  20.4565400
  51.7355180  26.2114750  20.2816740  50.8180650  25.0269770  20.0645980
  41.9566650  30.8054930  25.8626270  42.4745320  30.0023190  25.8083160
  41.5050670  30.7434070  26.7043100  46.8436150  32.0721210  21.1353570
  47.1851850  32.8163440  20.6396890  46.0148860  32.3852330  21.4978400
  39.4411190  27.7716300  32.7751970  39.0826130  28.4370150  33.3625310
  39.1465750  26.9399850  33.1464590  42.6424310  28.2300540  35.6591520
  42.3424450  28.3757720  34.7619340  43.4135550  27.6705830  35.5664910
  47.9852760  33.0269540  33.6546650  47.9997300  32.0950500  33.4365560
  47.2777860  33.1129300  34.2936420  53.1189830  27.2109360  19.9245260
  53.0353550  27.6423580  19.0741700  53.8384020  27.6707710  20.3572080
  54.1963970  29.6676880  33.0015230  53.4712160  30.2605660  32.8044620
  54.7239430  29.6600420  32.2028600  54.1477080  34.0651620  22.6527390
  53.5053240  33.4107240  22.9271110  53.7607740  34.4706710  21.8768060
  49.7263560  31.3937050  26.4999080  50.0787380  30.7965180  25.8400450
  48.8425890  31.0681280  26.6707330  45.8126840  32.1534740  23.9069490
  46.4997970  32.7003950  24.2877080  45.0259260  32.6975470  23.9419100
  37.9519240  27.7707560  19.3986570  38.8214090  28.0532360  19.6822490
  37.4609560  28.5843430  19.2835380  45.1154050  29.1580770  23.5194850
  45.5716830  29.9686020  23.7455040  44.7642260  28.8403910  24.3513340
  47.4186660  34.6687110  30.7487150  48.0628880  34.8746490  31.4260570
  47.7816100  33.9075510  30.2958000  41.0165830  19.5018420  23.9917370
  40.8880460  19.4936320  24.9402290  40.1927850  19.8401510  23.6408380
  48.6918740  32.6719460  29.4664600  49.3340970  31.9712620  29.5796770
  49.2168090  33.4517900  29.2861490  52.5374460  32.9568080  19.1903740
  52.3112040  32.2398520  19.7828380  52.1470660  32.7080520  18.3525490
  50.4656360  33.4714360  32.6700660  50.8012600  34.0581050  33.3478580
  49.5456700  33.3407070  32.8998450  38.3190490  36.9834940  19.9648200
  38.6788130  37.5824280  19.3105470  38.1782830  37.5294830  20.7383230
  38.0159760  21.2609540  33.4524070  37.3018280  21.4606460  34.0576680
  38.4354800  20.4849110  33.8238870  52.1190710  30.8740020  20.8517900
  51.8312410  31.3352710  21.6395780  52.9142880  30.4137790  21.1202120
  46.2944940  33.5205690  35.8388720  45.9741810  32.8014930  36.3834410
  45.6203300  34.1960760  35.9124780  44.3359110  34.3666140  20.7821870
  44.3269210  35.0995830  20.1666380  43.4157470  34.1197720  20.8748830
  39.9365750  29.5881030  21.5268630  39.3293700  30.3279930  21.5363930
  40.4115100  29.6780390  20.7006830  49.5098540  23.7531850  31.2025520
  49.8779360  22.9327060  31.5305090  48.6496740  23.8133740  31.6181170
  52.8760570  22.7088790  22.0113080  52.2473730  22.8134460  21.2971310
  52.3812490  22.9285570  22.8006960  47.3218710  34.4294380  19.4447060
  47.4230690  34.2258370  18.5149040  46.4220450  34.1752660  19.6494840
  44.8444600  24.9874740  23.4270960  44.1360750  25.4561080  23.8684570
  45.1289080  24.3296750  24.0616150  46.4700530  26.4071440  31.4263490
  46.9685780  26.8817260  32.0915340  46.6123480  25.4834960  31.6333520
  48.8760030  21.7125400  24.8666750  48.7527810  21.7311530  23.9176260
  49.8244590  21.7604340  24.9865150  45.9636820  36.9480700  24.1394730
  46.2178320  36.9102090  23.2174100  45.0149300  36.8214030  24.1322980
  43.0479620  23.2959820  20.8021670  43.8970150  23.7329970  20.7361860
  42.6810890  23.6080080  21.6293730  53.6767390  22.6239400  32.2691880
  53.1740990  23.3644800  32.6085690  54.4924050  23.0123400  31.9528670
  51.9689400  27.8672580  25.7153240  51.0279540  27.8822810  25.8900930
  52.2833470  27.0808540  26.1613540  41.9471040  29.5492180  19.2757200
  42.7134310  29.4373540  19.8382630  42.0245730  28.8530150  18.6233970
  40.6417800  26.9817250  19.9590090  40.7221390  26.0344760  20.0707490
  41.5337550  27.3124130  20.0650750  53.9714980  35.0381430  27.3907500
  54.0962400  35.8612600  27.8631310  54.8380540  34.8272160  27.0431650
  41.4432510  37.1312640  27.0624630  42.1794990  36.5828100  27.3333200
  41.8273430  37.9968650  26.9230620  38.3277990  33.1986210  22.9366140
  37.4017770  33.4407350  22.9271550  38.7934420  34.0260470  22.8150890
  44.5534820  36.3042950  18.8850200  45.3463430  36.5931780  18.4331990
  44.0339170  35.8735120  18.2062680  49.2855420  32.4238580  36.1985620
  48.6793580  32.4470180  35.4581370  48.9809530  31.6921620  36.7352870
  50.7155790  36.1518870  34.8095030  51.6677540  36.0676890  34.7595270
  50.5684010  36.8160580  35.4828820  53.6064990  35.5313080  20.3086940
  53.3206500  35.1178220  19.4941120  53.4084540  36.4600790  20.1887460
  38.1688600  28.8032170  35.1946260  38.6727620  28.2239450  35.7662490
  37.4296020  29.0872400  35.7322630  45.0712220  31.5246360  18.7492550
  44.9662860  30.9098710  19.4753930  44.9036440  31.0012250  17.9655560
  45.2226540  30.2103160  34.7281780  44.4572210  30.7788160  34.6436450
  45.4042500  29.9179370  33.8350010  48.3114950  30.5866390  19.3534540
  47.7625050  31.0335690  19.9977280  48.9334210  30.0815640  19.8772210
  52.3649890  31.9408490  35.2856800  53.1059360  32.2784250  34.7824260
  51.6022570  32.1100550  34.7326570  40.2011680  26.9461760  36.0896330
  40.2417020  26.6475630  36.9981560  41.0557180  27.3469370  35.9303850
  43.9790070  29.5457310  21.2499840  44.4006490  29.3797180  22.0931230
  44.1040910  28.7357540  20.7554980  42.1417490  25.5253860  34.0570820
  41.6113950  25.0344810  33.4294160  42.8105560  25.9538060  33.5228750
  46.4917710  28.5694920  18.4976940  47.0123370  27.8543940  18.1318090
  47.1386110  29.2080790  18.7977450  51.0395550  29.9923320  33.8212010
  51.4536570  30.1468400  34.6702430  50.1046550  30.1178540  33.9837790
  51.5117720  27.3319480  35.8251160  52.0938490  26.5771800  35.7371640
  51.6879490  27.8626920  35.0482640  42.6289790  22.4916230  34.1368110
  42.5346660  21.8736980  33.4118980  42.0487180  23.2182520  33.9098020
  45.3951230  21.0489470  31.1695500  44.9468530  21.0713730  30.3241050
  44.7616430  20.6508490  31.7665800  45.8010780  29.9443800  31.7907940
  46.2198890  30.7876530  31.6184180  44.8819410  30.0815840  31.5614720
  48.1374680  27.6759980  33.1745780  48.2570890  27.0801120  33.9140620
  48.9968680  27.7129670  32.7547080  50.4762580  28.2297170  31.7508290
  49.9497800  28.7539790  31.1473430  50.8193920  28.8624560  32.3818020
  42.8748970  25.6190540  18.1958000  42.6738030  24.7557900  18.5571340
  42.7041020  25.5323900  17.2579600  43.6518200  36.2496810  32.9065670
  43.1139290  36.9742870  32.5874370  43.9052160  35.7727150  32.1163010
  44.9043450  24.2181330  34.4321600  45.4943140  23.9097180  35.1199420
  44.0863690  23.7461080  34.5881500  49.7236880  23.8347140  34.6654620
  49.0352400  23.1728680  34.6004610  50.4442900  23.3885410  35.1103080
  50.3537280  20.4298770  20.7244880  50.6339570  19.5866670  21.0804300
  49.5803010  20.6621880  21.2383630  41.6731770  22.7191160  18.1835880
  41.9757670  22.7258590  17.2755030  42.4126360  22.3689020  18.6803540
  46.5080410  37.4848020  33.1652320  46.4339110  38.3883160  33.4724690
  45.6059250  37.1659920  33.1374390  44.8916700  21.6625780  19.1692080
  44.5438700  20.9849770  18.5894530  45.0929470  21.2015290  19.9835470
  47.0565740  36.6506530  20.7878680  47.9516530  36.9891500  20.8097440
  47.0883370  35.9285940  20.1602960  40.6961900  32.0233580  19.0165680
  41.1336770  32.5663250  19.6723260  41.1809630  31.1980530  19.0262020
  37.9107700  34.8122610  26.4685940  38.2410710  33.9443670  26.2364580
  38.3398700  35.0181130  27.2990900  42.5069620  33.1431620  24.1287910
  42.2065160  33.0196590  25.0291820  42.4007110  32.2840210  23.7203640
  38.3997910  35.6793200  29.2067570  37.9628900  35.8594000  30.0391720
  38.9675590  36.4367820  29.0649290  54.0360090  35.1810200  33.4944880
  53.4362080  35.2402760  32.7508800  54.1653990  34.2415180  33.6241730
  55.2761540  32.9228020  18.8314590  54.4454500  32.9904670  19.3021820
  55.4533370  33.8132140  18.5281450  54.7318000  29.6675500  21.3348790
  55.4936910  30.2372150  21.4408480  54.7472370  29.1002700  22.1057100
  38.2322340  28.1913430  25.5656450  37.5771180  27.9225070  24.9216150
  39.0700290  28.0817910  25.1158430  55.7377970  30.5225600  26.1790720
  56.1086800  29.7392920  25.7726690  56.3779900  31.2114700  26.0008020
  52.7211730  31.9062180  31.5921040  51.9071570  32.3359340  31.8546830
  53.1285930  32.5180590  30.9790090  54.7837170  29.9609870  18.4921310
  55.0586010  30.8688750  18.3640530  54.5947910  29.8972400  19.4283300
  51.1812780  22.9854720  19.7874940  51.5997660  22.7985700  18.9471600
  50.8748840  22.1333770  20.0977870  54.6802510  27.8978860  23.4850740
  54.3046110  27.1306790  23.0532030  53.9505630  28.2801560  23.9725670
  39.2698270  28.5766000  30.1059790  39.6371310  28.4893400  30.9855810
  38.7009090  27.8132550  30.0066650  54.0702130  27.0450380  33.1190260
  53.8388220  26.8163130  32.2188210  54.3306680  27.9649930  33.0735150
  38.8214270  25.4875090  34.0118210  37.9270320  25.4541850  34.3511920
  39.3611820  25.6861880  34.7769460  52.5090200  22.2706810  35.8969960
  53.3860380  22.2790210  36.2803960  52.5211040  21.5337650  35.2862310
  37.4460420  25.4012360  21.5081780  36.5424500  25.6642560  21.3333440
  37.9301040  25.6723530  20.7281740  53.9553470  26.1236350  26.7857980
  54.4790950  25.6299000  26.1548150  54.5412890  26.2586710  27.5305550
  54.1343190  26.2076220  30.3077530  53.1845900  26.1739760  30.4222520
  54.3156200  27.1176330  30.0727300  39.9887630  24.4577900  19.4176160
  40.6979330  24.0361120  18.9323440  39.2727570  24.5253130  18.7859510
  39.6361790  20.5117230  18.4578810  40.3589920  21.0526170  18.7760030
  39.9086310  20.2380650  17.5820350  53.4453440  25.3809700  22.7250390
  53.9412560  25.1480570  23.5099270  53.2469510  24.5421540  22.3088030
  39.3253980  19.7623420  28.3601430  39.9730170  19.2120800  27.9196590
  39.7455820  20.0166570  29.1817240  54.8740600  24.0170650  25.2588070
  54.7639880  23.8626690  26.1970340  55.6348190  23.4891590  25.0163480
  53.2206320  19.9564780  31.7171070  53.8578540  20.5698920  32.0830260
  53.3681210  19.9925440  30.7720300  55.7630870  21.8478570  18.4994210
  56.6880180  21.7159750  18.2912500  55.7406660  21.9271390  19.4530660
  55.8369360  22.6189230  21.1250920  55.0420860  22.5534350  21.6543830
  56.0412640  23.5539870  21.1136270  52.7787780  36.6580780  25.1189310
  53.3746850  36.3365350  24.4423730  53.0365930  36.1852600  25.9102580
  39.0785980  19.9179090  31.1026750  38.7300800  20.3742910  31.8684930
  38.7473680  19.0236220  31.1849180  44.3856380  34.6458280  30.8689660
  44.1447740  34.9132840  29.9820180  45.3259020  34.8164010  30.9240520
  46.5910800  21.1090970  34.6246170  46.5299690  21.7012800  35.3741580
  47.5311180  21.0016930  34.4796430  49.2285360  20.7661030  34.2638460
  49.8425770  21.0840320  33.6019540  49.7734920  20.2809620  34.8834320
  55.6460540  36.6652660  31.6700300  55.1518820  37.0621530  30.9527430
  55.0373830  36.0401870  32.0637580  39.7506620  19.4455290  34.3777520
  40.2989610  19.2643340  33.6143630  39.8161930  18.6549400  34.9133830
  40.5238380  36.0360940  32.3877720  39.9298700  35.9045640  33.1267760
  40.5162220  35.1999080  31.9219820  49.9693400  19.3293170  30.5907750
  49.0953240  19.6628280  30.3880680  49.8604150  18.8566350  31.4159620
  50.8765380  21.5364040  31.9749470  50.5478740  20.7215800  31.5951200
  51.8247680  21.4933850  31.8515160  53.3299990  37.3076080  28.9487040
  52.8702960  38.0591890  28.5745060  52.7012450  36.5882550  28.8901840
  40.1550610  33.4019320  31.3385760  39.4284670  32.7824610  31.2711710
  40.2159760  33.7959930  30.4683840  43.7595710  35.6164320  28.1235170
  44.2760730  35.0051680  27.5983430  44.4093090  36.1193100  28.6146180
  46.4991210  36.5072810  28.9504150  46.7869020  36.2527110  28.0737160
  47.0114430  35.9550170  29.5409720  47.7168220  20.2463010  29.5300660
  46.9340010  20.7208510  29.8097420  47.4231150  19.3417840  29.4213840
  52.2689290  20.9486110  27.5749750  52.7097380  20.8931210  26.7271350
  51.9996880  21.8644120  27.6459930  54.1327860  20.5801350  25.5858570
  54.0716260  19.6362570  25.4389590  54.9119890  20.6881440  26.1312030
  38.4380610  36.7193710  24.5482520  38.2702650  36.0864390  25.2464410
  37.5715120  36.9253110  24.1976710  39.0608630  20.5510490  22.0514380
  39.8187990  20.6639370  21.4778410  38.5985800  21.3879690  22.0057810
  45.6022440  22.6649760  25.0416690  44.7896950  22.2906650  24.7012570
  46.1064080  21.9094840  25.3437880  50.1047420  19.3292210  26.2799760
  50.7076790  19.9012420  26.7548280  49.3640410  19.8931650  26.0573660
  53.2482020  19.7313770  21.5540040  53.4432650  20.6297220  21.8207470
  52.4611890  19.5000850  22.0472990  40.0443310  35.4126940  21.9932660
  39.5190930  35.7934970  21.2894620  39.9687890  36.0377710  22.7142370
  41.4333780  21.0774540  20.5916350  41.9626540  20.2904340  20.4624300
  42.0662100  21.7565730  20.8251880  43.6271620  20.8149680  23.6461740
  42.9974360  20.1136990  23.8131870  43.0876760  21.5753810  23.4294900
  46.5663570  37.4288910  36.3172350  47.4930880  37.1933180  36.3608310
  46.5514000  38.2560910  35.8358380  54.8008630  36.9714480  23.3146600
  54.9760820  36.2852220  22.6707520  54.1030200  37.4961530  22.9223270
  43.7527180  20.0933660  36.0814230  43.4711450  20.5967260  35.3175050
  44.1346880  19.2955410  35.7156360  42.6436280  37.3609320  20.8681910
  43.3755100  37.0768600  20.3205800  42.9029950  37.1222600  21.7581290
  41.8051070  33.4774050  20.8728240  41.1759950  33.9459150  21.4214070
  41.9198900  32.6323270  21.3074430  50.3542640  19.5087240  36.6594700
  50.2408090  19.8281850  37.5546220  51.1712380  19.9099750  36.3631980
  53.1341130  36.6558770  36.1413390  53.9266450  36.1608000  35.9339350
  53.4274280  37.3348910  36.7489000  49.2600790  27.5279710   7.0229440
  49.1794840  26.6134320   6.7521150  48.8465210  28.0246780   6.3169150
  47.3918830  29.3058730   8.9038710  46.6160930  28.8259170   9.1937280
  48.0431760  28.6264380   8.7294870  41.4084660  29.6178540   9.7814470
  40.5769540  29.3627250  10.1810980  42.0165640  29.6889310  10.5172390
  51.4126260  33.7118920   7.6837840  50.9507790  32.9406160   8.0125010
  52.2251810  33.7384990   8.1890290  41.3885920  33.6518630   9.9772490
  41.6913960  32.7616370   9.7982710  42.1329510  34.2088850   9.7494740
  39.8176610  24.5780430   3.5656860  38.9293310  24.9196400   3.4636740
  40.1017800  24.3780750   2.6737690  37.7809620  27.1786080   9.4496560
  38.3525730  26.4108280   9.4500200  37.7811160  27.4774840   8.5403170
  47.6389570  35.9976930   7.3041830  47.0201010  36.4534430   6.7336270
  48.4941350  36.1528390   6.9031530  46.8327820  31.9815920   8.9108870
  46.7636100  31.0405860   8.7498000  47.5947680  32.0717330   9.4831440
  39.0234490  22.5870440  11.2365490  38.8437330  21.6896190  11.5168250
  38.6214570  23.1342310  11.9112440  47.8632990  24.7886300   9.1377800
  48.2397810  23.9158180   9.0251470  47.7652500  25.1245000   8.2468240
  41.9938000  23.1611930   4.5995240  42.1004750  24.0615660   4.9064000
  41.0830360  23.1129900   4.3089890  51.6457110  22.2836740   6.0706140
  52.4666730  21.7933310   6.1131620  51.6791190  22.8734400   6.8237980
  39.6421160  25.0830940   9.8447830  40.3231270  25.3469310  10.4635230
  39.3269210  24.2431810  10.1785840  43.8345730  26.1298300   8.9320420
  44.3423950  26.6279270   9.5725440  44.3658970  25.3533500   8.7559780
  55.9356660  24.3003490  12.6349770  55.2308830  24.6885200  12.1164880
  56.2014580  24.9953780  13.2370700  42.1181830  20.7696860  13.1983840
  42.1200270  21.2869250  12.3929740  41.2886140  20.2927040  13.1753770
  48.5052920  30.8816170   4.6973740  47.8870190  31.3465620   4.1336460
  49.0176170  31.5743650   5.1143250  43.3684680  30.4092040  11.3757340
  43.0354060  31.0360960  12.0178410  43.5451360  30.9353920  10.5959010
  51.8818590  24.2237120   8.8433680  51.1774160  24.5122010   9.4236790
  52.2430750  25.0337230   8.4833240  41.7997160  22.4806820  11.2054290
  42.1413970  23.3248870  10.9108160  40.8612970  22.6290560  11.3219630
  42.5803780  32.3772840  13.1906520  43.1977780  33.0523920  12.9090970
  41.7196900  32.7860820  13.0994020  37.8736120  31.5672700   2.0713370
  37.4964100  32.0559800   1.3398270  38.1309190  32.2397980   2.7019900
  53.4981370  33.8412250  11.1061160  52.8144890  34.5111360  11.0977830
  54.0375660  34.0392900  10.3406020  54.9505510  23.6691910   9.2342890
  54.0030420  23.7030890   9.3658320  55.2755500  24.4830860   9.6192250
  45.4825050  19.9689090   7.5298880  45.7900030  19.4135980   6.8134380
  44.5525750  20.1033550   7.3471870  51.0340110  35.6856380   9.8206340
  51.0467270  35.2818670   8.9528600  50.4815330  36.4603670   9.7167770
  52.3285530  32.4072600   4.9096510  52.2181860  31.4646930   5.0345930
  52.3253780  32.7688240   5.7959270  50.4325550  30.5886220  11.1488950
  50.8494340  30.3746330  10.3142410  51.1565370  30.8459010  11.7197570
  47.8705810  28.0337920   4.2659000  46.9435090  27.9675300   4.4947470
  48.0230630  28.9718050   4.1514240  54.3787650  28.9873440  11.2405190
  53.5506280  29.0566530  10.7655320  54.9738130  29.5727750  10.7721020
  51.9003100  29.5958220   4.7694250  51.2815520  29.2577770   4.1220550
  51.8827550  28.9517980   5.4773440  51.3429660  25.7742760  12.1860060
  50.9300840  26.5996470  12.4400050  50.6105610  25.1887800  11.9936420
  43.4762450  28.5602660   7.0478730  43.0719450  27.8479910   6.5524630
  43.5625570  28.2155900   7.9366770  43.9444150  32.2470220   9.2117940
  43.6472440  31.6415690   8.5325720  44.8943970  32.2847530   9.1007300
  42.1891070  25.3345870  10.8277770  42.7405660  25.4441210  10.0531020
  42.7034580  25.7083470  11.5433000  52.0329760  35.8202090  12.8741040
  51.5560320  36.6274280  12.6813650  51.3491550  35.1680420  13.0267250
  43.0362580  31.9851910  15.8625740  42.1391110  32.2091880  16.1099140
  43.0615450  32.1086850  14.9137140  50.0767800  28.8345030   1.7767000
  50.5161080  27.9967460   1.6304820  50.7896220  29.4674430   1.8631140
  41.8633800  28.8565230  14.4383110  41.7241570  29.7288030  14.8070510
  40.9815160  28.5138040  14.2931050  48.1863180  33.7741100   5.7448240
  48.6259090  34.5165430   5.3303630  48.1250070  34.0167670   6.6687200
  43.6614150  34.7986930  16.6468260  43.6329580  35.2029880  15.7796690
  43.4979120  33.8697290  16.4839860  40.1767080  27.4547640   4.5485380
  40.0564680  28.1809730   3.9366650  39.8667970  26.6850550   4.0713290
  55.6128970  35.5814030  17.9432430  56.0888690  36.0596920  18.6221510
  56.2336130  35.5131520  17.2177930  37.8152450  30.6262780  10.3554020
  37.8932870  30.7611550   9.4109740  38.4294130  29.9178670  10.5482140
  39.0600080  32.3262970   6.7660200  38.6528160  32.4677560   5.9113800
  39.9513090  32.0423130   6.5631410  55.0162220  32.7726880  15.1032440
  55.1425280  32.5338760  14.1849620  55.0583600  31.9411420  15.5754520
  48.8778960  36.4754880  13.6727250  49.3923630  36.3862890  14.4749680
  48.0348040  36.8214580  13.9655160  50.8533360  36.7610220   3.1011250
  50.6934500  36.4713160   3.9993080  50.6880070  35.9850350   2.5656480
  43.3321740  36.5408750   4.8782870  43.1564220  35.6244290   4.6650670
  42.4777480  36.8996040   5.1180670  50.1209420  35.8960490   5.7357740
  50.5766370  35.1149870   6.0496360  50.4601940  36.6067310   6.2798920
  54.8686230  24.8259340  16.0682180  54.2530500  25.3339010  15.5397640
  54.5482650  23.9257670  16.0108120  37.8711970  31.6676950  12.8948480
  38.0343010  31.1982310  12.0767850  38.3364420  31.1600510  13.5597320
  42.6430740  20.7982710   7.9309050  42.1998890  21.5792250   7.5993570
  43.2015730  21.1212600   8.6379990  46.9300550  23.6651230  13.5344370
  46.4679920  23.8734250  14.3464310  46.5278660  22.8510580  13.2315040
  51.9305060  24.8860180  14.6641030  51.0798650  24.5865930  14.9850100
  51.7706850  25.1302190  13.7524850  49.0254770  26.3861930  16.7639820
  49.3508180  25.5525680  16.4242050  49.8135100  26.9090450  16.9118150
  45.7589560  20.4193410   2.8114880  45.1343740  20.4153280   3.5368190
  45.6719680  19.5524370   2.4150850  44.6806640  21.3430040   9.7898650
  44.9778970  22.2492870   9.7090670  45.2292200  20.8548820   9.1758220
  42.4344960  25.9216280   5.6590300  42.2085880  25.7053450   6.5636920
  41.6537490  26.3544740   5.3136270  49.6642720  25.9279650   4.2580950
  49.0651610  26.6515450   4.0744570  50.2122330  25.8656430   3.4757400
  44.8744170  26.8201860  16.3250570  44.7787770  25.8796590  16.1750970
  45.7176150  27.0416930  15.9298640  48.2707590  24.5643190   6.2884230
  48.6637160  24.8815390   5.4752920  48.6324440  23.6855070   6.4028750
  40.0054710  23.2315530  14.4784350  39.6118100  24.0790740  14.6857130
  39.3173110  22.5941900  14.6692990  46.5799760  23.3150500  17.5481090
  45.8898080  23.1222700  18.1827180  47.3232060  23.5985140  18.0805390
  37.3071760  21.1543990   8.5114430  37.0184810  21.7246850   9.2239410
  38.0517520  20.6748440   8.8745660  48.8562730  27.1548940  10.3835010
  48.1243850  27.6635750  10.7325110  48.4587070  26.3378920  10.0823790
  45.2940120  23.8303140   8.7887500  45.2976180  23.3893090   7.9392040
  46.1891240  24.1520470   8.8959320  41.1442500  23.7129630   7.7481710
  40.8042550  24.1904860   8.5048760  40.3819820  23.2594750   7.3882810
  45.3560270  24.8315220   1.7794260  45.4773090  24.7901700   2.7280080
  44.9708780  25.6939370   1.6240990  49.3188640  22.6082620   9.7957950
  49.3361380  23.0591270  10.6399800  49.0704220  21.7088260  10.0091390
  52.7459390  20.0214800  15.6344330  53.0705160  19.2904460  16.1602310
  52.7815900  19.7028440  14.7325320  39.4450950  31.0428380  15.0544290
  39.0605740  30.4022050  15.6527250  39.7563140  31.7464500  15.6239020
  45.5948090  27.8904920  10.5352910  45.9618220  27.4163490  11.2814250
  45.4053150  28.7646490  10.8761250  38.4588580  22.6348610   6.6646380
  38.1735500  22.2704280   7.5025000  38.3967440  21.9029070   6.0509520
  43.3847460  26.9313560  12.8537120  43.0804530  27.8105540  13.0787480
  44.3393920  26.9913350  12.8894560  41.9129250  31.1374550   3.4503970
  41.1391510  30.5972170   3.2902690  42.6423880  30.6181160   3.1121730
  52.6717230  30.1339910   9.2430360  53.3916350  30.6295200   8.8526470
  52.4699050  29.4557800   8.5984230  48.1327170  21.5277870   3.3859750
  47.3191780  21.0291040   3.3105060  47.9389120  22.3676120   2.9696100
  48.0536030  30.2048970  15.1299360  47.9873340  29.2844640  14.8756950
  47.4241170  30.3024410  15.8444000  41.9566650  30.8054930   7.0882780
  42.4745320  30.0023190   7.0339670  41.5050670  30.7434070   7.9299610
  46.8436150  32.0721210   2.3610080  47.1851850  32.8163440   1.8653400
  46.0148860  32.3852330   2.7234910  39.4411190  27.7716300  14.0008480
  39.0826130  28.4370150  14.5881820  39.1465750  26.9399850  14.3721100
  42.6424310  28.2300540  16.8848030  42.3424450  28.3757720  15.9875850
  43.4135550  27.6705830  16.7921420  47.9852760  33.0269540  14.8803160
  47.9997300  32.0950500  14.6622070  47.2777860  33.1129300  15.5192930
  54.1963970  29.6676880  14.2271740  53.4712160  30.2605660  14.0301130
  54.7239430  29.6600420  13.4285110  54.1477080  34.0651620   3.8783900
  53.5053240  33.4107240   4.1527620  53.7607740  34.4706710   3.1024570
  49.7263560  31.3937050   7.7255590  50.0787380  30.7965180   7.0656960
  48.8425890  31.0681280   7.8963840  45.8126840  32.1534740   5.1326000
  46.4997970  32.7003950   5.5133590  45.0259260  32.6975470   5.1675610
  45.1154050  29.1580770   4.7451360  45.5716830  29.9686020   4.9711550
  44.7642260  28.8403910   5.5769850  47.4186660  34.6687110  11.9743660
  48.0628880  34.8746490  12.6517080  47.7816100  33.9075510  11.5214510
  41.0165830  19.5018420   5.2173880  40.8880460  19.4936320   6.1658800
  40.1927850  19.8401510   4.8664890  48.6918740  32.6719460  10.6921110
  49.3340970  31.9712620  10.8053280  49.2168090  33.4517900  10.5118000
  50.4656360  33.4714360  13.8957170  50.8012600  34.0581050  14.5735090
  49.5456700  33.3407070  14.1254960  38.0159760  21.2609540  14.6780580
  37.3018280  21.4606460  15.2833190  38.4354800  20.4849110  15.0495380
  52.1190710  30.8740020   2.0774410  51.8312410  31.3352710   2.8652290
  52.9142880  30.4137790   2.3458630  38.3032350  35.2489800  15.6647110
  38.4123470  34.3084540  15.5242500  37.6512910  35.5144550  15.0160840
  46.2944940  33.5205690  17.0645230  45.9741810  32.8014930  17.6090920
  45.6203300  34.1960760  17.1381290  44.3359110  34.3666140   2.0078380
  44.3269210  35.0995830   1.3922890  43.4157470  34.1197720   2.1005340
  39.9365750  29.5881030   2.7525140  39.3293700  30.3279930   2.7620440
  40.4115100  29.6780390   1.9263340  49.5098540  23.7531850  12.4282030
  49.8779360  22.9327060  12.7561600  48.6496740  23.8133740  12.8437680
  52.8760570  22.7088790   3.2369590  52.2473730  22.8134460   2.5227820
  52.3812490  22.9285570   4.0263470  44.8444600  24.9874740   4.6527470
  44.1360750  25.4561080   5.0941080  45.1289080  24.3296750   5.2872660
  46.4700530  26.4071440  12.6520000  46.9685780  26.8817260  13.3171850
  46.6123480  25.4834960  12.8590030  48.8760030  21.7125400   6.0923260
  48.7527810  21.7311530   5.1432770  49.8244590  21.7604340   6.2121660
  45.9636820  36.9480700   5.3651240  46.2178320  36.9102090   4.4430610
  45.0149300  36.8214030   5.3579490  43.0479620  23.2959820   2.0278180
  43.8970150  23.7329970   1.9618370  42.6810890  23.6080080   2.8550240
  53.6767390  22.6239400  13.4948390  53.1740990  23.3644800  13.8342200
  54.4924050  23.0123400  13.1785180  51.9689400  27.8672580   6.9409750
  51.0279540  27.8822810   7.1157440  52.2833470  27.0808540   7.3870050
  53.9714980  35.0381430   8.6164010  54.0962400  35.8612600   9.0887820
  54.8380540  34.8272160   8.2688160  41.4432510  37.1312640   8.2881140
  42.1794990  36.5828100   8.5589710  41.8273430  37.9968650   8.1487130
  38.3277990  33.1986210   4.1622650  37.4017770  33.4407350   4.1528060
  38.7934420  34.0260470   4.0407400  40.4490790  36.3158710  17.4766720
  41.2503520  36.6370760  17.8902120  39.9342610  35.9554290  18.1986630
  49.2855420  32.4238580  17.4242130  48.6793580  32.4470180  16.6837880
  48.9809530  31.6921620  17.9609380  50.7155790  36.1518870  16.0351540
  51.6677540  36.0676890  15.9851780  50.5684010  36.8160580  16.7085330
  38.1688600  28.8032170  16.4202770  38.6727620  28.2239450  16.9919000
  37.4296020  29.0872400  16.9579140  45.2226540  30.2103160  15.9538290
  44.4572210  30.7788160  15.8692960  45.4042500  29.9179370  15.0606520
  52.3649890  31.9408490  16.5113310  53.1059360  32.2784250  16.0080770
  51.6022570  32.1100550  15.9583080  40.2011680  26.9461760  17.3152840
  40.2417020  26.6475630  18.2238070  41.0557180  27.3469370  17.1560360
  43.9790070  29.5457310   2.4756350  44.4006490  29.3797180   3.3187740
  44.1040910  28.7357540   1.9811490  42.1417490  25.5253860  15.2827330
  41.6113950  25.0344810  14.6550670  42.8105560  25.9538060  14.7485260
  51.0395550  29.9923320  15.0468520  51.4536570  30.1468400  15.8958940
  50.1046550  30.1178540  15.2094300  51.5117720  27.3319480  17.0507670
  52.0938490  26.5771800  16.9628150  51.6879490  27.8626920  16.2739150
  42.6289790  22.4916230  15.3624620  42.5346660  21.8736980  14.6375490
  42.0487180  23.2182520  15.1354530  45.3951230  21.0489470  12.3952010
  44.9468530  21.0713730  11.5497560  44.7616430  20.6508490  12.9922310
  45.8010780  29.9443800  13.0164450  46.2198890  30.7876530  12.8440690
  44.8819410  30.0815840  12.7871230  48.1374680  27.6759980  14.4002290
  48.2570890  27.0801120  15.1397130  48.9968680  27.7129670  13.9803590
  50.4762580  28.2297170  12.9764800  49.9497800  28.7539790  12.3729940
  50.8193920  28.8624560  13.6074530  43.6518200  36.2496810  14.1322180
  43.1139290  36.9742870  13.8130880  43.9052160  35.7727150  13.3419520
  44.9043450  24.2181330  15.6578110  45.4943140  23.9097180  16.3455930
  44.0863690  23.7461080  15.8138010  49.7236880  23.8347140  15.8911130
  49.0352400  23.1728680  15.8261120  50.4442900  23.3885410  16.3359590
  50.3537280  20.4298770   1.9501390  50.6339570  19.5866670   2.3060810
  49.5803010  20.6621880   2.4640140  46.5080410  37.4848020  14.3908830
  46.4339110  38.3883160  14.6981200  45.6059250  37.1659920  14.3630900
  47.0565740  36.6506530   2.0135190  47.9516530  36.9891500   2.0353950
  47.0883370  35.9285940   1.3859470  37.9107700  34.8122610   7.6942450
  38.2410710  33.9443670   7.4621090  38.3398700  35.0181130   8.5247410
  42.5069620  33.1431620   5.3544420  42.2065160  33.0196590   6.2548330
  42.4007110  32.2840210   4.9460150  38.3997910  35.6793200  10.4324080
  37.9628900  35.8594000  11.2648230  38.9675590  36.4367820  10.2905800
  54.0360090  35.1810200  14.7201390  53.4362080  35.2402760  13.9765310
  54.1653990  34.2415180  14.8498240  54.7318000  29.6675500   2.5605300
  55.4936910  30.2372150   2.6664990  54.7472370  29.1002700   3.3313610
  38.2322340  28.1913430   6.7912960  37.5771180  27.9225070   6.1472660
  39.0700290  28.0817910   6.3414940  55.7377970  30.5225600   7.4047230
  56.1086800  29.7392920   6.9983200  56.3779900  31.2114700   7.2264530
  52.7211730  31.9062180  12.8177550  51.9071570  32.3359340  13.0803340
  53.1285930  32.5180590  12.2046600  54.6802510  27.8978860   4.7107250
  54.3046110  27.1306790   4.2788540  53.9505630  28.2801560   5.1982180
  39.2698270  28.5766000  11.3316300  39.6371310  28.4893400  12.2112320
  38.7009090  27.8132550  11.2323160  54.0702130  27.0450380  14.3446770
  53.8388220  26.8163130  13.4444720  54.3306680  27.9649930  14.2991660
  38.8214270  25.4875090  15.2374720  37.9270320  25.4541850  15.5768430
  39.3611820  25.6861880  16.0025970  52.5090200  22.2706810  17.1226470
  53.3860380  22.2790210  17.5060470  52.5211040  21.5337650  16.5118820
  37.4460420  25.4012360   2.7338290  36.5424500  25.6642560   2.5589950
  37.9301040  25.6723530   1.9538250  53.9553470  26.1236350   8.0114490
  54.4790950  25.6299000   7.3804660  54.5412890  26.2586710   8.7562060
  54.1343190  26.2076220  11.5334040  53.1845900  26.1739760  11.6479030
  54.3156200  27.1176330  11.2983810  53.4453440  25.3809700   3.9506900
  53.9412560  25.1480570   4.7355780  53.2469510  24.5421540   3.5344540
  39.3253980  19.7623420   9.5857940  39.9730170  19.2120800   9.1453100
  39.7455820  20.0166570  10.4073750  54.8740600  24.0170650   6.4844580
  54.7639880  23.8626690   7.4226850  55.6348190  23.4891590   6.2419990
  53.2206320  19.9564780  12.9427580  53.8578540  20.5698920  13.3086770
  53.3681210  19.9925440  11.9976810  55.8369360  22.6189230   2.3507430
  55.0420860  22.5534350   2.8800340  56.0412640  23.5539870   2.3392780
  52.7787780  36.6580780   6.3445820  53.3746850  36.3365350   5.6680240
  53.0365930  36.1852600   7.1359090  39.0785980  19.9179090  12.3283260
  38.7300800  20.3742910  13.0941440  38.7473680  19.0236220  12.4105690
  40.6850350  33.0898690  16.4936450  40.6419980  32.7191600  17.3750910
  40.8161360  34.0276260  16.6338270  44.3856380  34.6458280  12.0946170
  44.1447740  34.9132840  11.2076690  45.3259020  34.8164010  12.1497030
  46.5910800  21.1090970  15.8502680  46.5299690  21.7012800  16.5998090
  47.5311180  21.0016930  15.7052940  49.2285360  20.7661030  15.4894970
  49.8425770  21.0840320  14.8276050  49.7734920  20.2809620  16.1090830
  55.6460540  36.6652660  12.8956810  55.1518820  37.0621530  12.1783940
  55.0373830  36.0401870  13.2894090  39.7506620  19.4455290  15.6034030
  40.2989610  19.2643340  14.8400140  39.8161930  18.6549400  16.1390340
  40.5238380  36.0360940  13.6134230  39.9298700  35.9045640  14.3524270
  40.5162220  35.1999080  13.1476330  49.9693400  19.3293170  11.8164260
  49.0953240  19.6628280  11.6137190  49.8604150  18.8566350  12.6416130
  50.8765380  21.5364040  13.2005980  50.5478740  20.7215800  12.8207710
  51.8247680  21.4933850  13.0771670  53.3299990  37.3076080  10.1743550
  52.8702960  38.0591890   9.8001570  52.7012450  36.5882550  10.1158350
  40.1550610  33.4019320  12.5642270  39.4284670  32.7824610  12.4968220
  40.2159760  33.7959930  11.6940350  43.7595710  35.6164320   9.3491680
  44.2760730  35.0051680   8.8239940  44.4093090  36.1193100   9.8402690
  46.4991210  36.5072810  10.1760660  46.7869020  36.2527110   9.2993670
  47.0114430  35.9550170  10.7666230  47.7168220  20.2463010  10.7557170
  46.9340010  20.7208510  11.0353930  47.4231150  19.3417840  10.6470350
  52.2689290  20.9486110   8.8006260  52.7097380  20.8931210   7.9527860
  51.9996880  21.8644120   8.8716440  54.1327860  20.5801350   6.8115080
  54.0716260  19.6362570   6.6646100  54.9119890  20.6881440   7.3568540
  38.4380610  36.7193710   5.7739030  38.2702650  36.0864390   6.4720920
  37.5715120  36.9253110   5.4233220  39.0608630  20.5510490   3.2770890
  39.8187990  20.6639370   2.7034920  38.5985800  21.3879690   3.2314320
  45.6022440  22.6649760   6.2673200  44.7896950  22.2906650   5.9269080
  46.1064080  21.9094840   6.5694390  50.1047420  19.3292210   7.5056270
  50.7076790  19.9012420   7.9804790  49.3640410  19.8931650   7.2830170
  53.2482020  19.7313770   2.7796550  53.4432650  20.6297220   3.0463980
  52.4611890  19.5000850   3.2729500  40.0443310  35.4126940   3.2189170
  39.5190930  35.7934970   2.5151130  39.9687890  36.0377710   3.9398880
  41.4333780  21.0774540   1.8172860  41.9626540  20.2904340   1.6880810
  42.0662100  21.7565730   2.0508390  43.6271620  20.8149680   4.8718250
  42.9974360  20.1136990   5.0388380  43.0876760  21.5753810   4.6551410
  46.5663570  37.4288910  17.5428860  47.4930880  37.1933180  17.5864820
  46.5514000  38.2560910  17.0614890  54.8008630  36.9714480   4.5403110
  54.9760820  36.2852220   3.8964030  54.1030200  37.4961530   4.1479780
  43.7527180  20.0933660  17.3070740  43.4711450  20.5967260  16.5431560
  44.1346880  19.2955410  16.9412870  42.6436280  37.3609320   2.0938420
  43.3755100  37.0768600   1.5462310  42.9029950  37.1222600   2.9837800
  41.8051070  33.4774050   2.0984750  41.1759950  33.9459150   2.6470580
  41.9198900  32.6323270   2.5330940  50.3542640  19.5087240  17.8851210
  50.2408090  19.8281850  18.7802730  51.1712380  19.9099750  17.5888490
  53.1341130  36.6558770  17.3669900  53.9266450  36.1608000  17.1595860
  53.4274280  37.3348910  17.9745510  49.2600790   8.7536220  63.3459910
  49.1794840   7.8390830  63.0751620  48.8465210   9.2503290  62.6399620
  47.3918830  10.5315240  65.2269180  46.6160930  10.0515680  65.5167750
  48.0431760   9.8520890  65.0525340  41.4084660  10.8435050  66.1044940
  40.5769540  10.5883760  66.5041450  42.0165640  10.9145820  66.8402860
  51.4126260  14.9375430  64.0068310  50.9507790  14.1662670  64.3355480
  52.2251810  14.9641500  64.5120760  41.3885920  14.8775140  66.3002960
  41.6913960  13.9872880  66.1213180  42.1329510  15.4345360  66.0725210
  39.8176610   5.8036940  59.8887330  38.9293310   6.1452910  59.7867210
  40.1017800   5.6037260  58.9968160  37.7809620   8.4042590  65.7727030
  38.3525730   7.6364790  65.7730670  37.7811160   8.7031350  64.8633640
  47.6389570  17.2233440  63.6272300  47.0201010  17.6790940  63.0566740
  48.4941350  17.3784900  63.2262000  46.8327820  13.2072430  65.2339340
  46.7636100  12.2662370  65.0728470  47.5947680  13.2973840  65.8061910
  39.0234490   3.8126950  67.5595960  38.8437330   2.9152700  67.8398720
  38.6214570   4.3598820  68.2342910  47.8632990   6.0142810  65.4608270
  48.2397810   5.1414690  65.3481940  47.7652500   6.3501510  64.5698710
  41.9938000   4.3868440  60.9225710  42.1004750   5.2872170  61.2294470
  41.0830360   4.3386410  60.6320360  51.6457110   3.5093250  62.3936610
  52.4666730   3.0189820  62.4362090  51.6791190   4.0990910  63.1468450
  39.6421160   6.3087450  66.1678300  40.3231270   6.5725820  66.7865700
  39.3269210   5.4688320  66.5016310  43.8345730   7.3554810  65.2550890
  44.3423950   7.8535780  65.8955910  44.3658970   6.5790010  65.0790250
  55.9356660   5.5260000  68.9580240  55.2308830   5.9141710  68.4395350
  56.2014580   6.2210290  69.5601170  48.5052920  12.1072680  61.0204210
  47.8870190  12.5722130  60.4566930  49.0176170  12.8000160  61.4373720
  43.3684680  11.6348550  67.6987810  43.0354060  12.2617470  68.3408880
  43.5451360  12.1610430  66.9189480  51.8818590   5.4493630  65.1664150
  51.1774160   5.7378520  65.7467260  52.2430750   6.2593740  64.8063710
  41.7997160   3.7063330  67.5284760  42.1413970   4.5505380  67.2338630
  40.8612970   3.8547070  67.6450100  42.5803780  13.6029350  69.5136990
  43.1977780  14.2780430  69.2321440  41.7196900  14.0117330  69.4224490
  37.8736120  12.7929210  58.3943840  37.4964100  13.2816310  57.6628740
  38.1309190  13.4654490  59.0250370  53.4981370  15.0668760  67.4291630
  52.8144890  15.7367870  67.4208300  54.0375660  15.2649410  66.6636490
  54.9505510   4.8948420  65.5573360  54.0030420   4.9287400  65.6888790
  55.2755500   5.7087370  65.9422720  51.0340110  16.9112890  66.1436810
  51.0467270  16.5075180  65.2759070  50.4815330  17.6860180  66.0398240
  52.3285530  13.6329110  61.2326980  52.2181860  12.6903440  61.3576400
  52.3253780  13.9944750  62.1189740  50.4325550  11.8142730  67.4719420
  50.8494340  11.6002840  66.6372880  51.1565370  12.0715520  68.0428040
  47.8705810   9.2594430  60.5889470  46.9435090   9.1931810  60.8177940
  48.0230630  10.1974560  60.4744710  47.8574890   5.5311430  57.5856630
  46.9178560   5.6925390  57.6709090  48.1758150   6.2497110  57.0392620
  54.3787650  10.2129950  67.5635660  53.5506280  10.2823040  67.0885790
  54.9738130  10.7984260  67.0951490  51.9003100  10.8214730  61.0924720
  51.2815520  10.4834280  60.4451020  51.8827550  10.1774490  61.8003910
  51.3429660   6.9999270  68.5090530  50.9300840   7.8252980  68.7630520
  50.6105610   6.4144310  68.3166890  43.4762450   9.7859170  63.3709200
  43.0719450   9.0736420  62.8755100  43.5625570   9.4412410  64.2597240
  43.9444150  13.4726730  65.5348410  43.6472440  12.8672200  64.8556190
  44.8943970  13.5104040  65.4237770  42.1891070   6.5602380  67.1508240
  42.7405660   6.6697720  66.3761490  42.7034580   6.9339980  67.8663470
  52.0329760  17.0458600  69.1971510  51.5560320  17.8530790  69.0044120
  51.3491550  16.3936930  69.3497720  50.0767800  10.0601540  58.0997470
  50.5161080   9.2223970  57.9535290  50.7896220  10.6930940  58.1861610
  41.8633800  10.0821740  70.7613580  41.7241570  10.9544540  71.1300980
  40.9815160   9.7394550  70.6161520  48.1863180  14.9997610  62.0678710
  48.6259090  15.7421940  61.6534100  48.1250070  15.2424180  62.9917670
  40.1767080   8.6804150  60.8715850  40.0564680   9.4066240  60.2597120
  39.8667970   7.9107060  60.3943760  37.8152450  11.8519290  66.6784490
  37.8932870  11.9868060  65.7340210  38.4294130  11.1435180  66.8712610
  39.0600080  13.5519480  63.0890670  38.6528160  13.6934070  62.2344270
  39.9513090  13.2679640  62.8861880  55.0162220  13.9983390  71.4262910
  55.1425280  13.7595270  70.5080090  55.0583600  13.1667930  71.8984990
  48.8778960  17.7011390  69.9957720  49.3923630  17.6119400  70.7980150
  48.0348040  18.0471090  70.2885630  50.8533360  17.9866730  59.4241720
  50.6934500  17.6969670  60.3223550  50.6880070  17.2106860  58.8886950
  43.3321740  17.7665260  61.2013340  43.1564220  16.8500800  60.9881140
  42.4777480  18.1252550  61.4411140  50.5559490  15.4954290  57.9839720
  49.8624650  15.4931580  57.3242000  51.2982350  15.0713610  57.5533890
  50.1209420  17.1217000  62.0588210  50.5766370  16.3406380  62.3726830
  50.4601940  17.8323820  62.6029390  37.8711970  12.8933460  69.2178950
  38.0343010  12.4238820  68.3998320  38.3364420  12.3857020  69.8827790
  42.6430740   2.0239220  64.2539520  42.1998890   2.8048760  63.9224040
  43.2015730   2.3469110  64.9610460  46.9300550   4.8907740  69.8574840
  46.4679920   5.0990760  70.6694780  46.5278660   4.0767090  69.5545510
  51.9305060   6.1116690  70.9871500  51.0798650   5.8122440  71.3080570
  51.7706850   6.3558700  70.0755320  44.6806640   2.5686550  66.1129120
  44.9778970   3.4749380  66.0321140  45.2292200   2.0805330  65.4988690
  42.4344960   7.1472790  61.9820770  42.2085880   6.9309960  62.8867390
  41.6537490   7.5801250  61.6366740  49.6642720   7.1536160  60.5811420
  49.0651610   7.8771960  60.3975040  50.2122330   7.0912940  59.7987870
  48.2707590   5.7899700  62.6114700  48.6637160   6.1071900  61.7983390
  48.6324440   4.9111580  62.7259220  40.0054710   4.4572040  70.8014820
  39.6118100   5.3047250  71.0087600  39.3173110   3.8198410  70.9923460
  37.3071760   2.3800500  64.8344900  37.0184810   2.9503360  65.5469880
  38.0517520   1.9004950  65.1976130  37.4941990   6.3220620  56.0447620
  37.4116660   7.2651380  56.1862610  37.1425050   6.1795530  55.1659970
  48.8562730   8.3805450  66.7065480  48.1243850   8.8892260  67.0555580
  48.4587070   7.5635430  66.4054260  45.2940120   5.0559650  65.1117970
  45.2976180   4.6149600  64.2622510  46.1891240   5.3776980  65.2189790
  41.1442500   4.9386140  64.0712180  40.8042550   5.4161370  64.8279230
  40.3819820   4.4851260  63.7113280  45.3560270   6.0571730  58.1024730
  45.4773090   6.0158210  59.0510550  44.9708780   6.9195880  57.9471460
  49.3188640   3.8339130  66.1188420  49.3361380   4.2847780  66.9630270
  49.0704220   2.9344770  66.3321860  44.3681770   8.3672870  57.5008030
  43.7998670   7.9191120  56.8743940  45.0770770   8.7265650  56.9673180
  39.4450950  12.2684890  71.3774760  39.0605740  11.6278560  71.9757720
  39.7563140  12.9721010  71.9469490  45.5948090   9.1161430  66.8583380
  45.9618220   8.6420000  67.6044720  45.4053150   9.9903000  67.1991720
  38.4588580   3.8605120  62.9876850  38.1735500   3.4960790  63.8255470
  38.3967440   3.1285580  62.3739990  43.3847460   8.1570070  69.1767590
  43.0804530   9.0362050  69.4017950  44.3393920   8.2169860  69.2125030
  41.9129250  12.3631060  59.7734440  41.1391510  11.8228680  59.6133160
  42.6423880  11.8437670  59.4352200  52.6717230  11.3596420  65.5660830
  53.3916350  11.8551710  65.1756940  52.4699050  10.6814310  64.9214700
  48.1327170   2.7534380  59.7090220  47.3191780   2.2547550  59.6335530
  47.9389120   3.5932630  59.2926570  48.0536030  11.4305480  71.4529830
  47.9873340  10.5101150  71.1987420  47.4241170  11.5280920  72.1674470
  50.8475560   7.1254030  58.0052380  51.7355180   7.4371260  57.8303720
  50.8180650   6.2526280  57.6132960  41.9566650  12.0311440  63.4113250
  42.4745320  11.2279700  63.3570140  41.5050670  11.9690580  64.2530080
  46.8436150  13.2977720  58.6840550  47.1851850  14.0419950  58.1883870
  46.0148860  13.6108840  59.0465380  39.4411190   8.9972810  70.3238950
  39.0826130   9.6626660  70.9112290  39.1465750   8.1656360  70.6951570
  47.9852760  14.2526050  71.2033630  47.9997300  13.3207010  70.9852540
  47.2777860  14.3385810  71.8423400  53.1189830   8.4365870  57.4732240
  53.0353550   8.8680090  56.6228680  53.8384020   8.8964220  57.9059060
  54.1963970  10.8933390  70.5502210  53.4712160  11.4862170  70.3531600
  54.7239430  10.8856930  69.7515580  54.1477080  15.2908130  60.2014370
  53.5053240  14.6363750  60.4758090  53.7607740  15.6963220  59.4255040
  49.7263560  12.6193560  64.0486060  50.0787380  12.0221690  63.3887430
  48.8425890  12.2937790  64.2194310  45.8126840  13.3791250  61.4556470
  46.4997970  13.9260460  61.8364060  45.0259260  13.9231980  61.4906080
  37.9519240   8.9964070  56.9473550  38.8214090   9.2788870  57.2309470
  37.4609560   9.8099940  56.8322360  45.1154050  10.3837280  61.0681830
  45.5716830  11.1942530  61.2942020  44.7642260  10.0660420  61.9000320
  47.4186660  15.8943620  68.2974130  48.0628880  16.1003000  68.9747550
  47.7816100  15.1332020  67.8444980  48.6918740  13.8975970  67.0151580
  49.3340970  13.1969130  67.1283750  49.2168090  14.6774410  66.8348470
  52.5374460  14.1824590  56.7390720  52.3112040  13.4655030  57.3315360
  52.1470660  13.9337030  55.9012470  50.4656360  14.6970870  70.2187640
  50.8012600  15.2837560  70.8965560  49.5456700  14.5663580  70.4485430
  38.3190490  18.2091450  57.5135180  38.6788130  18.8080790  56.8592450
  38.1782830  18.7551340  58.2870210  38.0159760   2.4866050  71.0011050
  37.3018280   2.6862970  71.6063660  38.4354800   1.7105620  71.3725850
  52.1190710  12.0996530  58.4004880  51.8312410  12.5609220  59.1882760
  52.9142880  11.6394300  58.6689100  38.3032350  16.4746310  71.9877580
  38.4123470  15.5341050  71.8472970  37.6512910  16.7401060  71.3391310
  44.3359110  15.5922650  58.3308850  44.3269210  16.3252340  57.7153360
  43.4157470  15.3454230  58.4235810  39.9365750  10.8137540  59.0755610
  39.3293700  11.5536440  59.0850910  40.4115100  10.9036900  58.2493810
  49.5098540   4.9788360  68.7512500  49.8779360   4.1583570  69.0792070
  48.6496740   5.0390250  69.1668150  52.8760570   3.9345300  59.5600060
  52.2473730   4.0390970  58.8458290  52.3812490   4.1542080  60.3493940
  47.3218710  15.6550890  56.9934040  47.4230690  15.4514880  56.0636020
  46.4220450  15.4009170  57.1981820  44.8444600   6.2131250  60.9757940
  44.1360750   6.6817590  61.4171550  45.1289080   5.5553260  61.6103130
  46.4700530   7.6327950  68.9750470  46.9685780   8.1073770  69.6402320
  46.6123480   6.7091470  69.1820500  48.8760030   2.9381910  62.4153730
  48.7527810   2.9568040  61.4663240  49.8244590   2.9860850  62.5352130
  45.9636820  18.1737210  61.6881710  46.2178320  18.1358600  60.7661080
  45.0149300  18.0470540  61.6809960  43.0479620   4.5216330  58.3508650
  43.8970150   4.9586480  58.2848840  42.6810890   4.8336590  59.1780710
  53.6767390   3.8495910  69.8178860  53.1740990   4.5901310  70.1572670
  54.4924050   4.2379910  69.5015650  51.9689400   9.0929090  63.2640220
  51.0279540   9.1079320  63.4387910  52.2833470   8.3065050  63.7100520
  41.9471040  10.7748690  56.8244180  42.7134310  10.6630050  57.3869610
  42.0245730  10.0786660  56.1720950  40.6417800   8.2073760  57.5077070
  40.7221390   7.2601270  57.6194470  41.5337550   8.5380640  57.6137730
  53.9714980  16.2637940  64.9394480  54.0962400  17.0869110  65.4118290
  54.8380540  16.0528670  64.5918630  41.4432510  18.3569150  64.6111610
  42.1794990  17.8084610  64.8820180  41.8273430  19.2225160  64.4717600
  38.3277990  14.4242720  60.4853120  37.4017770  14.6663860  60.4758530
  38.7934420  15.2516980  60.3637870  44.5534820  17.5299460  56.4337180
  45.3463430  17.8188290  55.9818970  44.0339170  17.0991630  55.7549660
  53.6064990  16.7569590  57.8573920  53.3206500  16.3434730  57.0428100
  53.4084540  17.6857300  57.7374440  45.0712220  12.7502870  56.2979530
  44.9662860  12.1355220  57.0240910  44.9036440  12.2268760  55.5142540
  48.3114950  11.8122900  56.9021520  47.7625050  12.2592200  57.5464260
  48.9334210  11.3072150  57.4259190  43.9790070  10.7713820  58.7986820
  44.4006490  10.6053690  59.6418210  44.1040910   9.9614050  58.3041960
  42.1417490   6.7510370  71.6057800  41.6113950   6.2601320  70.9781140
  42.8105560   7.1794570  71.0715730  46.4917710   9.7951430  56.0463920
  47.0123370   9.0800450  55.6805070  47.1386110  10.4337300  56.3464430
  51.0395550  11.2179830  71.3698990  51.4536570  11.3724910  72.2189410
  50.1046550  11.3435050  71.5324770  42.6289790   3.7172740  71.6855090
  42.5346660   3.0993490  70.9605960  42.0487180   4.4439030  71.4585000
  45.3951230   2.2745980  68.7182480  44.9468530   2.2970240  67.8728030
  44.7616430   1.8765000  69.3152780  45.8010780  11.1700310  69.3394920
  46.2198890  12.0133040  69.1671160  44.8819410  11.3072350  69.1101700
  48.1374680   8.9016490  70.7232760  48.2570890   8.3057630  71.4627600
  48.9968680   8.9386180  70.3034060  50.4762580   9.4553680  69.2995270
  49.9497800   9.9796300  68.6960410  50.8193920  10.0881070  69.9305000
  42.8748970   6.8447050  55.7444980  42.6738030   5.9814410  56.1058320
  42.7041020   6.7580410  54.8066580  43.6518200  17.4753320  70.4552650
  43.1139290  18.1999380  70.1361350  43.9052160  16.9983660  69.6649990
  41.6731770   3.9447670  55.7322860  41.9757670   3.9515100  54.8242010
  42.4126360   3.5945530  56.2290520  46.5080410  18.7104530  70.7139300
  46.4339110  19.6139670  71.0211670  45.6059250  18.3916430  70.6861370
  44.8916700   2.8882290  56.7179060  44.5438700   2.2106280  56.1381510
  45.0929470   2.4271800  57.5322450  47.0565740  17.8763040  58.3365660
  47.9516530  18.2148010  58.3584420  47.0883370  17.1542450  57.7089940
  40.6961900  13.2490090  56.5652660  41.1336770  13.7919760  57.2210240
  41.1809630  12.4237040  56.5749000  37.9107700  16.0379120  64.0172920
  38.2410710  15.1700180  63.7851560  38.3398700  16.2437640  64.8477880
  42.5069620  14.3688130  61.6774890  42.2065160  14.2453100  62.5778800
  42.4007110  13.5096720  61.2690620  38.3997910  16.9049710  66.7554550
  37.9628900  17.0850510  67.5878700  38.9675590  17.6624330  66.6136270
  54.0360090  16.4066710  71.0431860  53.4362080  16.4659270  70.2995780
  54.1653990  15.4671690  71.1728710  55.2761540  14.1484530  56.3801570
  54.4454500  14.2161180  56.8508800  55.4533370  15.0388650  56.0768430
  54.7318000  10.8932010  58.8835770  55.4936910  11.4628660  58.9895460
  54.7472370  10.3259210  59.6544080  38.2322340   9.4169940  63.1143430
  37.5771180   9.1481580  62.4703130  39.0700290   9.3074420  62.6645410
  55.7377970  11.7482110  63.7277700  56.1086800  10.9649430  63.3213670
  56.3779900  12.4371210  63.5495000  52.7211730  13.1318690  69.1408020
  51.9071570  13.5615850  69.4033810  53.1285930  13.7437100  68.5277070
  54.7837170  11.1866380  56.0408290  55.0586010  12.0945260  55.9127510
  54.5947910  11.1228910  56.9770280  51.1812780   4.2111230  57.3361920
  51.5997660   4.0242210  56.4958580  50.8748840   3.3590280  57.6464850
  54.6802510   9.1235370  61.0337720  54.3046110   8.3563300  60.6019010
  53.9505630   9.5058070  61.5212650  39.2698270   9.8022510  67.6546770
  39.6371310   9.7149910  68.5342790  38.7009090   9.0389060  67.5553630
  54.0702130   8.2706890  70.6677240  53.8388220   8.0419640  69.7675190
  54.3306680   9.1906440  70.6222130  37.4460420   6.6268870  59.0568760
  36.5424500   6.8899070  58.8820420  37.9301040   6.8980040  58.2768720
  53.9553470   7.3492860  64.3344960  54.4790950   6.8555510  63.7035130
  54.5412890   7.4843220  65.0792530  54.1343190   7.4332730  67.8564510
  53.1845900   7.3996270  67.9709500  54.3156200   8.3432840  67.6214280
  39.9887630   5.6834410  56.9663140  40.6979330   5.2617630  56.4810420
  39.2727570   5.7509640  56.3346490  53.4453440   6.6066210  60.2737370
  53.9412560   6.3737080  61.0586250  53.2469510   5.7678050  59.8575010
  54.8740600   5.2427160  62.8075050  54.7639880   5.0883200  63.7457320
  55.6348190   4.7148100  62.5650460  55.7630870   3.0735080  56.0481190
  56.6880180   2.9416260  55.8399480  55.7406660   3.1527900  57.0017640
  55.8369360   3.8445740  58.6737900  55.0420860   3.7790860  59.2030810
  56.0412640   4.7796380  58.6623250  52.7787780  17.8837290  62.6676290
  53.3746850  17.5621860  61.9910710  53.0365930  17.4109110  63.4589560
  44.3856380  15.8714790  68.4176640  44.1447740  16.1389350  67.5307160
  45.3259020  16.0420520  68.4727500  55.6460540  17.8909170  69.2187280
  55.1518820  18.2878040  68.5014410  55.0373830  17.2658380  69.6124560
  40.5238380  17.2617450  69.9364700  39.9298700  17.1302150  70.6754740
  40.5162220  16.4255590  69.4706800  50.8765380   2.7620550  69.5236450
  50.5478740   1.9472310  69.1438180  51.8247680   2.7190360  69.4002140
  53.3299990  18.5332590  66.4974020  52.8702960  19.2848400  66.1232040
  52.7012450  17.8139060  66.4388820  40.1550610  14.6275830  68.8872740
  39.4284670  14.0081120  68.8198690  40.2159760  15.0216440  68.0170820
  43.7595710  16.8420830  65.6722150  44.2760730  16.2308190  65.1470410
  44.4093090  17.3449610  66.1633160  46.4991210  17.7329320  66.4991130
  46.7869020  17.4783620  65.6224140  47.0114430  17.1806680  67.0896700
  52.2689290   2.1742620  65.1236730  52.7097380   2.1187720  64.2758330
  51.9996880   3.0900630  65.1946910  38.4380610  17.9450220  62.0969500
  38.2702650  17.3120900  62.7951390  37.5715120  18.1509620  61.7463690
  39.0608630   1.7767000  59.6001360  39.8187990   1.8895880  59.0265390
  38.5985800   2.6136200  59.5544790  45.6022440   3.8906270  62.5903670
  44.7896950   3.5163160  62.2499550  46.1064080   3.1351350  62.8924860
  40.0443310  16.6383450  59.5419640  39.5190930  17.0191480  58.8381600
  39.9687890  17.2634220  60.2629350  54.8008630  18.1970990  60.8633580
  54.9760820  17.5108730  60.2194500  54.1030200  18.7218040  60.4710250
  42.6436280  18.5865830  58.4168890  43.3755100  18.3025110  57.8692780
  42.9029950  18.3479110  59.3068270  41.8051070  14.7030560  58.4215220
  41.1759950  15.1715660  58.9701050  41.9198900  13.8579780  58.8561410
  49.2600790   8.7536220  44.5716420  49.1794840   7.8390830  44.3008130
  48.8465210   9.2503290  43.8656130  47.3918830  10.5315240  46.4525690
  46.6160930  10.0515680  46.7424260  48.0431760   9.8520890  46.2781850
  41.4084660  10.8435050  47.3301450  40.5769540  10.5883760  47.7297960
  42.0165640  10.9145820  48.0659370  51.4126260  14.9375430  45.2324820
  50.9507790  14.1662670  45.5611990  52.2251810  14.9641500  45.7377270
  41.3885920  14.8775140  47.5259470  41.6913960  13.9872880  47.3469690
  42.1329510  15.4345360  47.2981720  39.8176610   5.8036940  41.1143840
  38.9293310   6.1452910  41.0123720  40.1017800   5.6037260  40.2224670
  37.7809620   8.4042590  46.9983540  38.3525730   7.6364790  46.9987180
  37.7811160   8.7031350  46.0890150  47.6389570  17.2233440  44.8528810
  47.0201010  17.6790940  44.2823250  48.4941350  17.3784900  44.4518510
  46.8327820  13.2072430  46.4595850  46.7636100  12.2662370  46.2984980
  47.5947680  13.2973840  47.0318420  39.0234490   3.8126950  48.7852470
  38.8437330   2.9152700  49.0655230  38.6214570   4.3598820  49.4599420
  47.8632990   6.0142810  46.6864780  48.2397810   5.1414690  46.5738450
  47.7652500   6.3501510  45.7955220  41.9938000   4.3868440  42.1482220
  42.1004750   5.2872170  42.4550980  41.0830360   4.3386410  41.8576870
  51.6457110   3.5093250  43.6193120  52.4666730   3.0189820  43.6618600
  51.6791190   4.0990910  44.3724960  39.6421160   6.3087450  47.3934810
  40.3231270   6.5725820  48.0122210  39.3269210   5.4688320  47.7272820
  43.8345730   7.3554810  46.4807400  44.3423950   7.8535780  47.1212420
  44.3658970   6.5790010  46.3046760  55.9356660   5.5260000  50.1836750
  55.2308830   5.9141710  49.6651860  56.2014580   6.2210290  50.7857680
  48.5052920  12.1072680  42.2460720  47.8870190  12.5722130  41.6823440
  49.0176170  12.8000160  42.6630230  43.3684680  11.6348550  48.9244320
  43.0354060  12.2617470  49.5665390  43.5451360  12.1610430  48.1445990
  51.8818590   5.4493630  46.3920660  51.1774160   5.7378520  46.9723770
  52.2430750   6.2593740  46.0320220  41.7997160   3.7063330  48.7541270
  42.1413970   4.5505380  48.4595140  40.8612970   3.8547070  48.8706610
  42.5803780  13.6029350  50.7393500  43.1977780  14.2780430  50.4577950
  41.7196900  14.0117330  50.6481000  37.8736120  12.7929210  39.6200350
  37.4964100  13.2816310  38.8885250  38.1309190  13.4654490  40.2506880
  53.4981370  15.0668760  48.6548140  52.8144890  15.7367870  48.6464810
  54.0375660  15.2649410  47.8893000  54.9505510   4.8948420  46.7829870
  54.0030420   4.9287400  46.9145300  55.2755500   5.7087370  47.1679230
  51.0340110  16.9112890  47.3693320  51.0467270  16.5075180  46.5015580
  50.4815330  17.6860180  47.2654750  52.3285530  13.6329110  42.4583490
  52.2181860  12.6903440  42.5832910  52.3253780  13.9944750  43.3446250
  50.4325550  11.8142730  48.6975930  50.8494340  11.6002840  47.8629390
  51.1565370  12.0715520  49.2684550  47.8705810   9.2594430  41.8145980
  46.9435090   9.1931810  42.0434450  48.0230630  10.1974560  41.7001220
  47.8574890   5.5311430  38.8113140  46.9178560   5.6925390  38.8965600
  48.1758150   6.2497110  38.2649130  54.3787650  10.2129950  48.7892170
  53.5506280  10.2823040  48.3142300  54.9738130  10.7984260  48.3208000
  51.9003100  10.8214730  42.3181230  51.2815520  10.4834280  41.6707530
  51.8827550  10.1774490  43.0260420  51.3429660   6.9999270  49.7347040
  50.9300840   7.8252980  49.9887030  50.6105610   6.4144310  49.5423400
  43.4762450   9.7859170  44.5965710  43.0719450   9.0736420  44.1011610
  43.5625570   9.4412410  45.4853750  43.9444150  13.4726730  46.7604920
  43.6472440  12.8672200  46.0812700  44.8943970  13.5104040  46.6494280
  42.1891070   6.5602380  48.3764750  42.7405660   6.6697720  47.6018000
  42.7034580   6.9339980  49.0919980  52.0329760  17.0458600  50.4228020
  51.5560320  17.8530790  50.2300630  51.3491550  16.3936930  50.5754230
  43.0362580  13.2108420  53.4112720  42.1391110  13.4348390  53.6586120
  43.0615450  13.3343360  52.4624120  50.0767800  10.0601540  39.3253980
  50.5161080   9.2223970  39.1791800  50.7896220  10.6930940  39.4118120
  41.8633800  10.0821740  51.9870090  41.7241570  10.9544540  52.3557490
  40.9815160   9.7394550  51.8418030  48.1863180  14.9997610  43.2935220
  48.6259090  15.7421940  42.8790610  48.1250070  15.2424180  44.2174180
  43.6614150  16.0243440  54.1955240  43.6329580  16.4286390  53.3283670
  43.4979120  15.0953800  54.0326840  40.1767080   8.6804150  42.0972360
  40.0564680   9.4066240  41.4853630  39.8667970   7.9107060  41.6200270
  55.6128970  16.8070540  55.4919410  56.0888690  17.2853430  56.1708490
  56.2336130  16.7388030  54.7664910  37.8152450  11.8519290  47.9041000
  37.8932870  11.9868060  46.9596720  38.4294130  11.1435180  48.0969120
  39.0600080  13.5519480  44.3147180  38.6528160  13.6934070  43.4600780
  39.9513090  13.2679640  44.1118390  55.0162220  13.9983390  52.6519420
  55.1425280  13.7595270  51.7336600  55.0583600  13.1667930  53.1241500
  48.8778960  17.7011390  51.2214230  49.3923630  17.6119400  52.0236660
  48.0348040  18.0471090  51.5142140  50.8533360  17.9866730  40.6498230
  50.6934500  17.6969670  41.5480060  50.6880070  17.2106860  40.1143460
  43.3321740  17.7665260  42.4269850  43.1564220  16.8500800  42.2137650
  42.4777480  18.1252550  42.6667650  50.5559490  15.4954290  39.2096230
  49.8624650  15.4931580  38.5498510  51.2982350  15.0713610  38.7790400
  50.1209420  17.1217000  43.2844720  50.5766370  16.3406380  43.5983340
  50.4601940  17.8323820  43.8285900  54.8686230   6.0515850  53.6169160
  54.2530500   6.5595520  53.0884620  54.5482650   5.1514180  53.5595100
  37.8711970  12.8933460  50.4435460  38.0343010  12.4238820  49.6254830
  38.3364420  12.3857020  51.1084300  42.6430740   2.0239220  45.4796030
  42.1998890   2.8048760  45.1480550  43.2015730   2.3469110  46.1866970
  46.9300550   4.8907740  51.0831350  46.4679920   5.0990760  51.8951290
  46.5278660   4.0767090  50.7802020  51.9305060   6.1116690  52.2128010
  51.0798650   5.8122440  52.5337080  51.7706850   6.3558700  51.3011830
  49.0254770   7.6118440  54.3126800  49.3508180   6.7782190  53.9729030
  49.8135100   8.1346960  54.4605130  44.6806640   2.5686550  47.3385630
  44.9778970   3.4749380  47.2577650  45.2292200   2.0805330  46.7245200
  42.4344960   7.1472790  43.2077280  42.2085880   6.9309960  44.1123900
  41.6537490   7.5801250  42.8623250  49.6642720   7.1536160  41.8067930
  49.0651610   7.8771960  41.6231550  50.2122330   7.0912940  41.0244380
  44.8744170   8.0458370  53.8737550  44.7787770   7.1053100  53.7237950
  45.7176150   8.2673440  53.4785620  48.2707590   5.7899700  43.8371210
  48.6637160   6.1071900  43.0239900  48.6324440   4.9111580  43.9515730
  40.0054710   4.4572040  52.0271330  39.6118100   5.3047250  52.2344110
  39.3173110   3.8198410  52.2179970  46.5799760   4.5407010  55.0968070
  45.8898080   4.3479210  55.7314160  47.3232060   4.8241650  55.6292370
  37.3071760   2.3800500  46.0601410  37.0184810   2.9503360  46.7726390
  38.0517520   1.9004950  46.4232640  37.4941990   6.3220620  37.2704130
  37.4116660   7.2651380  37.4119120  37.1425050   6.1795530  36.3916480
  48.8562730   8.3805450  47.9321990  48.1243850   8.8892260  48.2812090
  48.4587070   7.5635430  47.6310770  45.2940120   5.0559650  46.3374480
  45.2976180   4.6149600  45.4879020  46.1891240   5.3776980  46.4446300
  41.1442500   4.9386140  45.2968690  40.8042550   5.4161370  46.0535740
  40.3819820   4.4851260  44.9369790  45.3560270   6.0571730  39.3281240
  45.4773090   6.0158210  40.2767060  44.9708780   6.9195880  39.1727970
  49.3188640   3.8339130  47.3444930  49.3361380   4.2847780  48.1886780
  49.0704220   2.9344770  47.5578370  44.3681770   8.3672870  38.7264540
  43.7998670   7.9191120  38.1000450  45.0770770   8.7265650  38.1929690
  39.4450950  12.2684890  52.6031270  39.0605740  11.6278560  53.2014230
  39.7563140  12.9721010  53.1726000  45.5948090   9.1161430  48.0839890
  45.9618220   8.6420000  48.8301230  45.4053150   9.9903000  48.4248230
  38.4588580   3.8605120  44.2133360  38.1735500   3.4960790  45.0511980
  38.3967440   3.1285580  43.5996500  43.3847460   8.1570070  50.4024100
  43.0804530   9.0362050  50.6274460  44.3393920   8.2169860  50.4381540
  41.9129250  12.3631060  40.9990950  41.1391510  11.8228680  40.8389670
  42.6423880  11.8437670  40.6608710  52.6717230  11.3596420  46.7917340
  53.3916350  11.8551710  46.4013450  52.4699050  10.6814310  46.1471210
  48.1327170   2.7534380  40.9346730  47.3191780   2.2547550  40.8592040
  47.9389120   3.5932630  40.5183080  48.0536030  11.4305480  52.6786340
  47.9873340  10.5101150  52.4243930  47.4241170  11.5280920  53.3930980
  50.8475560   7.1254030  39.2308890  51.7355180   7.4371260  39.0560230
  50.8180650   6.2526280  38.8389470  41.9566650  12.0311440  44.6369760
  42.4745320  11.2279700  44.5826650  41.5050670  11.9690580  45.4786590
  46.8436150  13.2977720  39.9097060  47.1851850  14.0419950  39.4140380
  46.0148860  13.6108840  40.2721890  39.4411190   8.9972810  51.5495460
  39.0826130   9.6626660  52.1368800  39.1465750   8.1656360  51.9208080
  42.6424310   9.4557050  54.4335010  42.3424450   9.6014230  53.5362830
  43.4135550   8.8962340  54.3408400  47.9852760  14.2526050  52.4290140
  47.9997300  13.3207010  52.2109050  47.2777860  14.3385810  53.0679910
  53.1189830   8.4365870  38.6988750  53.0353550   8.8680090  37.8485190
  53.8384020   8.8964220  39.1315570  54.1963970  10.8933390  51.7758720
  53.4712160  11.4862170  51.5788110  54.7239430  10.8856930  50.9772090
  54.1477080  15.2908130  41.4270880  53.5053240  14.6363750  41.7014600
  53.7607740  15.6963220  40.6511550  49.7263560  12.6193560  45.2742570
  50.0787380  12.0221690  44.6143940  48.8425890  12.2937790  45.4450820
  45.8126840  13.3791250  42.6812980  46.4997970  13.9260460  43.0620570
  45.0259260  13.9231980  42.7162590  37.9519240   8.9964070  38.1730060
  38.8214090   9.2788870  38.4565980  37.4609560   9.8099940  38.0578870
  45.1154050  10.3837280  42.2938340  45.5716830  11.1942530  42.5198530
  44.7642260  10.0660420  43.1256830  47.4186660  15.8943620  49.5230640
  48.0628880  16.1003000  50.2004060  47.7816100  15.1332020  49.0701490
  48.6918740  13.8975970  48.2408090  49.3340970  13.1969130  48.3540260
  49.2168090  14.6774410  48.0604980  52.5374460  14.1824590  37.9647230
  52.3112040  13.4655030  38.5571870  52.1470660  13.9337030  37.1268980
  50.4656360  14.6970870  51.4444150  50.8012600  15.2837560  52.1222070
  49.5456700  14.5663580  51.6741940  38.3190490  18.2091450  38.7391690
  38.6788130  18.8080790  38.0848960  38.1782830  18.7551340  39.5126720
  38.0159760   2.4866050  52.2267560  37.3018280   2.6862970  52.8320170
  38.4354800   1.7105620  52.5982360  52.1190710  12.0996530  39.6261390
  51.8312410  12.5609220  40.4139270  52.9142880  11.6394300  39.8945610
  38.3032350  16.4746310  53.2134090  38.4123470  15.5341050  53.0729480
  37.6512910  16.7401060  52.5647820  46.2944940  14.7462200  54.6132210
  45.9741810  14.0271440  55.1577900  45.6203300  15.4217270  54.6868270
  44.3359110  15.5922650  39.5565360  44.3269210  16.3252340  38.9409870
  43.4157470  15.3454230  39.6492320  39.9365750  10.8137540  40.3012120
  39.3293700  11.5536440  40.3107420  40.4115100  10.9036900  39.4750320
  49.5098540   4.9788360  49.9769010  49.8779360   4.1583570  50.3048580
  48.6496740   5.0390250  50.3924660  52.8760570   3.9345300  40.7856570
  52.2473730   4.0390970  40.0714800  52.3812490   4.1542080  41.5750450
  47.3218710  15.6550890  38.2190550  47.4230690  15.4514880  37.2892530
  46.4220450  15.4009170  38.4238330  44.8444600   6.2131250  42.2014450
  44.1360750   6.6817590  42.6428060  45.1289080   5.5553260  42.8359640
  46.4700530   7.6327950  50.2006980  46.9685780   8.1073770  50.8658830
  46.6123480   6.7091470  50.4077010  48.8760030   2.9381910  43.6410240
  48.7527810   2.9568040  42.6919750  49.8244590   2.9860850  43.7608640
  45.9636820  18.1737210  42.9138220  46.2178320  18.1358600  41.9917590
  45.0149300  18.0470540  42.9066470  43.0479620   4.5216330  39.5765160
  43.8970150   4.9586480  39.5105350  42.6810890   4.8336590  40.4037220
  53.6767390   3.8495910  51.0435370  53.1740990   4.5901310  51.3829180
  54.4924050   4.2379910  50.7272160  51.9689400   9.0929090  44.4896730
  51.0279540   9.1079320  44.6644420  52.2833470   8.3065050  44.9357030
  41.9471040  10.7748690  38.0500690  42.7134310  10.6630050  38.6126120
  42.0245730  10.0786660  37.3977460  40.6417800   8.2073760  38.7333580
  40.7221390   7.2601270  38.8450980  41.5337550   8.5380640  38.8394240
  53.9714980  16.2637940  46.1650990  54.0962400  17.0869110  46.6374800
  54.8380540  16.0528670  45.8175140  41.4432510  18.3569150  45.8368120
  42.1794990  17.8084610  46.1076690  41.8273430  19.2225160  45.6974110
  38.3277990  14.4242720  41.7109630  37.4017770  14.6663860  41.7015040
  38.7934420  15.2516980  41.5894380  40.4490790  17.5415220  55.0253700
  41.2503520  17.8627270  55.4389100  39.9342610  17.1810800  55.7473610
  44.5534820  17.5299460  37.6593690  45.3463430  17.8188290  37.2075480
  44.0339170  17.0991630  36.9806170  49.2855420  13.6495090  54.9729110
  48.6793580  13.6726690  54.2324860  48.9809530  12.9178130  55.5096360
  50.7155790  17.3775380  53.5838520  51.6677540  17.2933400  53.5338760
  50.5684010  18.0417090  54.2572310  53.6064990  16.7569590  39.0830430
  53.3206500  16.3434730  38.2684610  53.4084540  17.6857300  38.9630950
  38.1688600  10.0288680  53.9689750  38.6727620   9.4495960  54.5405980
  37.4296020  10.3128910  54.5066120  45.0712220  12.7502870  37.5236040
  44.9662860  12.1355220  38.2497420  44.9036440  12.2268760  36.7399050
  45.2226540  11.4359670  53.5025270  44.4572210  12.0044670  53.4179940
  45.4042500  11.1435880  52.6093500  48.3114950  11.8122900  38.1278030
  47.7625050  12.2592200  38.7720770  48.9334210  11.3072150  38.6515700
  52.3649890  13.1665000  54.0600290  53.1059360  13.5040760  53.5567750
  51.6022570  13.3357060  53.5070060  40.2011680   8.1718270  54.8639820
  40.2417020   7.8732140  55.7725050  41.0557180   8.5725880  54.7047340
  43.9790070  10.7713820  40.0243330  44.4006490  10.6053690  40.8674720
  44.1040910   9.9614050  39.5298470  42.1417490   6.7510370  52.8314310
  41.6113950   6.2601320  52.2037650  42.8105560   7.1794570  52.2972240
  46.4917710   9.7951430  37.2720430  47.0123370   9.0800450  36.9061580
  47.1386110  10.4337300  37.5720940  51.0395550  11.2179830  52.5955500
  51.4536570  11.3724910  53.4445920  50.1046550  11.3435050  52.7581280
  51.5117720   8.5575990  54.5994650  52.0938490   7.8028310  54.5115130
  51.6879490   9.0883430  53.8226130  42.6289790   3.7172740  52.9111600
  42.5346660   3.0993490  52.1862470  42.0487180   4.4439030  52.6841510
  45.3951230   2.2745980  49.9438990  44.9468530   2.2970240  49.0984540
  44.7616430   1.8765000  50.5409290  45.8010780  11.1700310  50.5651430
  46.2198890  12.0133040  50.3927670  44.8819410  11.3072350  50.3358210
  48.1374680   8.9016490  51.9489270  48.2570890   8.3057630  52.6884110
  48.9968680   8.9386180  51.5290570  50.4762580   9.4553680  50.5251780
  49.9497800   9.9796300  49.9216920  50.8193920  10.0881070  51.1561510
  42.8748970   6.8447050  36.9701490  42.6738030   5.9814410  37.3314830
  42.7041020   6.7580410  36.0323090  43.6518200  17.4753320  51.6809160
  43.1139290  18.1999380  51.3617860  43.9052160  16.9983660  50.8906500
  44.9043450   5.4437840  53.2065090  45.4943140   5.1353690  53.8942910
  44.0863690   4.9717590  53.3624990  49.7236880   5.0603650  53.4398110
  49.0352400   4.3985190  53.3748100  50.4442900   4.6141920  53.8846570
  41.6731770   3.9447670  36.9579370  41.9757670   3.9515100  36.0498520
  42.4126360   3.5945530  37.4547030  46.5080410  18.7104530  51.9395810
  46.4339110  19.6139670  52.2468180  45.6059250  18.3916430  51.9117880
  44.8916700   2.8882290  37.9435570  44.5438700   2.2106280  37.3638020
  45.0929470   2.4271800  38.7578960  47.0565740  17.8763040  39.5622170
  47.9516530  18.2148010  39.5840930  47.0883370  17.1542450  38.9346450
  40.6961900  13.2490090  37.7909170  41.1336770  13.7919760  38.4466750
  41.1809630  12.4237040  37.8005510  37.9107700  16.0379120  45.2429430
  38.2410710  15.1700180  45.0108070  38.3398700  16.2437640  46.0734390
  42.5069620  14.3688130  42.9031400  42.2065160  14.2453100  43.8035310
  42.4007110  13.5096720  42.4947130  38.3997910  16.9049710  47.9811060
  37.9628900  17.0850510  48.8135210  38.9675590  17.6624330  47.8392780
  54.0360090  16.4066710  52.2688370  53.4362080  16.4659270  51.5252290
  54.1653990  15.4671690  52.3985220  55.2761540  14.1484530  37.6058080
  54.4454500  14.2161180  38.0765310  55.4533370  15.0388650  37.3024940
  54.7318000  10.8932010  40.1092280  55.4936910  11.4628660  40.2151970
  54.7472370  10.3259210  40.8800590  38.2322340   9.4169940  44.3399940
  37.5771180   9.1481580  43.6959640  39.0700290   9.3074420  43.8901920
  55.7377970  11.7482110  44.9534210  56.1086800  10.9649430  44.5470180
  56.3779900  12.4371210  44.7751510  52.7211730  13.1318690  50.3664530
  51.9071570  13.5615850  50.6290320  53.1285930  13.7437100  49.7533580
  54.7837170  11.1866380  37.2664800  55.0586010  12.0945260  37.1384020
  54.5947910  11.1228910  38.2026790  51.1812780   4.2111230  38.5618430
  51.5997660   4.0242210  37.7215090  50.8748840   3.3590280  38.8721360
  54.6802510   9.1235370  42.2594230  54.3046110   8.3563300  41.8275520
  53.9505630   9.5058070  42.7469160  39.2698270   9.8022510  48.8803280
  39.6371310   9.7149910  49.7599300  38.7009090   9.0389060  48.7810140
  54.0702130   8.2706890  51.8933750  53.8388220   8.0419640  50.9931700
  54.3306680   9.1906440  51.8478640  38.8214270   6.7131600  52.7861700
  37.9270320   6.6798360  53.1255410  39.3611820   6.9118390  53.5512950
  52.5090200   3.4963320  54.6713450  53.3860380   3.5046720  55.0547450
  52.5211040   2.7594160  54.0605800  37.4460420   6.6268870  40.2825270
  36.5424500   6.8899070  40.1076930  37.9301040   6.8980040  39.5025230
  53.9553470   7.3492860  45.5601470  54.4790950   6.8555510  44.9291640
  54.5412890   7.4843220  46.3049040  54.1343190   7.4332730  49.0821020
  53.1845900   7.3996270  49.1966010  54.3156200   8.3432840  48.8470790
  39.9887630   5.6834410  38.1919650  40.6979330   5.2617630  37.7066930
  39.2727570   5.7509640  37.5603000  53.4453440   6.6066210  41.4993880
  53.9412560   6.3737080  42.2842760  53.2469510   5.7678050  41.0831520
  54.8740600   5.2427160  44.0331560  54.7639880   5.0883200  44.9713830
  55.6348190   4.7148100  43.7906970  55.7630870   3.0735080  37.2737700
  56.6880180   2.9416260  37.0655990  55.7406660   3.1527900  38.2274150
  55.8369360   3.8445740  39.8994410  55.0420860   3.7790860  40.4287320
  56.0412640   4.7796380  39.8879760  52.7787780  17.8837290  43.8932800
  53.3746850  17.5621860  43.2167220  53.0365930  17.4109110  44.6846070
  40.6850350  14.3155200  54.0423430  40.6419980  13.9448110  54.9237890
  40.8161360  15.2532770  54.1825250  44.3856380  15.8714790  49.6433150
  44.1447740  16.1389350  48.7563670  45.3259020  16.0420520  49.6984010
  46.5910800   2.3347480  53.3989660  46.5299690   2.9269310  54.1485070
  47.5311180   2.2273440  53.2539920  55.6460540  17.8909170  50.4443790
  55.1518820  18.2878040  49.7270920  55.0373830  17.2658380  50.8381070
  40.5238380  17.2617450  51.1621210  39.9298700  17.1302150  51.9011250
  40.5162220  16.4255590  50.6963310  50.8765380   2.7620550  50.7492960
  50.5478740   1.9472310  50.3694690  51.8247680   2.7190360  50.6258650
  53.3299990  18.5332590  47.7230530  52.8702960  19.2848400  47.3488550
  52.7012450  17.8139060  47.6645330  40.1550610  14.6275830  50.1129250
  39.4284670  14.0081120  50.0455200  40.2159760  15.0216440  49.2427330
  43.7595710  16.8420830  46.8978660  44.2760730  16.2308190  46.3726920
  44.4093090  17.3449610  47.3889670  46.4991210  17.7329320  47.7247640
  46.7869020  17.4783620  46.8480650  47.0114430  17.1806680  48.3153210
  52.2689290   2.1742620  46.3493240  52.7097380   2.1187720  45.5014840
  51.9996880   3.0900630  46.4203420  38.4380610  17.9450220  43.3226010
  38.2702650  17.3120900  44.0207900  37.5715120  18.1509620  42.9720200
  39.0608630   1.7767000  40.8257870  39.8187990   1.8895880  40.2521900
  38.5985800   2.6136200  40.7801300  45.6022440   3.8906270  43.8160180
  44.7896950   3.5163160  43.4756060  46.1064080   3.1351350  44.1181370
  40.0443310  16.6383450  40.7676150  39.5190930  17.0191480  40.0638110
  39.9687890  17.2634220  41.4885860  46.5663570  18.6545420  55.0915840
  47.4930880  18.4189690  55.1351800  46.5514000  19.4817420  54.6101870
  54.8008630  18.1970990  42.0890090  54.9760820  17.5108730  41.4451010
  54.1030200  18.7218040  41.6966760  42.6436280  18.5865830  39.6425400
  43.3755100  18.3025110  39.0949290  42.9029950  18.3479110  40.5324780
  41.8051070  14.7030560  39.6471730  41.1759950  15.1715660  40.1957560
  41.9198900  13.8579780  40.0817920  53.1341130  17.8815280  54.9156880
  53.9266450  17.3864510  54.7082840  53.4274280  18.5605420  55.5232490
  49.2600790   8.7536220  25.7972930  49.1794840   7.8390830  25.5264640
  48.8465210   9.2503290  25.0912640  47.3918830  10.5315240  27.6782200
  46.6160930  10.0515680  27.9680770  48.0431760   9.8520890  27.5038360
  41.4084660  10.8435050  28.5557960  40.5769540  10.5883760  28.9554470
  42.0165640  10.9145820  29.2915880  51.4126260  14.9375430  26.4581330
  50.9507790  14.1662670  26.7868500  52.2251810  14.9641500  26.9633780
  41.3885920  14.8775140  28.7515980  41.6913960  13.9872880  28.5726200
  42.1329510  15.4345360  28.5238230  39.8176610   5.8036940  22.3400350
  38.9293310   6.1452910  22.2380230  40.1017800   5.6037260  21.4481180
  37.7809620   8.4042590  28.2240050  38.3525730   7.6364790  28.2243690
  37.7811160   8.7031350  27.3146660  47.6389570  17.2233440  26.0785320
  47.0201010  17.6790940  25.5079760  48.4941350  17.3784900  25.6775020
  46.8327820  13.2072430  27.6852360  46.7636100  12.2662370  27.5241490
  47.5947680  13.2973840  28.2574930  39.0234490   3.8126950  30.0108980
  38.8437330   2.9152700  30.2911740  38.6214570   4.3598820  30.6855930
  47.8632990   6.0142810  27.9121290  48.2397810   5.1414690  27.7994960
  47.7652500   6.3501510  27.0211730  41.9938000   4.3868440  23.3738730
  42.1004750   5.2872170  23.6807490  41.0830360   4.3386410  23.0833380
  51.6457110   3.5093250  24.8449630  52.4666730   3.0189820  24.8875110
  51.6791190   4.0990910  25.5981470  39.6421160   6.3087450  28.6191320
  40.3231270   6.5725820  29.2378720  39.3269210   5.4688320  28.9529330
  43.8345730   7.3554810  27.7063910  44.3423950   7.8535780  28.3468930
  44.3658970   6.5790010  27.5303270  55.9356660   5.5260000  31.4093260
  55.2308830   5.9141710  30.8908370  56.2014580   6.2210290  32.0114190
  48.5052920  12.1072680  23.4717230  47.8870190  12.5722130  22.9079950
  49.0176170  12.8000160  23.8886740  43.3684680  11.6348550  30.1500830
  43.0354060  12.2617470  30.7921900  43.5451360  12.1610430  29.3702500
  51.8818590   5.4493630  27.6177170  51.1774160   5.7378520  28.1980280
  52.2430750   6.2593740  27.2576730  41.7997160   3.7063330  29.9797780
  42.1413970   4.5505380  29.6851650  40.8612970   3.8547070  30.0963120
  42.5803780  13.6029350  31.9650010  43.1977780  14.2780430  31.6834460
  41.7196900  14.0117330  31.8737510  37.8736120  12.7929210  20.8456860
  37.4964100  13.2816310  20.1141760  38.1309190  13.4654490  21.4763390
  53.4981370  15.0668760  29.8804650  52.8144890  15.7367870  29.8721320
  54.0375660  15.2649410  29.1149510  54.9505510   4.8948420  28.0086380
  54.0030420   4.9287400  28.1401810  55.2755500   5.7087370  28.3935740
  51.0340110  16.9112890  28.5949830  51.0467270  16.5075180  27.7272090
  50.4815330  17.6860180  28.4911260  52.3285530  13.6329110  23.6840000
  52.2181860  12.6903440  23.8089420  52.3253780  13.9944750  24.5702760
  50.4325550  11.8142730  29.9232440  50.8494340  11.6002840  29.0885900
  51.1565370  12.0715520  30.4941060  47.8705810   9.2594430  23.0402490
  46.9435090   9.1931810  23.2690960  48.0230630  10.1974560  22.9257730
  47.8574890   5.5311430  20.0369650  46.9178560   5.6925390  20.1222110
  48.1758150   6.2497110  19.4905640  54.3787650  10.2129950  30.0148680
  53.5506280  10.2823040  29.5398810  54.9738130  10.7984260  29.5464510
  51.9003100  10.8214730  23.5437740  51.2815520  10.4834280  22.8964040
  51.8827550  10.1774490  24.2516930  51.3429660   6.9999270  30.9603550
  50.9300840   7.8252980  31.2143540  50.6105610   6.4144310  30.7679910
  43.4762450   9.7859170  25.8222220  43.0719450   9.0736420  25.3268120
  43.5625570   9.4412410  26.7110260  43.9444150  13.4726730  27.9861430
  43.6472440  12.8672200  27.3069210  44.8943970  13.5104040  27.8750790
  42.1891070   6.5602380  29.6021260  42.7405660   6.6697720  28.8274510
  42.7034580   6.9339980  30.3176490  52.0329760  17.0458600  31.6484530
  51.5560320  17.8530790  31.4557140  51.3491550  16.3936930  31.8010740
  43.0362580  13.2108420  34.6369230  42.1391110  13.4348390  34.8842630
  43.0615450  13.3343360  33.6880630  50.0767800  10.0601540  20.5510490
  50.5161080   9.2223970  20.4048310  50.7896220  10.6930940  20.6374630
  41.8633800  10.0821740  33.2126600  41.7241570  10.9544540  33.5814000
  40.9815160   9.7394550  33.0674540  48.1863180  14.9997610  24.5191730
  48.6259090  15.7421940  24.1047120  48.1250070  15.2424180  25.4430690
  43.6614150  16.0243440  35.4211750  43.6329580  16.4286390  34.5540180
  43.4979120  15.0953800  35.2583350  40.1767080   8.6804150  23.3228870
  40.0564680   9.4066240  22.7110140  39.8667970   7.9107060  22.8456780
  55.6128970  16.8070540  36.7175920  56.0888690  17.2853430  37.3965000
  56.2336130  16.7388030  35.9921420  37.8152450  11.8519290  29.1297510
  37.8932870  11.9868060  28.1853230  38.4294130  11.1435180  29.3225630
  39.0600080  13.5519480  25.5403690  38.6528160  13.6934070  24.6857290
  39.9513090  13.2679640  25.3374900  55.0162220  13.9983390  33.8775930
  55.1425280  13.7595270  32.9593110  55.0583600  13.1667930  34.3498010
  48.8778960  17.7011390  32.4470740  49.3923630  17.6119400  33.2493170
  48.0348040  18.0471090  32.7398650  50.8533360  17.9866730  21.8754740
  50.6934500  17.6969670  22.7736570  50.6880070  17.2106860  21.3399970
  43.3321740  17.7665260  23.6526360  43.1564220  16.8500800  23.4394160
  42.4777480  18.1252550  23.8924160  50.5559490  15.4954290  20.4352740
  49.8624650  15.4931580  19.7755020  51.2982350  15.0713610  20.0046910
  50.1209420  17.1217000  24.5101230  50.5766370  16.3406380  24.8239850
  50.4601940  17.8323820  25.0542410  54.8686230   6.0515850  34.8425670
  54.2530500   6.5595520  34.3141130  54.5482650   5.1514180  34.7851610
  37.8711970  12.8933460  31.6691970  38.0343010  12.4238820  30.8511340
  38.3364420  12.3857020  32.3340810  42.6430740   2.0239220  26.7052540
  42.1998890   2.8048760  26.3737060  43.2015730   2.3469110  27.4123480
  46.9300550   4.8907740  32.3087860  46.4679920   5.0990760  33.1207800
  46.5278660   4.0767090  32.0058530  51.9305060   6.1116690  33.4384520
  51.0798650   5.8122440  33.7593590  51.7706850   6.3558700  32.5268340
  49.0254770   7.6118440  35.5383310  49.3508180   6.7782190  35.1985540
  49.8135100   8.1346960  35.6861640  44.6806640   2.5686550  28.5642140
  44.9778970   3.4749380  28.4834160  45.2292200   2.0805330  27.9501710
  42.4344960   7.1472790  24.4333790  42.2085880   6.9309960  25.3380410
  41.6537490   7.5801250  24.0879760  49.6642720   7.1536160  23.0324440
  49.0651610   7.8771960  22.8488060  50.2122330   7.0912940  22.2500890
  44.8744170   8.0458370  35.0994060  44.7787770   7.1053100  34.9494460
  45.7176150   8.2673440  34.7042130  48.2707590   5.7899700  25.0627720
  48.6637160   6.1071900  24.2496410  48.6324440   4.9111580  25.1772240
  40.0054710   4.4572040  33.2527840  39.6118100   5.3047250  33.4600620
  39.3173110   3.8198410  33.4436480  46.5799760   4.5407010  36.3224580
  45.8898080   4.3479210  36.9570670  47.3232060   4.8241650  36.8548880
  37.3071760   2.3800500  27.2857920  37.0184810   2.9503360  27.9982900
  38.0517520   1.9004950  27.6489150  37.4941990   6.3220620  18.4960640
  37.4116660   7.2651380  18.6375630  37.1425050   6.1795530  17.6172990
  48.8562730   8.3805450  29.1578500  48.1243850   8.8892260  29.5068600
  48.4587070   7.5635430  28.8567280  45.2940120   5.0559650  27.5630990
  45.2976180   4.6149600  26.7135530  46.1891240   5.3776980  27.6702810
  41.1442500   4.9386140  26.5225200  40.8042550   5.4161370  27.2792250
  40.3819820   4.4851260  26.1626300  45.3560270   6.0571730  20.5537750
  45.4773090   6.0158210  21.5023570  44.9708780   6.9195880  20.3984480
  49.3188640   3.8339130  28.5701440  49.3361380   4.2847780  29.4143290
  49.0704220   2.9344770  28.7834880  44.3681770   8.3672870  19.9521050
  43.7998670   7.9191120  19.3256960  45.0770770   8.7265650  19.4186200
  39.4450950  12.2684890  33.8287780  39.0605740  11.6278560  34.4270740
  39.7563140  12.9721010  34.3982510  45.5948090   9.1161430  29.3096400
  45.9618220   8.6420000  30.0557740  45.4053150   9.9903000  29.6504740
  38.4588580   3.8605120  25.4389870  38.1735500   3.4960790  26.2768490
  38.3967440   3.1285580  24.8253010  43.3847460   8.1570070  31.6280610
  43.0804530   9.0362050  31.8530970  44.3393920   8.2169860  31.6638050
  41.9129250  12.3631060  22.2247460  41.1391510  11.8228680  22.0646180
  42.6423880  11.8437670  21.8865220  52.6717230  11.3596420  28.0173850
  53.3916350  11.8551710  27.6269960  52.4699050  10.6814310  27.3727720
  48.1327170   2.7534380  22.1603240  47.3191780   2.2547550  22.0848550
  47.9389120   3.5932630  21.7439590  48.0536030  11.4305480  33.9042850
  47.9873340  10.5101150  33.6500440  47.4241170  11.5280920  34.6187490
  50.8475560   7.1254030  20.4565400  51.7355180   7.4371260  20.2816740
  50.8180650   6.2526280  20.0645980  41.9566650  12.0311440  25.8626270
  42.4745320  11.2279700  25.8083160  41.5050670  11.9690580  26.7043100
  46.8436150  13.2977720  21.1353570  47.1851850  14.0419950  20.6396890
  46.0148860  13.6108840  21.4978400  39.4411190   8.9972810  32.7751970
  39.0826130   9.6626660  33.3625310  39.1465750   8.1656360  33.1464590
  42.6424310   9.4557050  35.6591520  42.3424450   9.6014230  34.7619340
  43.4135550   8.8962340  35.5664910  47.9852760  14.2526050  33.6546650
  47.9997300  13.3207010  33.4365560  47.2777860  14.3385810  34.2936420
  53.1189830   8.4365870  19.9245260  53.0353550   8.8680090  19.0741700
  53.8384020   8.8964220  20.3572080  54.1963970  10.8933390  33.0015230
  53.4712160  11.4862170  32.8044620  54.7239430  10.8856930  32.2028600
  54.1477080  15.2908130  22.6527390  53.5053240  14.6363750  22.9271110
  53.7607740  15.6963220  21.8768060  49.7263560  12.6193560  26.4999080
  50.0787380  12.0221690  25.8400450  48.8425890  12.2937790  26.6707330
  45.8126840  13.3791250  23.9069490  46.4997970  13.9260460  24.2877080
  45.0259260  13.9231980  23.9419100  37.9519240   8.9964070  19.3986570
  38.8214090   9.2788870  19.6822490  37.4609560   9.8099940  19.2835380
  45.1154050  10.3837280  23.5194850  45.5716830  11.1942530  23.7455040
  44.7642260  10.0660420  24.3513340  47.4186660  15.8943620  30.7487150
  48.0628880  16.1003000  31.4260570  47.7816100  15.1332020  30.2958000
  48.6918740  13.8975970  29.4664600  49.3340970  13.1969130  29.5796770
  49.2168090  14.6774410  29.2861490  52.5374460  14.1824590  19.1903740
  52.3112040  13.4655030  19.7828380  52.1470660  13.9337030  18.3525490
  50.4656360  14.6970870  32.6700660  50.8012600  15.2837560  33.3478580
  49.5456700  14.5663580  32.8998450  38.3190490  18.2091450  19.9648200
  38.6788130  18.8080790  19.3105470  38.1782830  18.7551340  20.7383230
  38.0159760   2.4866050  33.4524070  37.3018280   2.6862970  34.0576680
  38.4354800   1.7105620  33.8238870  52.1190710  12.0996530  20.8517900
  51.8312410  12.5609220  21.6395780  52.9142880  11.6394300  21.1202120
  38.3032350  16.4746310  34.4390600  38.4123470  15.5341050  34.2985990
  37.6512910  16.7401060  33.7904330  46.2944940  14.7462200  35.8388720
  45.9741810  14.0271440  36.3834410  45.6203300  15.4217270  35.9124780
  44.3359110  15.5922650  20.7821870  44.3269210  16.3252340  20.1666380
  43.4157470  15.3454230  20.8748830  39.9365750  10.8137540  21.5268630
  39.3293700  11.5536440  21.5363930  40.4115100  10.9036900  20.7006830
  49.5098540   4.9788360  31.2025520  49.8779360   4.1583570  31.5305090
  48.6496740   5.0390250  31.6181170  52.8760570   3.9345300  22.0113080
  52.2473730   4.0390970  21.2971310  52.3812490   4.1542080  22.8006960
  47.3218710  15.6550890  19.4447060  47.4230690  15.4514880  18.5149040
  46.4220450  15.4009170  19.6494840  44.8444600   6.2131250  23.4270960
  44.1360750   6.6817590  23.8684570  45.1289080   5.5553260  24.0616150
  46.4700530   7.6327950  31.4263490  46.9685780   8.1073770  32.0915340
  46.6123480   6.7091470  31.6333520  48.8760030   2.9381910  24.8666750
  48.7527810   2.9568040  23.9176260  49.8244590   2.9860850  24.9865150
  45.9636820  18.1737210  24.1394730  46.2178320  18.1358600  23.2174100
  45.0149300  18.0470540  24.1322980  43.0479620   4.5216330  20.8021670
  43.8970150   4.9586480  20.7361860  42.6810890   4.8336590  21.6293730
  53.6767390   3.8495910  32.2691880  53.1740990   4.5901310  32.6085690
  54.4924050   4.2379910  31.9528670  51.9689400   9.0929090  25.7153240
  51.0279540   9.1079320  25.8900930  52.2833470   8.3065050  26.1613540
  41.9471040  10.7748690  19.2757200  42.7134310  10.6630050  19.8382630
  42.0245730  10.0786660  18.6233970  40.6417800   8.2073760  19.9590090
  40.7221390   7.2601270  20.0707490  41.5337550   8.5380640  20.0650750
  53.9714980  16.2637940  27.3907500  54.0962400  17.0869110  27.8631310
  54.8380540  16.0528670  27.0431650  41.4432510  18.3569150  27.0624630
  42.1794990  17.8084610  27.3333200  41.8273430  19.2225160  26.9230620
  38.3277990  14.4242720  22.9366140  37.4017770  14.6663860  22.9271550
  38.7934420  15.2516980  22.8150890  40.4490790  17.5415220  36.2510210
  41.2503520  17.8627270  36.6645610  39.9342610  17.1810800  36.9730120
  44.5534820  17.5299460  18.8850200  45.3463430  17.8188290  18.4331990
  44.0339170  17.0991630  18.2062680  49.2855420  13.6495090  36.1985620
  48.6793580  13.6726690  35.4581370  48.9809530  12.9178130  36.7352870
  50.7155790  17.3775380  34.8095030  51.6677540  17.2933400  34.7595270
  50.5684010  18.0417090  35.4828820  53.6064990  16.7569590  20.3086940
  53.3206500  16.3434730  19.4941120  53.4084540  17.6857300  20.1887460
  38.1688600  10.0288680  35.1946260  38.6727620   9.4495960  35.7662490
  37.4296020  10.3128910  35.7322630  45.0712220  12.7502870  18.7492550
  44.9662860  12.1355220  19.4753930  44.9036440  12.2268760  17.9655560
  45.2226540  11.4359670  34.7281780  44.4572210  12.0044670  34.6436450
  45.4042500  11.1435880  33.8350010  48.3114950  11.8122900  19.3534540
  47.7625050  12.2592200  19.9977280  48.9334210  11.3072150  19.8772210
  52.3649890  13.1665000  35.2856800  53.1059360  13.5040760  34.7824260
  51.6022570  13.3357060  34.7326570  40.2011680   8.1718270  36.0896330
  40.2417020   7.8732140  36.9981560  41.0557180   8.5725880  35.9303850
  43.9790070  10.7713820  21.2499840  44.4006490  10.6053690  22.0931230
  44.1040910   9.9614050  20.7554980  42.1417490   6.7510370  34.0570820
  41.6113950   6.2601320  33.4294160  42.8105560   7.1794570  33.5228750
  46.4917710   9.7951430  18.4976940  47.0123370   9.0800450  18.1318090
  47.1386110  10.4337300  18.7977450  51.0395550  11.2179830  33.8212010
  51.4536570  11.3724910  34.6702430  50.1046550  11.3435050  33.9837790
  51.5117720   8.5575990  35.8251160  52.0938490   7.8028310  35.7371640
  51.6879490   9.0883430  35.0482640  42.6289790   3.7172740  34.1368110
  42.5346660   3.0993490  33.4118980  42.0487180   4.4439030  33.9098020
  45.3951230   2.2745980  31.1695500  44.9468530   2.2970240  30.3241050
  44.7616430   1.8765000  31.7665800  45.8010780  11.1700310  31.7907940
  46.2198890  12.0133040  31.6184180  44.8819410  11.3072350  31.5614720
  48.1374680   8.9016490  33.1745780  48.2570890   8.3057630  33.9140620
  48.9968680   8.9386180  32.7547080  50.4762580   9.4553680  31.7508290
  49.9497800   9.9796300  31.1473430  50.8193920  10.0881070  32.3818020
  42.8748970   6.8447050  18.1958000  42.6738030   5.9814410  18.5571340
  42.7041020   6.7580410  17.2579600  43.6518200  17.4753320  32.9065670
  43.1139290  18.1999380  32.5874370  43.9052160  16.9983660  32.1163010
  44.9043450   5.4437840  34.4321600  45.4943140   5.1353690  35.1199420
  44.0863690   4.9717590  34.5881500  49.7236880   5.0603650  34.6654620
  49.0352400   4.3985190  34.6004610  50.4442900   4.6141920  35.1103080
  41.6731770   3.9447670  18.1835880  41.9757670   3.9515100  17.2755030
  42.4126360   3.5945530  18.6803540  46.5080410  18.7104530  33.1652320
  46.4339110  19.6139670  33.4724690  45.6059250  18.3916430  33.1374390
  44.8916700   2.8882290  19.1692080  44.5438700   2.2106280  18.5894530
  45.0929470   2.4271800  19.9835470  47.0565740  17.8763040  20.7878680
  47.9516530  18.2148010  20.8097440  47.0883370  17.1542450  20.1602960
  40.6961900  13.2490090  19.0165680  41.1336770  13.7919760  19.6723260
  41.1809630  12.4237040  19.0262020  37.9107700  16.0379120  26.4685940
  38.2410710  15.1700180  26.2364580  38.3398700  16.2437640  27.2990900
  42.5069620  14.3688130  24.1287910  42.2065160  14.2453100  25.0291820
  42.4007110  13.5096720  23.7203640  38.3997910  16.9049710  29.2067570
  37.9628900  17.0850510  30.0391720  38.9675590  17.6624330  29.0649290
  54.0360090  16.4066710  33.4944880  53.4362080  16.4659270  32.7508800
  54.1653990  15.4671690  33.6241730  55.2761540  14.1484530  18.8314590
  54.4454500  14.2161180  19.3021820  55.4533370  15.0388650  18.5281450
  54.7318000  10.8932010  21.3348790  55.4936910  11.4628660  21.4408480
  54.7472370  10.3259210  22.1057100  38.2322340   9.4169940  25.5656450
  37.5771180   9.1481580  24.9216150  39.0700290   9.3074420  25.1158430
  55.7377970  11.7482110  26.1790720  56.1086800  10.9649430  25.7726690
  56.3779900  12.4371210  26.0008020  52.7211730  13.1318690  31.5921040
  51.9071570  13.5615850  31.8546830  53.1285930  13.7437100  30.9790090
  54.7837170  11.1866380  18.4921310  55.0586010  12.0945260  18.3640530
  54.5947910  11.1228910  19.4283300  51.1812780   4.2111230  19.7874940
  51.5997660   4.0242210  18.9471600  50.8748840   3.3590280  20.0977870
  54.6802510   9.1235370  23.4850740  54.3046110   8.3563300  23.0532030
  53.9505630   9.5058070  23.9725670  39.2698270   9.8022510  30.1059790
  39.6371310   9.7149910  30.9855810  38.7009090   9.0389060  30.0066650
  54.0702130   8.2706890  33.1190260  53.8388220   8.0419640  32.2188210
  54.3306680   9.1906440  33.0735150  38.8214270   6.7131600  34.0118210
  37.9270320   6.6798360  34.3511920  39.3611820   6.9118390  34.7769460
  52.5090200   3.4963320  35.8969960  53.3860380   3.5046720  36.2803960
  52.5211040   2.7594160  35.2862310  37.4460420   6.6268870  21.5081780
  36.5424500   6.8899070  21.3333440  37.9301040   6.8980040  20.7281740
  53.9553470   7.3492860  26.7857980  54.4790950   6.8555510  26.1548150
  54.5412890   7.4843220  27.5305550  54.1343190   7.4332730  30.3077530
  53.1845900   7.3996270  30.4222520  54.3156200   8.3432840  30.0727300
  39.9887630   5.6834410  19.4176160  40.6979330   5.2617630  18.9323440
  39.2727570   5.7509640  18.7859510  53.4453440   6.6066210  22.7250390
  53.9412560   6.3737080  23.5099270  53.2469510   5.7678050  22.3088030
  54.8740600   5.2427160  25.2588070  54.7639880   5.0883200  26.1970340
  55.6348190   4.7148100  25.0163480  55.7630870   3.0735080  18.4994210
  56.6880180   2.9416260  18.2912500  55.7406660   3.1527900  19.4530660
  55.8369360   3.8445740  21.1250920  55.0420860   3.7790860  21.6543830
  56.0412640   4.7796380  21.1136270  52.7787780  17.8837290  25.1189310
  53.3746850  17.5621860  24.4423730  53.0365930  17.4109110  25.9102580
  40.6850350  14.3155200  35.2679940  40.6419980  13.9448110  36.1494400
  40.8161360  15.2532770  35.4081760  44.3856380  15.8714790  30.8689660
  44.1447740  16.1389350  29.9820180  45.3259020  16.0420520  30.9240520
  46.5910800   2.3347480  34.6246170  46.5299690   2.9269310  35.3741580
  47.5311180   2.2273440  34.4796430  55.6460540  17.8909170  31.6700300
  55.1518820  18.2878040  30.9527430  55.0373830  17.2658380  32.0637580
  40.5238380  17.2617450  32.3877720  39.9298700  17.1302150  33.1267760
  40.5162220  16.4255590  31.9219820  50.8765380   2.7620550  31.9749470
  50.5478740   1.9472310  31.5951200  51.8247680   2.7190360  31.8515160
  53.3299990  18.5332590  28.9487040  52.8702960  19.2848400  28.5745060
  52.7012450  17.8139060  28.8901840  40.1550610  14.6275830  31.3385760
  39.4284670  14.0081120  31.2711710  40.2159760  15.0216440  30.4683840
  43.7595710  16.8420830  28.1235170  44.2760730  16.2308190  27.5983430
  44.4093090  17.3449610  28.6146180  46.4991210  17.7329320  28.9504150
  46.7869020  17.4783620  28.0737160  47.0114430  17.1806680  29.5409720
  52.2689290   2.1742620  27.5749750  52.7097380   2.1187720  26.7271350
  51.9996880   3.0900630  27.6459930  38.4380610  17.9450220  24.5482520
  38.2702650  17.3120900  25.2464410  37.5715120  18.1509620  24.1976710
  39.0608630   1.7767000  22.0514380  39.8187990   1.8895880  21.4778410
  38.5985800   2.6136200  22.0057810  45.6022440   3.8906270  25.0416690
  44.7896950   3.5163160  24.7012570  46.1064080   3.1351350  25.3437880
  40.0443310  16.6383450  21.9932660  39.5190930  17.0191480  21.2894620
  39.9687890  17.2634220  22.7142370  46.5663570  18.6545420  36.3172350
  47.4930880  18.4189690  36.3608310  46.5514000  19.4817420  35.8358380
  54.8008630  18.1970990  23.3146600  54.9760820  17.5108730  22.6707520
  54.1030200  18.7218040  22.9223270  42.6436280  18.5865830  20.8681910
  43.3755100  18.3025110  20.3205800  42.9029950  18.3479110  21.7581290
  41.8051070  14.7030560  20.8728240  41.1759950  15.1715660  21.4214070
  41.9198900  13.8579780  21.3074430  53.1341130  17.8815280  36.1413390
  53.9266450  17.3864510  35.9339350  53.4274280  18.5605420  36.7489000
  49.2600790   8.7536220   7.0229440  49.1794840   7.8390830   6.7521150
  48.8465210   9.2503290   6.3169150  47.3918830  10.5315240   8.9038710
  46.6160930  10.0515680   9.1937280  48.0431760   9.8520890   8.7294870
  41.4084660  10.8435050   9.7814470  40.5769540  10.5883760  10.1810980
  42.0165640  10.9145820  10.5172390  51.4126260  14.9375430   7.6837840
  50.9507790  14.1662670   8.0125010  52.2251810  14.9641500   8.1890290
  41.3885920  14.8775140   9.9772490  41.6913960  13.9872880   9.7982710
  42.1329510  15.4345360   9.7494740  39.8176610   5.8036940   3.5656860
  38.9293310   6.1452910   3.4636740  40.1017800   5.6037260   2.6737690
  37.7809620   8.4042590   9.4496560  38.3525730   7.6364790   9.4500200
  37.7811160   8.7031350   8.5403170  47.6389570  17.2233440   7.3041830
  47.0201010  17.6790940   6.7336270  48.4941350  17.3784900   6.9031530
  46.8327820  13.2072430   8.9108870  46.7636100  12.2662370   8.7498000
  47.5947680  13.2973840   9.4831440  39.0234490   3.8126950  11.2365490
  38.8437330   2.9152700  11.5168250  38.6214570   4.3598820  11.9112440
  47.8632990   6.0142810   9.1377800  48.2397810   5.1414690   9.0251470
  47.7652500   6.3501510   8.2468240  41.9938000   4.3868440   4.5995240
  42.1004750   5.2872170   4.9064000  41.0830360   4.3386410   4.3089890
  51.6457110   3.5093250   6.0706140  52.4666730   3.0189820   6.1131620
  51.6791190   4.0990910   6.8237980  39.6421160   6.3087450   9.8447830
  40.3231270   6.5725820  10.4635230  39.3269210   5.4688320  10.1785840
  43.8345730   7.3554810   8.9320420  44.3423950   7.8535780   9.5725440
  44.3658970   6.5790010   8.7559780  55.9356660   5.5260000  12.6349770
  55.2308830   5.9141710  12.1164880  56.2014580   6.2210290  13.2370700
  48.5052920  12.1072680   4.6973740  47.8870190  12.5722130   4.1336460
  49.0176170  12.8000160   5.1143250  43.3684680  11.6348550  11.3757340
  43.0354060  12.2617470  12.0178410  43.5451360  12.1610430  10.5959010
  51.8818590   5.4493630   8.8433680  51.1774160   5.7378520   9.4236790
  52.2430750   6.2593740   8.4833240  41.7997160   3.7063330  11.2054290
  42.1413970   4.5505380  10.9108160  40.8612970   3.8547070  11.3219630
  42.5803780  13.6029350  13.1906520  43.1977780  14.2780430  12.9090970
  41.7196900  14.0117330  13.0994020  37.8736120  12.7929210   2.0713370
  37.4964100  13.2816310   1.3398270  38.1309190  13.4654490   2.7019900
  53.4981370  15.0668760  11.1061160  52.8144890  15.7367870  11.0977830
  54.0375660  15.2649410  10.3406020  54.9505510   4.8948420   9.2342890
  54.0030420   4.9287400   9.3658320  55.2755500   5.7087370   9.6192250
  51.0340110  16.9112890   9.8206340  51.0467270  16.5075180   8.9528600
  50.4815330  17.6860180   9.7167770  52.3285530  13.6329110   4.9096510
  52.2181860  12.6903440   5.0345930  52.3253780  13.9944750   5.7959270
  50.4325550  11.8142730  11.1488950  50.8494340  11.6002840  10.3142410
  51.1565370  12.0715520  11.7197570  47.8705810   9.2594430   4.2659000
  46.9435090   9.1931810   4.4947470  48.0230630  10.1974560   4.1514240
  54.3787650  10.2129950  11.2405190  53.5506280  10.2823040  10.7655320
  54.9738130  10.7984260  10.7721020  51.9003100  10.8214730   4.7694250
  51.2815520  10.4834280   4.1220550  51.8827550  10.1774490   5.4773440
  51.3429660   6.9999270  12.1860060  50.9300840   7.8252980  12.4400050
  50.6105610   6.4144310  11.9936420  43.4762450   9.7859170   7.0478730
  43.0719450   9.0736420   6.5524630  43.5625570   9.4412410   7.9366770
  43.9444150  13.4726730   9.2117940  43.6472440  12.8672200   8.5325720
  44.8943970  13.5104040   9.1007300  42.1891070   6.5602380  10.8277770
  42.7405660   6.6697720  10.0531020  42.7034580   6.9339980  11.5433000
  52.0329760  17.0458600  12.8741040  51.5560320  17.8530790  12.6813650
  51.3491550  16.3936930  13.0267250  43.0362580  13.2108420  15.8625740
  42.1391110  13.4348390  16.1099140  43.0615450  13.3343360  14.9137140
  50.0767800  10.0601540   1.7767000  50.5161080   9.2223970   1.6304820
  50.7896220  10.6930940   1.8631140  41.8633800  10.0821740  14.4383110
  41.7241570  10.9544540  14.8070510  40.9815160   9.7394550  14.2931050
  48.1863180  14.9997610   5.7448240  48.6259090  15.7421940   5.3303630
  48.1250070  15.2424180   6.6687200  43.6614150  16.0243440  16.6468260
  43.6329580  16.4286390  15.7796690  43.4979120  15.0953800  16.4839860
  40.1767080   8.6804150   4.5485380  40.0564680   9.4066240   3.9366650
  39.8667970   7.9107060   4.0713290  55.6128970  16.8070540  17.9432430
  56.0888690  17.2853430  18.6221510  56.2336130  16.7388030  17.2177930
  37.8152450  11.8519290  10.3554020  37.8932870  11.9868060   9.4109740
  38.4294130  11.1435180  10.5482140  39.0600080  13.5519480   6.7660200
  38.6528160  13.6934070   5.9113800  39.9513090  13.2679640   6.5631410
  55.0162220  13.9983390  15.1032440  55.1425280  13.7595270  14.1849620
  55.0583600  13.1667930  15.5754520  48.8778960  17.7011390  13.6727250
  49.3923630  17.6119400  14.4749680  48.0348040  18.0471090  13.9655160
  50.8533360  17.9866730   3.1011250  50.6934500  17.6969670   3.9993080
  50.6880070  17.2106860   2.5656480  43.3321740  17.7665260   4.8782870
  43.1564220  16.8500800   4.6650670  42.4777480  18.1252550   5.1180670
  50.1209420  17.1217000   5.7357740  50.5766370  16.3406380   6.0496360
  50.4601940  17.8323820   6.2798920  54.8686230   6.0515850  16.0682180
  54.2530500   6.5595520  15.5397640  54.5482650   5.1514180  16.0108120
  37.8711970  12.8933460  12.8948480  38.0343010  12.4238820  12.0767850
  38.3364420  12.3857020  13.5597320  42.6430740   2.0239220   7.9309050
  42.1998890   2.8048760   7.5993570  43.2015730   2.3469110   8.6379990
  46.9300550   4.8907740  13.5344370  46.4679920   5.0990760  14.3464310
  46.5278660   4.0767090  13.2315040  51.9305060   6.1116690  14.6641030
  51.0798650   5.8122440  14.9850100  51.7706850   6.3558700  13.7524850
  49.0254770   7.6118440  16.7639820  49.3508180   6.7782190  16.4242050
  49.8135100   8.1346960  16.9118150  44.6806640   2.5686550   9.7898650
  44.9778970   3.4749380   9.7090670  45.2292200   2.0805330   9.1758220
  42.4344960   7.1472790   5.6590300  42.2085880   6.9309960   6.5636920
  41.6537490   7.5801250   5.3136270  49.6642720   7.1536160   4.2580950
  49.0651610   7.8771960   4.0744570  50.2122330   7.0912940   3.4757400
  44.8744170   8.0458370  16.3250570  44.7787770   7.1053100  16.1750970
  45.7176150   8.2673440  15.9298640  48.2707590   5.7899700   6.2884230
  48.6637160   6.1071900   5.4752920  48.6324440   4.9111580   6.4028750
  40.0054710   4.4572040  14.4784350  39.6118100   5.3047250  14.6857130
  39.3173110   3.8198410  14.6692990  46.5799760   4.5407010  17.5481090
  45.8898080   4.3479210  18.1827180  47.3232060   4.8241650  18.0805390
  37.3071760   2.3800500   8.5114430  37.0184810   2.9503360   9.2239410
  38.0517520   1.9004950   8.8745660  48.8562730   8.3805450  10.3835010
  48.1243850   8.8892260  10.7325110  48.4587070   7.5635430  10.0823790
  45.2940120   5.0559650   8.7887500  45.2976180   4.6149600   7.9392040
  46.1891240   5.3776980   8.8959320  41.1442500   4.9386140   7.7481710
  40.8042550   5.4161370   8.5048760  40.3819820   4.4851260   7.3882810
  45.3560270   6.0571730   1.7794260  45.4773090   6.0158210   2.7280080
  44.9708780   6.9195880   1.6240990  49.3188640   3.8339130   9.7957950
  49.3361380   4.2847780  10.6399800  49.0704220   2.9344770  10.0091390
  39.4450950  12.2684890  15.0544290  39.0605740  11.6278560  15.6527250
  39.7563140  12.9721010  15.6239020  45.5948090   9.1161430  10.5352910
  45.9618220   8.6420000  11.2814250  45.4053150   9.9903000  10.8761250
  38.4588580   3.8605120   6.6646380  38.1735500   3.4960790   7.5025000
  38.3967440   3.1285580   6.0509520  43.3847460   8.1570070  12.8537120
  43.0804530   9.0362050  13.0787480  44.3393920   8.2169860  12.8894560
  41.9129250  12.3631060   3.4503970  41.1391510  11.8228680   3.2902690
  42.6423880  11.8437670   3.1121730  52.6717230  11.3596420   9.2430360
  53.3916350  11.8551710   8.8526470  52.4699050  10.6814310   8.5984230
  48.1327170   2.7534380   3.3859750  47.3191780   2.2547550   3.3105060
  47.9389120   3.5932630   2.9696100  48.0536030  11.4305480  15.1299360
  47.9873340  10.5101150  14.8756950  47.4241170  11.5280920  15.8444000
  41.9566650  12.0311440   7.0882780  42.4745320  11.2279700   7.0339670
  41.5050670  11.9690580   7.9299610  46.8436150  13.2977720   2.3610080
  47.1851850  14.0419950   1.8653400  46.0148860  13.6108840   2.7234910
  39.4411190   8.9972810  14.0008480  39.0826130   9.6626660  14.5881820
  39.1465750   8.1656360  14.3721100  42.6424310   9.4557050  16.8848030
  42.3424450   9.6014230  15.9875850  43.4135550   8.8962340  16.7921420
  47.9852760  14.2526050  14.8803160  47.9997300  13.3207010  14.6622070
  47.2777860  14.3385810  15.5192930  54.1963970  10.8933390  14.2271740
  53.4712160  11.4862170  14.0301130  54.7239430  10.8856930  13.4285110
  54.1477080  15.2908130   3.8783900  53.5053240  14.6363750   4.1527620
  53.7607740  15.6963220   3.1024570  49.7263560  12.6193560   7.7255590
  50.0787380  12.0221690   7.0656960  48.8425890  12.2937790   7.8963840
  45.8126840  13.3791250   5.1326000  46.4997970  13.9260460   5.5133590
  45.0259260  13.9231980   5.1675610  45.1154050  10.3837280   4.7451360
  45.5716830  11.1942530   4.9711550  44.7642260  10.0660420   5.5769850
  47.4186660  15.8943620  11.9743660  48.0628880  16.1003000  12.6517080
  47.7816100  15.1332020  11.5214510  48.6918740  13.8975970  10.6921110
  49.3340970  13.1969130  10.8053280  49.2168090  14.6774410  10.5118000
  50.4656360  14.6970870  13.8957170  50.8012600  15.2837560  14.5735090
  49.5456700  14.5663580  14.1254960  38.0159760   2.4866050  14.6780580
  37.3018280   2.6862970  15.2833190  38.4354800   1.7105620  15.0495380
  52.1190710  12.0996530   2.0774410  51.8312410  12.5609220   2.8652290
  52.9142880  11.6394300   2.3458630  38.3032350  16.4746310  15.6647110
  38.4123470  15.5341050  15.5242500  37.6512910  16.7401060  15.0160840
  46.2944940  14.7462200  17.0645230  45.9741810  14.0271440  17.6090920
  45.6203300  15.4217270  17.1381290  44.3359110  15.5922650   2.0078380
  44.3269210  16.3252340   1.3922890  43.4157470  15.3454230   2.1005340
  39.9365750  10.8137540   2.7525140  39.3293700  11.5536440   2.7620440
  40.4115100  10.9036900   1.9263340  49.5098540   4.9788360  12.4282030
  49.8779360   4.1583570  12.7561600  48.6496740   5.0390250  12.8437680
  52.8760570   3.9345300   3.2369590  52.2473730   4.0390970   2.5227820
  52.3812490   4.1542080   4.0263470  44.8444600   6.2131250   4.6527470
  44.1360750   6.6817590   5.0941080  45.1289080   5.5553260   5.2872660
  46.4700530   7.6327950  12.6520000  46.9685780   8.1073770  13.3171850
  46.6123480   6.7091470  12.8590030  48.8760030   2.9381910   6.0923260
  48.7527810   2.9568040   5.1432770  49.8244590   2.9860850   6.2121660
  45.9636820  18.1737210   5.3651240  46.2178320  18.1358600   4.4430610
  45.0149300  18.0470540   5.3579490  43.0479620   4.5216330   2.0278180
  43.8970150   4.9586480   1.9618370  42.6810890   4.8336590   2.8550240
  53.6767390   3.8495910  13.4948390  53.1740990   4.5901310  13.8342200
  54.4924050   4.2379910  13.1785180  51.9689400   9.0929090   6.9409750
  51.0279540   9.1079320   7.1157440  52.2833470   8.3065050   7.3870050
  53.9714980  16.2637940   8.6164010  54.0962400  17.0869110   9.0887820
  54.8380540  16.0528670   8.2688160  41.4432510  18.3569150   8.2881140
  42.1794990  17.8084610   8.5589710  41.8273430  19.2225160   8.1487130
  38.3277990  14.4242720   4.1622650  37.4017770  14.6663860   4.1528060
  38.7934420  15.2516980   4.0407400  40.4490790  17.5415220  17.4766720
  41.2503520  17.8627270  17.8902120  39.9342610  17.1810800  18.1986630
  49.2855420  13.6495090  17.4242130  48.6793580  13.6726690  16.6837880
  48.9809530  12.9178130  17.9609380  50.7155790  17.3775380  16.0351540
  51.6677540  17.2933400  15.9851780  50.5684010  18.0417090  16.7085330
  38.1688600  10.0288680  16.4202770  38.6727620   9.4495960  16.9919000
  37.4296020  10.3128910  16.9579140  45.2226540  11.4359670  15.9538290
  44.4572210  12.0044670  15.8692960  45.4042500  11.1435880  15.0606520
  52.3649890  13.1665000  16.5113310  53.1059360  13.5040760  16.0080770
  51.6022570  13.3357060  15.9583080  40.2011680   8.1718270  17.3152840
  40.2417020   7.8732140  18.2238070  41.0557180   8.5725880  17.1560360
  43.9790070  10.7713820   2.4756350  44.4006490  10.6053690   3.3187740
  44.1040910   9.9614050   1.9811490  42.1417490   6.7510370  15.2827330
  41.6113950   6.2601320  14.6550670  42.8105560   7.1794570  14.7485260
  51.0395550  11.2179830  15.0468520  51.4536570  11.3724910  15.8958940
  50.1046550  11.3435050  15.2094300  51.5117720   8.5575990  17.0507670
  52.0938490   7.8028310  16.9628150  51.6879490   9.0883430  16.2739150
  42.6289790   3.7172740  15.3624620  42.5346660   3.0993490  14.6375490
  42.0487180   4.4439030  15.1354530  45.3951230   2.2745980  12.3952010
  44.9468530   2.2970240  11.5497560  44.7616430   1.8765000  12.9922310
  45.8010780  11.1700310  13.0164450  46.2198890  12.0133040  12.8440690
  44.8819410  11.3072350  12.7871230  48.1374680   8.9016490  14.4002290
  48.2570890   8.3057630  15.1397130  48.9968680   8.9386180  13.9803590
  50.4762580   9.4553680  12.9764800  49.9497800   9.9796300  12.3729940
  50.8193920  10.0881070  13.6074530  43.6518200  17.4753320  14.1322180
  43.1139290  18.1999380  13.8130880  43.9052160  16.9983660  13.3419520
  44.9043450   5.4437840  15.6578110  45.4943140   5.1353690  16.3455930
  44.0863690   4.9717590  15.8138010  49.7236880   5.0603650  15.8911130
  49.0352400   4.3985190  15.8261120  50.4442900   4.6141920  16.3359590
  46.5080410  18.7104530  14.3908830  46.4339110  19.6139670  14.6981200
  45.6059250  18.3916430  14.3630900  47.0565740  17.8763040   2.0135190
  47.9516530  18.2148010   2.0353950  47.0883370  17.1542450   1.3859470
  37.9107700  16.0379120   7.6942450  38.2410710  15.1700180   7.4621090
  38.3398700  16.2437640   8.5247410  42.5069620  14.3688130   5.3544420
  42.2065160  14.2453100   6.2548330  42.4007110  13.5096720   4.9460150
  38.3997910  16.9049710  10.4324080  37.9628900  17.0850510  11.2648230
  38.9675590  17.6624330  10.2905800  54.0360090  16.4066710  14.7201390
  53.4362080  16.4659270  13.9765310  54.1653990  15.4671690  14.8498240
  54.7318000  10.8932010   2.5605300  55.4936910  11.4628660   2.6664990
  54.7472370  10.3259210   3.3313610  38.2322340   9.4169940   6.7912960
  37.5771180   9.1481580   6.1472660  39.0700290   9.3074420   6.3414940
  55.7377970  11.7482110   7.4047230  56.1086800  10.9649430   6.9983200
  56.3779900  12.4371210   7.2264530  52.7211730  13.1318690  12.8177550
  51.9071570  13.5615850  13.0803340  53.1285930  13.7437100  12.2046600
  54.6802510   9.1235370   4.7107250  54.3046110   8.3563300   4.2788540
  53.9505630   9.5058070   5.1982180  39.2698270   9.8022510  11.3316300
  39.6371310   9.7149910  12.2112320  38.7009090   9.0389060  11.2323160
  54.0702130   8.2706890  14.3446770  53.8388220   8.0419640  13.4444720
  54.3306680   9.1906440  14.2991660  38.8214270   6.7131600  15.2374720
  37.9270320   6.6798360  15.5768430  39.3611820   6.9118390  16.0025970
  52.5090200   3.4963320  17.1226470  53.3860380   3.5046720  17.5060470
  52.5211040   2.7594160  16.5118820  37.4460420   6.6268870   2.7338290
  36.5424500   6.8899070   2.5589950  37.9301040   6.8980040   1.9538250
  53.9553470   7.3492860   8.0114490  54.4790950   6.8555510   7.3804660
  54.5412890   7.4843220   8.7562060  54.1343190   7.4332730  11.5334040
  53.1845900   7.3996270  11.6479030  54.3156200   8.3432840  11.2983810
  53.4453440   6.6066210   3.9506900  53.9412560   6.3737080   4.7355780
  53.2469510   5.7678050   3.5344540  54.8740600   5.2427160   6.4844580
  54.7639880   5.0883200   7.4226850  55.6348190   4.7148100   6.2419990
  55.8369360   3.8445740   2.3507430  55.0420860   3.7790860   2.8800340
  56.0412640   4.7796380   2.3392780  52.7787780  17.8837290   6.3445820
  53.3746850  17.5621860   5.6680240  53.0365930  17.4109110   7.1359090
  40.6850350  14.3155200  16.4936450  40.6419980  13.9448110  17.3750910
  40.8161360  15.2532770  16.6338270  44.3856380  15.8714790  12.0946170
  44.1447740  16.1389350  11.2076690  45.3259020  16.0420520  12.1497030
  46.5910800   2.3347480  15.8502680  46.5299690   2.9269310  16.5998090
  47.5311180   2.2273440  15.7052940  55.6460540  17.8909170  12.8956810
  55.1518820  18.2878040  12.1783940  55.0373830  17.2658380  13.2894090
  40.5238380  17.2617450  13.6134230  39.9298700  17.1302150  14.3524270
  40.5162220  16.4255590  13.1476330  50.8765380   2.7620550  13.2005980
  50.5478740   1.9472310  12.8207710  51.8247680   2.7190360  13.0771670
  53.3299990  18.5332590  10.1743550  52.8702960  19.2848400   9.8001570
  52.7012450  17.8139060  10.1158350  40.1550610  14.6275830  12.5642270
  39.4284670  14.0081120  12.4968220  40.2159760  15.0216440  11.6940350
  43.7595710  16.8420830   9.3491680  44.2760730  16.2308190   8.8239940
  44.4093090  17.3449610   9.8402690  46.4991210  17.7329320  10.1760660
  46.7869020  17.4783620   9.2993670  47.0114430  17.1806680  10.7666230
  52.2689290   2.1742620   8.8006260  52.7097380   2.1187720   7.9527860
  51.9996880   3.0900630   8.8716440  38.4380610  17.9450220   5.7739030
  38.2702650  17.3120900   6.4720920  37.5715120  18.1509620   5.4233220
  39.0608630   1.7767000   3.2770890  39.8187990   1.8895880   2.7034920
  38.5985800   2.6136200   3.2314320  45.6022440   3.8906270   6.2673200
  44.7896950   3.5163160   5.9269080  46.1064080   3.1351350   6.5694390
  40.0443310  16.6383450   3.2189170  39.5190930  17.0191480   2.5151130
  39.9687890  17.2634220   3.9398880  46.5663570  18.6545420  17.5428860
  47.4930880  18.4189690  17.5864820  46.5514000  19.4817420  17.0614890
  54.8008630  18.1970990   4.5403110  54.9760820  17.5108730   3.8964030
  54.1030200  18.7218040   4.1479780  42.6436280  18.5865830   2.0938420
  43.3755100  18.3025110   1.5462310  42.9029950  18.3479110   2.9837800
  41.8051070  14.7030560   2.0984750  41.1759950  15.1715660   2.6470580
  41.9198900  13.8579780   2.5330940  53.1341130  17.8815280  17.3669900
  53.9266450  17.3864510  17.1595860  53.4274280  18.5605420  17.9745510
  30.4857300  65.0766690  63.3459910  30.4051350  64.1621300  63.0751620
  30.0721720  65.5733760  62.6399620  28.6175340  66.8545710  65.2269180
  27.8417440  66.3746150  65.5167750  29.2688270  66.1751360  65.0525340
  22.6341170  67.1665520  66.1044940  21.8026050  66.9114230  66.5041450
  23.2422150  67.2376290  66.8402860  32.6382770  71.2605900  64.0068310
  32.1764300  70.4893140  64.3355480  33.4508320  71.2871970  64.5120760
  22.6142430  71.2005610  66.3002960  22.9170470  70.3103350  66.1213180
  23.3586020  71.7575830  66.0725210  21.0433120  62.1267410  59.8887330
  20.1549820  62.4683380  59.7867210  21.3274310  61.9267730  58.9968160
  19.0066130  64.7273060  65.7727030  19.5782240  63.9595260  65.7730670
  19.0067670  65.0261820  64.8633640  28.0584330  69.5302900  65.2339340
  27.9892610  68.5892840  65.0728470  28.8204190  69.6204310  65.8061910
  20.2491000  60.1357420  67.5595960  20.0693840  59.2383170  67.8398720
  19.8471080  60.6829290  68.2342910  29.0889500  62.3373280  65.4608270
  29.4654320  61.4645160  65.3481940  28.9909010  62.6731980  64.5698710
  23.2194510  60.7098910  60.9225710  23.3261260  61.6102640  61.2294470
  22.3086870  60.6616880  60.6320360  32.8713620  59.8323720  62.3936610
  33.6923240  59.3420290  62.4362090  32.9047700  60.4221380  63.1468450
  20.8677670  62.6317920  66.1678300  21.5487780  62.8956290  66.7865700
  20.5525720  61.7918790  66.5016310  25.0602240  63.6785280  65.2550890
  25.5680460  64.1766250  65.8955910  25.5915480  62.9020480  65.0790250
  37.1613170  61.8490470  68.9580240  36.4565340  62.2372180  68.4395350
  37.4271090  62.5440760  69.5601170  23.3438340  58.3183840  69.5214310
  23.3456780  58.8356230  68.7160210  22.5142650  57.8414020  69.4984240
  29.7309430  68.4303150  61.0204210  29.1126700  68.8952600  60.4566930
  30.2432680  69.1230630  61.4373720  24.5941190  67.9579020  67.6987810
  24.2610570  68.5847940  68.3408880  24.7707870  68.4840900  66.9189480
  33.1075100  61.7724100  65.1664150  32.4030670  62.0608990  65.7467260
  33.4687260  62.5824210  64.8063710  23.0253670  60.0293800  67.5284760
  23.3670480  60.8735850  67.2338630  22.0869480  60.1777540  67.6450100
  23.8060290  69.9259820  69.5136990  24.4234290  70.6010900  69.2321440
  22.9453410  70.3347800  69.4224490  19.0992630  69.1159680  58.3943840
  18.7220610  69.6046780  57.6628740  19.3565700  69.7884960  59.0250370
  34.7237880  71.3899230  67.4291630  34.0401400  72.0598340  67.4208300
  35.2632170  71.5879880  66.6636490  36.1762020  61.2178890  65.5573360
  35.2286930  61.2517870  65.6888790  36.5012010  62.0317840  65.9422720
  26.7081560  57.5176070  63.8529350  27.0156540  56.9622960  63.1364850
  25.7782260  57.6520530  63.6702340  33.5542040  69.9559580  61.2326980
  33.4438370  69.0133910  61.3576400  33.5510290  70.3175220  62.1189740
  31.6582060  68.1373200  67.4719420  32.0750850  67.9233310  66.6372880
  32.3821880  68.3945990  68.0428040  29.0962320  65.5824900  60.5889470
  28.1691600  65.5162280  60.8177940  29.2487140  66.5205030  60.4744710
  29.0831400  61.8541900  57.5856630  28.1435070  62.0155860  57.6709090
  29.4014660  62.5727580  57.0392620  35.6044160  66.5360420  67.5635660
  34.7762790  66.6053510  67.0885790  36.1994640  67.1214730  67.0951490
  33.1259610  67.1445200  61.0924720  32.5072030  66.8064750  60.4451020
  33.1084060  66.5004960  61.8003910  32.5686170  63.3229740  68.5090530
  32.1557350  64.1483450  68.7630520  31.8362120  62.7374780  68.3166890
  24.7018960  66.1089640  63.3709200  24.2975960  65.3966890  62.8755100
  24.7882080  65.7642880  64.2597240  25.1700660  69.7957200  65.5348410
  24.8728950  69.1902670  64.8556190  26.1200480  69.8334510  65.4237770
  23.4147580  62.8832850  67.1508240  23.9662170  62.9928190  66.3761490
  23.9291090  63.2570450  67.8663470  31.3024310  66.3832010  58.0997470
  31.7417590  65.5454440  57.9535290  32.0152730  67.0161410  58.1861610
  23.0890310  66.4052210  70.7613580  22.9498080  67.2775010  71.1300980
  22.2071670  66.0625020  70.6161520  29.4119690  71.3228080  62.0678710
  29.8515600  72.0652410  61.6534100  29.3506580  71.5654650  62.9917670
  34.8841450  57.6374820  56.4138510  34.5714110  57.7301650  57.3137580
  35.6453920  58.2155850  56.3635940  21.4023590  65.0034620  60.8715850
  21.2821190  65.7296710  60.2597120  21.0924480  64.2337530  60.3943760
  19.0408960  68.1749760  66.6784490  19.1189380  68.3098530  65.7340210
  19.6550640  67.4665650  66.8712610  20.2856590  69.8749950  63.0890670
  19.8784670  70.0164540  62.2344270  21.1769600  69.5910110  62.8861880
  36.2418730  70.3213860  71.4262910  36.3681790  70.0825740  70.5080090
  36.2840110  69.4898400  71.8984990  31.7816000  71.8184760  57.9839720
  31.0881160  71.8162050  57.3242000  32.5238860  71.3944080  57.5533890
  19.0968480  69.2163930  69.2178950  19.2599520  68.7469290  68.3998320
  19.5620930  68.7087490  69.8827790  23.8687250  58.3469690  64.2539520
  23.4255400  59.1279230  63.9224040  24.4272240  58.6699580  64.9610460
  28.1557060  61.2138210  69.8574840  27.6936430  61.4221230  70.6694780
  27.7535170  60.3997560  69.5545510  33.1561570  62.4347160  70.9871500
  32.3055160  62.1352910  71.3080570  32.9963360  62.6789170  70.0755320
  26.9846070  57.9680390  59.1345350  26.3600250  57.9640260  59.8598660
  26.8976190  57.1011350  58.7381320  25.9063150  58.8917020  66.1129120
  26.2035480  59.7979850  66.0321140  26.4548710  58.4035800  65.4988690
  23.6601470  63.4703260  61.9820770  23.4342390  63.2540430  62.8867390
  22.8794000  63.9031720  61.6366740  30.8899230  63.4766630  60.5811420
  30.2908120  64.2002430  60.3975040  31.4378840  63.4143410  59.7987870
  29.4964100  62.1130170  62.6114700  29.8893670  62.4302370  61.7983390
  29.8580950  61.2342050  62.7259220  21.2311220  60.7802510  70.8014820
  20.8374610  61.6277720  71.0087600  20.5429620  60.1428880  70.9923460
  18.5328270  58.7030970  64.8344900  18.2441320  59.2733830  65.5469880
  19.2774030  58.2235420  65.1976130  18.7198500  62.6451090  56.0447620
  18.6373170  63.5881850  56.1862610  18.3681560  62.5026000  55.1659970
  30.0819240  64.7035920  66.7065480  29.3500360  65.2122730  67.0555580
  29.6843580  63.8865900  66.4054260  26.5196630  61.3790120  65.1117970
  26.5232690  60.9380070  64.2622510  27.4147750  61.7007450  65.2189790
  22.3699010  61.2616610  64.0712180  22.0299060  61.7391840  64.8279230
  21.6076330  60.8081730  63.7113280  26.5816780  62.3802200  58.1024730
  26.7029600  62.3388680  59.0510550  26.1965290  63.2426350  57.9471460
  30.5445150  60.1569600  66.1188420  30.5617890  60.6078250  66.9630270
  30.2960730  59.2575240  66.3321860  25.5938280  64.6903340  57.5008030
  25.0255180  64.2421590  56.8743940  26.3027280  65.0496120  56.9673180
  20.6707460  68.5915360  71.3774760  20.2862250  67.9509030  71.9757720
  20.9819650  69.2951480  71.9469490  26.8204600  65.4391900  66.8583380
  27.1874730  64.9650470  67.6044720  26.6309660  66.3133470  67.1991720
  19.6845090  60.1835590  62.9876850  19.3992010  59.8191260  63.8255470
  19.6223950  59.4516050  62.3739990  24.6103970  64.4800540  69.1767590
  24.3061040  65.3592520  69.4017950  25.5650430  64.5400330  69.2125030
  23.1385760  68.6861530  59.7734440  22.3648020  68.1459150  59.6133160
  23.8680390  68.1668140  59.4352200  33.8973740  67.6826890  65.5660830
  34.6172860  68.1782180  65.1756940  33.6955560  67.0044780  64.9214700
  29.3583680  59.0764850  59.7090220  28.5448290  58.5778020  59.6335530
  29.1645630  59.9163100  59.2926570  29.2792540  67.7535950  71.4529830
  29.2129850  66.8331620  71.1987420  28.6497680  67.8511390  72.1674470
  32.0732070  63.4484500  58.0052380  32.9611690  63.7601730  57.8303720
  32.0437160  62.5756750  57.6132960  23.1823160  68.3541910  63.4113250
  23.7001830  67.5510170  63.3570140  22.7307180  68.2921050  64.2530080
  28.0692660  69.6208190  58.6840550  28.4108360  70.3650420  58.1883870
  27.2405370  69.9339310  59.0465380  20.6667700  65.3203280  70.3238950
  20.3082640  65.9857130  70.9112290  20.3722260  64.4886830  70.6951570
  29.2109270  70.5756520  71.2033630  29.2253810  69.6437480  70.9852540
  28.5034370  70.6616280  71.8423400  34.3446340  64.7596340  57.4732240
  34.2610060  65.1910560  56.6228680  35.0640530  65.2194690  57.9059060
  35.4220480  67.2163860  70.5502210  34.6968670  67.8092640  70.3531600
  35.9495940  67.2087400  69.7515580  35.3733590  71.6138600  60.2014370
  34.7309750  70.9594220  60.4758090  34.9864250  72.0193690  59.4255040
  30.9520070  68.9424030  64.0486060  31.3043890  68.3452160  63.3887430
  30.0682400  68.6168260  64.2194310  27.0383350  69.7021720  61.4556470
  27.7254480  70.2490930  61.8364060  26.2515770  70.2462450  61.4906080
  19.1775750  65.3194540  56.9473550  20.0470600  65.6019340  57.2309470
  18.6866070  66.1330410  56.8322360  26.3410560  66.7067750  61.0681830
  26.7973340  67.5173000  61.2942020  25.9898770  66.3890890  61.9000320
  28.6443170  72.2174090  68.2974130  29.2885390  72.4233470  68.9747550
  29.0072610  71.4562490  67.8444980  22.2422340  57.0505400  61.5404350
  22.1136970  57.0423300  62.4889270  21.4184360  57.3888490  61.1895360
  29.9175250  70.2206440  67.0151580  30.5597480  69.5199600  67.1283750
  30.4424600  71.0004880  66.8348470  33.7630970  70.5055060  56.7390720
  33.5368550  69.7885500  57.3315360  33.3727170  70.2567500  55.9012470
  31.6912870  71.0201340  70.2187640  32.0269110  71.6068030  70.8965560
  30.7713210  70.8894050  70.4485430  19.2416270  58.8096520  71.0011050
  18.5274790  59.0093440  71.6063660  19.6611310  58.0336090  71.3725850
  33.3447220  68.4227000  58.4004880  33.0568920  68.8839690  59.1882760
  34.1399390  67.9624770  58.6689100  19.5288860  72.7976780  71.9877580
  19.6379980  71.8571520  71.8472970  18.8769420  73.0631530  71.3391310
  25.5615620  71.9153120  58.3308850  25.5525720  72.6482810  57.7153360
  24.6413980  71.6684700  58.4235810  21.1622260  67.1368010  59.0755610
  20.5550210  67.8766910  59.0850910  21.6371610  67.2267370  58.2493810
  30.7355050  61.3018830  68.7512500  31.1035870  60.4814040  69.0792070
  29.8753250  61.3620720  69.1668150  34.1017080  60.2575770  59.5600060
  33.4730240  60.3621440  58.8458290  33.6069000  60.4772550  60.3493940
  28.5475220  71.9781360  56.9934040  28.6487200  71.7745350  56.0636020
  27.6476960  71.7239640  57.1981820  26.0701110  62.5361720  60.9757940
  25.3617260  63.0048060  61.4171550  26.3545590  61.8783730  61.6103130
  27.6957040  63.9558420  68.9750470  28.1942290  64.4304240  69.6402320
  27.8379990  63.0321940  69.1820500  30.1016540  59.2612380  62.4153730
  29.9784320  59.2798510  61.4663240  31.0501100  59.3091320  62.5352130
  24.2736130  60.8446800  58.3508650  25.1226660  61.2816950  58.2848840
  23.9067400  61.1567060  59.1780710  34.9023900  60.1726380  69.8178860
  34.3997500  60.9131780  70.1572670  35.7180560  60.5610380  69.5015650
  33.1945910  65.4159560  63.2640220  32.2536050  65.4309790  63.4387910
  33.5089980  64.6295520  63.7100520  23.1727550  67.0979160  56.8244180
  23.9390820  66.9860520  57.3869610  23.2502240  66.4017130  56.1720950
  21.8674310  64.5304230  57.5077070  21.9477900  63.5831740  57.6194470
  22.7594060  64.8611110  57.6137730  35.1971490  72.5868410  64.9394480
  35.3218910  73.4099580  65.4118290  36.0637050  72.3759140  64.5918630
  19.5534500  70.7473190  60.4853120  18.6274280  70.9894330  60.4758530
  20.0190930  71.5747450  60.3637870  26.2968730  69.0733340  56.2979530
  26.1919370  68.4585690  57.0240910  26.1292950  68.5499230  55.5142540
  29.5371460  68.1353370  56.9021520  28.9881560  68.5822670  57.5464260
  30.1590720  67.6302620  57.4259190  25.2046580  67.0944290  58.7986820
  25.6263000  66.9284160  59.6418210  25.3297420  66.2844520  58.3041960
  23.3674000  63.0740840  71.6057800  22.8370460  62.5831790  70.9781140
  24.0362070  63.5025040  71.0715730  27.7174220  66.1181900  56.0463920
  28.2379880  65.4030920  55.6805070  28.3642620  66.7567770  56.3464430
  32.2652060  67.5410300  71.3698990  32.6793080  67.6955380  72.2189410
  31.3303060  67.6665520  71.5324770  23.8546300  60.0403210  71.6855090
  23.7603170  59.4223960  70.9605960  23.2743690  60.7669500  71.4585000
  26.6207740  58.5976450  68.7182480  26.1725040  58.6200710  67.8728030
  25.9872940  58.1995470  69.3152780  27.0267290  67.4930780  69.3394920
  27.4455400  68.3363510  69.1671160  26.1075920  67.6302820  69.1101700
  29.3631190  65.2246960  70.7232760  29.4827400  64.6288100  71.4627600
  30.2225190  65.2616650  70.3034060  31.7019090  65.7784150  69.2995270
  31.1754310  66.3026770  68.6960410  32.0450430  66.4111540  69.9305000
  24.1005480  63.1677520  55.7444980  23.8994540  62.3044880  56.1058320
  23.9297530  63.0810880  54.8066580  31.5793790  57.9785750  58.2731860
  31.8596080  57.1353650  58.6291280  30.8059520  58.2108860  58.7870610
  22.8988280  60.2678140  55.7322860  23.2014180  60.2745570  54.8242010
  23.6382870  59.9176000  56.2290520  26.1173210  59.2112760  56.7179060
  25.7695210  58.5336750  56.1381510  26.3185980  58.7502270  57.5322450
  21.9218410  69.5720560  56.5652660  22.3593280  70.1150230  57.2210240
  22.4066140  68.7467510  56.5749000  19.1364210  72.3609590  64.0172920
  19.4667220  71.4930650  63.7851560  19.5655210  72.5668110  64.8477880
  23.7326130  70.6918600  61.6774890  23.4321670  70.5683570  62.5778800
  23.6263620  69.8327190  61.2690620  35.2616600  72.7297180  71.0431860
  34.6618590  72.7889740  70.2995780  35.3910500  71.7902160  71.1728710
  36.5018050  70.4715000  56.3801570  35.6711010  70.5391650  56.8508800
  36.6789880  71.3619120  56.0768430  35.9574510  67.2162480  58.8835770
  36.7193420  67.7859130  58.9895460  35.9728880  66.6489680  59.6544080
  19.4578850  65.7400410  63.1143430  18.8027690  65.4712050  62.4703130
  20.2956800  65.6304890  62.6645410  36.9634480  68.0712580  63.7277700
  37.3343310  67.2879900  63.3213670  37.6036410  68.7601680  63.5495000
  33.9468240  69.4549160  69.1408020  33.1328080  69.8846320  69.4033810
  34.3542440  70.0667570  68.5277070  36.0093680  67.5096850  56.0408290
  36.2842520  68.4175730  55.9127510  35.8204420  67.4459380  56.9770280
  32.4069290  60.5341700  57.3361920  32.8254170  60.3472680  56.4958580
  32.1005350  59.6820750  57.6464850  35.9059020  65.4465840  61.0337720
  35.5302620  64.6793770  60.6019010  35.1762140  65.8288540  61.5212650
  20.4954780  66.1252980  67.6546770  20.8627820  66.0380380  68.5342790
  19.9265600  65.3619530  67.5553630  35.2958640  64.5937360  70.6677240
  35.0644730  64.3650110  69.7675190  35.5563190  65.5136910  70.6222130
  18.6716930  62.9499340  59.0568760  17.7681010  63.2129540  58.8820420
  19.1557550  63.2210510  58.2768720  35.1809980  63.6723330  64.3344960
  35.7047460  63.1785980  63.7035130  35.7669400  63.8073690  65.0792530
  35.3599700  63.7563200  67.8564510  34.4102410  63.7226740  67.9709500
  35.5412710  64.6663310  67.6214280  21.2144140  62.0064880  56.9663140
  21.9235840  61.5848100  56.4810420  20.4984080  62.0740110  56.3346490
  20.8618300  58.0604210  56.0065790  21.5846430  58.6013150  56.3247010
  21.1342820  57.7867630  55.1307330  34.6709950  62.9296680  60.2737370
  35.1669070  62.6967550  61.0586250  34.4726020  62.0908520  59.8575010
  20.5510490  57.3110400  65.9088410  21.1986680  56.7607780  65.4683570
  20.9712330  57.5653550  66.7304220  36.0997110  61.5657630  62.8075050
  35.9896390  61.4113670  63.7457320  36.8604700  61.0378570  62.5650460
  34.4462830  57.5051760  69.2658050  35.0835050  58.1185900  69.6317240
  34.5937720  57.5412420  68.3207280  36.9887380  59.3965550  56.0481190
  37.9136690  59.2646730  55.8399480  36.9663170  59.4758370  57.0017640
  37.0625870  60.1676210  58.6737900  36.2677370  60.1021330  59.2030810
  37.2669150  61.1026850  58.6623250  20.3042490  57.4666070  68.6513730
  19.9557310  57.9229890  69.4171910  19.9730190  56.5723200  68.7336160
  25.6112890  72.1945260  68.4176640  25.3704250  72.4619820  67.5307160
  26.5515530  72.3650990  68.4727500  21.7494890  73.5847920  69.9364700
  21.1555210  73.4532620  70.6754740  21.7418730  72.7486060  69.4706800
  31.1949910  56.8780150  68.1394730  30.3209750  57.2115260  67.9367660
  31.0860660  56.4053330  68.9646600  32.1021890  59.0851020  69.5236450
  31.7735250  58.2702780  69.1438180  33.0504190  59.0420830  69.4002140
  21.3807120  70.9506300  68.8872740  20.6541180  70.3311590  68.8198690
  21.4416270  71.3446910  68.0170820  24.9852220  73.1651300  65.6722150
  25.5017240  72.5538660  65.1470410  25.6349600  73.6680080  66.1633160
  28.9424730  57.7949990  67.0787640  28.1596520  58.2695490  67.3584400
  28.6487660  56.8904820  66.9700820  33.4945800  58.4973090  65.1236730
  33.9353890  58.4418190  64.2758330  33.2253390  59.4131100  65.1946910
  35.3584370  58.1288330  63.1345550  35.2972770  57.1849550  62.9876570
  36.1376400  58.2368420  63.6799010  20.2865140  58.0997470  59.6001360
  21.0444500  58.2126350  59.0265390  19.8242310  58.9366670  59.5544790
  26.8278950  60.2136740  62.5903670  26.0153460  59.8393630  62.2499550
  27.3320590  59.4581820  62.8924860  31.3303930  56.8779190  63.8286740
  31.9333300  57.4499400  64.3035260  30.5896920  57.4418630  63.6060640
  34.4738530  57.2800750  59.1027020  34.6689160  58.1784200  59.3694450
  33.6868400  57.0487830  59.5959970  21.2699820  72.9613920  59.5419640
  20.7447440  73.3421950  58.8381600  21.1944400  73.5864690  60.2629350
  22.6590290  58.6261520  58.1403330  23.1883050  57.8391320  58.0111280
  23.2918610  59.3052710  58.3738860  24.8528130  58.3636660  61.1948720
  24.2230870  57.6623970  61.3618850  24.3133270  59.1240790  60.9781880
  23.0307580  71.0261030  58.4215220  22.4016460  71.4946130  58.9701050
  23.1455410  70.1810250  58.8561410  30.4857300  65.0766690  44.5716420
  30.4051350  64.1621300  44.3008130  30.0721720  65.5733760  43.8656130
  28.6175340  66.8545710  46.4525690  27.8417440  66.3746150  46.7424260
  29.2688270  66.1751360  46.2781850  22.6341170  67.1665520  47.3301450
  21.8026050  66.9114230  47.7297960  23.2422150  67.2376290  48.0659370
  32.6382770  71.2605900  45.2324820  32.1764300  70.4893140  45.5611990
  33.4508320  71.2871970  45.7377270  22.6142430  71.2005610  47.5259470
  22.9170470  70.3103350  47.3469690  23.3586020  71.7575830  47.2981720
  21.0433120  62.1267410  41.1143840  20.1549820  62.4683380  41.0123720
  21.3274310  61.9267730  40.2224670  19.0066130  64.7273060  46.9983540
  19.5782240  63.9595260  46.9987180  19.0067670  65.0261820  46.0890150
  28.0584330  69.5302900  46.4595850  27.9892610  68.5892840  46.2984980
  28.8204190  69.6204310  47.0318420  20.2491000  60.1357420  48.7852470
  20.0693840  59.2383170  49.0655230  19.8471080  60.6829290  49.4599420
  29.0889500  62.3373280  46.6864780  29.4654320  61.4645160  46.5738450
  28.9909010  62.6731980  45.7955220  23.2194510  60.7098910  42.1482220
  23.3261260  61.6102640  42.4550980  22.3086870  60.6616880  41.8576870
  32.8713620  59.8323720  43.6193120  33.6923240  59.3420290  43.6618600
  32.9047700  60.4221380  44.3724960  20.8677670  62.6317920  47.3934810
  21.5487780  62.8956290  48.0122210  20.5525720  61.7918790  47.7272820
  25.0602240  63.6785280  46.4807400  25.5680460  64.1766250  47.1212420
  25.5915480  62.9020480  46.3046760  37.1613170  61.8490470  50.1836750
  36.4565340  62.2372180  49.6651860  37.4271090  62.5440760  50.7857680
  23.3438340  58.3183840  50.7470820  23.3456780  58.8356230  49.9416720
  22.5142650  57.8414020  50.7240750  29.7309430  68.4303150  42.2460720
  29.1126700  68.8952600  41.6823440  30.2432680  69.1230630  42.6630230
  24.5941190  67.9579020  48.9244320  24.2610570  68.5847940  49.5665390
  24.7707870  68.4840900  48.1445990  33.1075100  61.7724100  46.3920660
  32.4030670  62.0608990  46.9723770  33.4687260  62.5824210  46.0320220
  23.0253670  60.0293800  48.7541270  23.3670480  60.8735850  48.4595140
  22.0869480  60.1777540  48.8706610  23.8060290  69.9259820  50.7393500
  24.4234290  70.6010900  50.4577950  22.9453410  70.3347800  50.6481000
  19.0992630  69.1159680  39.6200350  18.7220610  69.6046780  38.8885250
  19.3565700  69.7884960  40.2506880  34.7237880  71.3899230  48.6548140
  34.0401400  72.0598340  48.6464810  35.2632170  71.5879880  47.8893000
  36.1762020  61.2178890  46.7829870  35.2286930  61.2517870  46.9145300
  36.5012010  62.0317840  47.1679230  26.7081560  57.5176070  45.0785860
  27.0156540  56.9622960  44.3621360  25.7782260  57.6520530  44.8958850
  33.5542040  69.9559580  42.4583490  33.4438370  69.0133910  42.5832910
  33.5510290  70.3175220  43.3446250  31.6582060  68.1373200  48.6975930
  32.0750850  67.9233310  47.8629390  32.3821880  68.3945990  49.2684550
  29.0962320  65.5824900  41.8145980  28.1691600  65.5162280  42.0434450
  29.2487140  66.5205030  41.7001220  29.0831400  61.8541900  38.8113140
  28.1435070  62.0155860  38.8965600  29.4014660  62.5727580  38.2649130
  35.6044160  66.5360420  48.7892170  34.7762790  66.6053510  48.3142300
  36.1994640  67.1214730  48.3208000  33.1259610  67.1445200  42.3181230
  32.5072030  66.8064750  41.6707530  33.1084060  66.5004960  43.0260420
  32.5686170  63.3229740  49.7347040  32.1557350  64.1483450  49.9887030
  31.8362120  62.7374780  49.5423400  24.7018960  66.1089640  44.5965710
  24.2975960  65.3966890  44.1011610  24.7882080  65.7642880  45.4853750
  25.1700660  69.7957200  46.7604920  24.8728950  69.1902670  46.0812700
  26.1200480  69.8334510  46.6494280  23.4147580  62.8832850  48.3764750
  23.9662170  62.9928190  47.6018000  23.9291090  63.2570450  49.0919980
  24.2619090  69.5338890  53.4112720  23.3647620  69.7578860  53.6586120
  24.2871960  69.6573830  52.4624120  31.3024310  66.3832010  39.3253980
  31.7417590  65.5454440  39.1791800  32.0152730  67.0161410  39.4118120
  23.0890310  66.4052210  51.9870090  22.9498080  67.2775010  52.3557490
  22.2071670  66.0625020  51.8418030  29.4119690  71.3228080  43.2935220
  29.8515600  72.0652410  42.8790610  29.3506580  71.5654650  44.2174180
  24.8870660  72.3473910  54.1955240  24.8586090  72.7516860  53.3283670
  24.7235630  71.4184270  54.0326840  34.8841450  57.6374820  37.6395020
  34.5714110  57.7301650  38.5394090  35.6453920  58.2155850  37.5892450
  21.4023590  65.0034620  42.0972360  21.2821190  65.7296710  41.4853630
  21.0924480  64.2337530  41.6200270  36.8385480  73.1301010  55.4919410
  37.3145200  73.6083900  56.1708490  37.4592640  73.0618500  54.7664910
  19.0408960  68.1749760  47.9041000  19.1189380  68.3098530  46.9596720
  19.6550640  67.4665650  48.0969120  20.2856590  69.8749950  44.3147180
  19.8784670  70.0164540  43.4600780  21.1769600  69.5910110  44.1118390
  36.2418730  70.3213860  52.6519420  36.3681790  70.0825740  51.7336600
  36.2840110  69.4898400  53.1241500  31.7816000  71.8184760  39.2096230
  31.0881160  71.8162050  38.5498510  32.5238860  71.3944080  38.7790400
  36.0942740  62.3746320  53.6169160  35.4787010  62.8825990  53.0884620
  35.7739160  61.4744650  53.5595100  19.0968480  69.2163930  50.4435460
  19.2599520  68.7469290  49.6254830  19.5620930  68.7087490  51.1084300
  23.8687250  58.3469690  45.4796030  23.4255400  59.1279230  45.1480550
  24.4272240  58.6699580  46.1866970  28.1557060  61.2138210  51.0831350
  27.6936430  61.4221230  51.8951290  27.7535170  60.3997560  50.7802020
  33.1561570  62.4347160  52.2128010  32.3055160  62.1352910  52.5337080
  32.9963360  62.6789170  51.3011830  30.2511280  63.9348910  54.3126800
  30.5764690  63.1012660  53.9729030  31.0391610  64.4577430  54.4605130
  26.9846070  57.9680390  40.3601860  26.3600250  57.9640260  41.0855170
  26.8976190  57.1011350  39.9637830  25.9063150  58.8917020  47.3385630
  26.2035480  59.7979850  47.2577650  26.4548710  58.4035800  46.7245200
  23.6601470  63.4703260  43.2077280  23.4342390  63.2540430  44.1123900
  22.8794000  63.9031720  42.8623250  30.8899230  63.4766630  41.8067930
  30.2908120  64.2002430  41.6231550  31.4378840  63.4143410  41.0244380
  26.1000680  64.3688840  53.8737550  26.0044280  63.4283570  53.7237950
  26.9432660  64.5903910  53.4785620  29.4964100  62.1130170  43.8371210
  29.8893670  62.4302370  43.0239900  29.8580950  61.2342050  43.9515730
  21.2311220  60.7802510  52.0271330  20.8374610  61.6277720  52.2344110
  20.5429620  60.1428880  52.2179970  27.8056270  60.8637480  55.0968070
  27.1154590  60.6709680  55.7314160  28.5488570  61.1472120  55.6292370
  18.5328270  58.7030970  46.0601410  18.2441320  59.2733830  46.7726390
  19.2774030  58.2235420  46.4232640  18.7198500  62.6451090  37.2704130
  18.6373170  63.5881850  37.4119120  18.3681560  62.5026000  36.3916480
  30.0819240  64.7035920  47.9321990  29.3500360  65.2122730  48.2812090
  29.6843580  63.8865900  47.6310770  26.5196630  61.3790120  46.3374480
  26.5232690  60.9380070  45.4879020  27.4147750  61.7007450  46.4446300
  22.3699010  61.2616610  45.2968690  22.0299060  61.7391840  46.0535740
  21.6076330  60.8081730  44.9369790  26.5816780  62.3802200  39.3281240
  26.7029600  62.3388680  40.2767060  26.1965290  63.2426350  39.1727970
  30.5445150  60.1569600  47.3444930  30.5617890  60.6078250  48.1886780
  30.2960730  59.2575240  47.5578370  25.5938280  64.6903340  38.7264540
  25.0255180  64.2421590  38.1000450  26.3027280  65.0496120  38.1929690
  33.9715900  57.5701780  53.1831310  34.2961670  56.8391440  53.7089290
  34.0072410  57.2515420  52.2812300  20.6707460  68.5915360  52.6031270
  20.2862250  67.9509030  53.2014230  20.9819650  69.2951480  53.1726000
  26.8204600  65.4391900  48.0839890  27.1874730  64.9650470  48.8301230
  26.6309660  66.3133470  48.4248230  19.6845090  60.1835590  44.2133360
  19.3992010  59.8191260  45.0511980  19.6223950  59.4516050  43.5996500
  24.6103970  64.4800540  50.4024100  24.3061040  65.3592520  50.6274460
  25.5650430  64.5400330  50.4381540  23.1385760  68.6861530  40.9990950
  22.3648020  68.1459150  40.8389670  23.8680390  68.1668140  40.6608710
  33.8973740  67.6826890  46.7917340  34.6172860  68.1782180  46.4013450
  33.6955560  67.0044780  46.1471210  29.3583680  59.0764850  40.9346730
  28.5448290  58.5778020  40.8592040  29.1645630  59.9163100  40.5183080
  29.2792540  67.7535950  52.6786340  29.2129850  66.8331620  52.4243930
  28.6497680  67.8511390  53.3930980  32.0732070  63.4484500  39.2308890
  32.9611690  63.7601730  39.0560230  32.0437160  62.5756750  38.8389470
  23.1823160  68.3541910  44.6369760  23.7001830  67.5510170  44.5826650
  22.7307180  68.2921050  45.4786590  28.0692660  69.6208190  39.9097060
  28.4108360  70.3650420  39.4140380  27.2405370  69.9339310  40.2721890
  20.6667700  65.3203280  51.5495460  20.3082640  65.9857130  52.1368800
  20.3722260  64.4886830  51.9208080  23.8680820  65.7787520  54.4335010
  23.5680960  65.9244700  53.5362830  24.6392060  65.2192810  54.3408400
  29.2109270  70.5756520  52.4290140  29.2253810  69.6437480  52.2109050
  28.5034370  70.6616280  53.0679910  34.3446340  64.7596340  38.6988750
  34.2610060  65.1910560  37.8485190  35.0640530  65.2194690  39.1315570
  35.4220480  67.2163860  51.7758720  34.6968670  67.8092640  51.5788110
  35.9495940  67.2087400  50.9772090  35.3733590  71.6138600  41.4270880
  34.7309750  70.9594220  41.7014600  34.9864250  72.0193690  40.6511550
  30.9520070  68.9424030  45.2742570  31.3043890  68.3452160  44.6143940
  30.0682400  68.6168260  45.4450820  27.0383350  69.7021720  42.6812980
  27.7254480  70.2490930  43.0620570  26.2515770  70.2462450  42.7162590
  19.1775750  65.3194540  38.1730060  20.0470600  65.6019340  38.4565980
  18.6866070  66.1330410  38.0578870  26.3410560  66.7067750  42.2938340
  26.7973340  67.5173000  42.5198530  25.9898770  66.3890890  43.1256830
  28.6443170  72.2174090  49.5230640  29.2885390  72.4233470  50.2004060
  29.0072610  71.4562490  49.0701490  22.2422340  57.0505400  42.7660860
  22.1136970  57.0423300  43.7145780  21.4184360  57.3888490  42.4151870
  29.9175250  70.2206440  48.2408090  30.5597480  69.5199600  48.3540260
  30.4424600  71.0004880  48.0604980  33.7630970  70.5055060  37.9647230
  33.5368550  69.7885500  38.5571870  33.3727170  70.2567500  37.1268980
  31.6912870  71.0201340  51.4444150  32.0269110  71.6068030  52.1222070
  30.7713210  70.8894050  51.6741940  19.2416270  58.8096520  52.2267560
  18.5274790  59.0093440  52.8320170  19.6611310  58.0336090  52.5982360
  33.3447220  68.4227000  39.6261390  33.0568920  68.8839690  40.4139270
  34.1399390  67.9624770  39.8945610  19.5288860  72.7976780  53.2134090
  19.6379980  71.8571520  53.0729480  18.8769420  73.0631530  52.5647820
  27.5201450  71.0692670  54.6132210  27.1998320  70.3501910  55.1577900
  26.8459810  71.7447740  54.6868270  25.5615620  71.9153120  39.5565360
  25.5525720  72.6482810  38.9409870  24.6413980  71.6684700  39.6492320
  21.1622260  67.1368010  40.3012120  20.5550210  67.8766910  40.3107420
  21.6371610  67.2267370  39.4750320  30.7355050  61.3018830  49.9769010
  31.1035870  60.4814040  50.3048580  29.8753250  61.3620720  50.3924660
  34.1017080  60.2575770  40.7856570  33.4730240  60.3621440  40.0714800
  33.6069000  60.4772550  41.5750450  28.5475220  71.9781360  38.2190550
  28.6487200  71.7745350  37.2892530  27.6476960  71.7239640  38.4238330
  26.0701110  62.5361720  42.2014450  25.3617260  63.0048060  42.6428060
  26.3545590  61.8783730  42.8359640  27.6957040  63.9558420  50.2006980
  28.1942290  64.4304240  50.8658830  27.8379990  63.0321940  50.4077010
  30.1016540  59.2612380  43.6410240  29.9784320  59.2798510  42.6919750
  31.0501100  59.3091320  43.7608640  24.2736130  60.8446800  39.5765160
  25.1226660  61.2816950  39.5105350  23.9067400  61.1567060  40.4037220
  34.9023900  60.1726380  51.0435370  34.3997500  60.9131780  51.3829180
  35.7180560  60.5610380  50.7272160  33.1945910  65.4159560  44.4896730
  32.2536050  65.4309790  44.6644420  33.5089980  64.6295520  44.9357030
  23.1727550  67.0979160  38.0500690  23.9390820  66.9860520  38.6126120
  23.2502240  66.4017130  37.3977460  21.8674310  64.5304230  38.7333580
  21.9477900  63.5831740  38.8450980  22.7594060  64.8611110  38.8394240
  35.1971490  72.5868410  46.1650990  35.3218910  73.4099580  46.6374800
  36.0637050  72.3759140  45.8175140  19.5534500  70.7473190  41.7109630
  18.6274280  70.9894330  41.7015040  20.0190930  71.5747450  41.5894380
  30.5111930  69.9725560  54.9729110  29.9050090  69.9957160  54.2324860
  30.2066040  69.2408600  55.5096360  19.3945110  66.3519150  53.9689750
  19.8984130  65.7726430  54.5405980  18.6552530  66.6359380  54.5066120
  26.2968730  69.0733340  37.5236040  26.1919370  68.4585690  38.2497420
  26.1292950  68.5499230  36.7399050  26.4483050  67.7590140  53.5025270
  25.6828720  68.3275140  53.4179940  26.6299010  67.4666350  52.6093500
  29.5371460  68.1353370  38.1278030  28.9881560  68.5822670  38.7720770
  30.1590720  67.6302620  38.6515700  33.5906400  69.4895470  54.0600290
  34.3315870  69.8271230  53.5567750  32.8279080  69.6587530  53.5070060
  21.4268190  64.4948740  54.8639820  21.4673530  64.1962610  55.7725050
  22.2813690  64.8956350  54.7047340  25.2046580  67.0944290  40.0243330
  25.6263000  66.9284160  40.8674720  25.3297420  66.2844520  39.5298470
  23.3674000  63.0740840  52.8314310  22.8370460  62.5831790  52.2037650
  24.0362070  63.5025040  52.2972240  27.7174220  66.1181900  37.2720430
  28.2379880  65.4030920  36.9061580  28.3642620  66.7567770  37.5720940
  32.2652060  67.5410300  52.5955500  32.6793080  67.6955380  53.4445920
  31.3303060  67.6665520  52.7581280  32.7374230  64.8806460  54.5994650
  33.3195000  64.1258780  54.5115130  32.9136000  65.4113900  53.8226130
  23.8546300  60.0403210  52.9111600  23.7603170  59.4223960  52.1862470
  23.2743690  60.7669500  52.6841510  26.6207740  58.5976450  49.9438990
  26.1725040  58.6200710  49.0984540  25.9872940  58.1995470  50.5409290
  27.0267290  67.4930780  50.5651430  27.4455400  68.3363510  50.3927670
  26.1075920  67.6302820  50.3358210  29.3631190  65.2246960  51.9489270
  29.4827400  64.6288100  52.6884110  30.2225190  65.2616650  51.5290570
  31.7019090  65.7784150  50.5251780  31.1754310  66.3026770  49.9216920
  32.0450430  66.4111540  51.1561510  24.1005480  63.1677520  36.9701490
  23.8994540  62.3044880  37.3314830  23.9297530  63.0810880  36.0323090
  26.1299960  61.7668310  53.2065090  26.7199650  61.4584160  53.8942910
  25.3120200  61.2948060  53.3624990  30.9493390  61.3834120  53.4398110
  30.2608910  60.7215660  53.3748100  31.6699410  60.9372390  53.8846570
  31.5793790  57.9785750  39.4988370  31.8596080  57.1353650  39.8547790
  30.8059520  58.2108860  40.0127120  22.8988280  60.2678140  36.9579370
  23.2014180  60.2745570  36.0498520  23.6382870  59.9176000  37.4547030
  26.1173210  59.2112760  37.9435570  25.7695210  58.5336750  37.3638020
  26.3185980  58.7502270  38.7578960  21.9218410  69.5720560  37.7909170
  22.3593280  70.1150230  38.4466750  22.4066140  68.7467510  37.8005510
  19.1364210  72.3609590  45.2429430  19.4667220  71.4930650  45.0108070
  19.5655210  72.5668110  46.0734390  23.7326130  70.6918600  42.9031400
  23.4321670  70.5683570  43.8035310  23.6263620  69.8327190  42.4947130
  35.2616600  72.7297180  52.2688370  34.6618590  72.7889740  51.5252290
  35.3910500  71.7902160  52.3985220  36.5018050  70.4715000  37.6058080
  35.6711010  70.5391650  38.0765310  36.6789880  71.3619120  37.3024940
  35.9574510  67.2162480  40.1092280  36.7193420  67.7859130  40.2151970
  35.9728880  66.6489680  40.8800590  19.4578850  65.7400410  44.3399940
  18.8027690  65.4712050  43.6959640  20.2956800  65.6304890  43.8901920
  36.9634480  68.0712580  44.9534210  37.3343310  67.2879900  44.5470180
  37.6036410  68.7601680  44.7751510  33.9468240  69.4549160  50.3664530
  33.1328080  69.8846320  50.6290320  34.3542440  70.0667570  49.7533580
  36.0093680  67.5096850  37.2664800  36.2842520  68.4175730  37.1384020
  35.8204420  67.4459380  38.2026790  32.4069290  60.5341700  38.5618430
  32.8254170  60.3472680  37.7215090  32.1005350  59.6820750  38.8721360
  35.9059020  65.4465840  42.2594230  35.5302620  64.6793770  41.8275520
  35.1762140  65.8288540  42.7469160  20.4954780  66.1252980  48.8803280
  20.8627820  66.0380380  49.7599300  19.9265600  65.3619530  48.7810140
  35.2958640  64.5937360  51.8933750  35.0644730  64.3650110  50.9931700
  35.5563190  65.5136910  51.8478640  20.0470780  63.0362070  52.7861700
  19.1526830  63.0028830  53.1255410  20.5868330  63.2348860  53.5512950
  33.7346710  59.8193790  54.6713450  34.6116890  59.8277190  55.0547450
  33.7467550  59.0824630  54.0605800  18.6716930  62.9499340  40.2825270
  17.7681010  63.2129540  40.1076930  19.1557550  63.2210510  39.5025230
  35.1809980  63.6723330  45.5601470  35.7047460  63.1785980  44.9291640
  35.7669400  63.8073690  46.3049040  35.3599700  63.7563200  49.0821020
  34.4102410  63.7226740  49.1966010  35.5412710  64.6663310  48.8470790
  21.2144140  62.0064880  38.1919650  21.9235840  61.5848100  37.7066930
  20.4984080  62.0740110  37.5603000  20.8618300  58.0604210  37.2322300
  21.5846430  58.6013150  37.5503520  21.1342820  57.7867630  36.3563840
  34.6709950  62.9296680  41.4993880  35.1669070  62.6967550  42.2842760
  34.4726020  62.0908520  41.0831520  20.5510490  57.3110400  47.1344920
  21.1986680  56.7607780  46.6940080  20.9712330  57.5653550  47.9560730
  36.0997110  61.5657630  44.0331560  35.9896390  61.4113670  44.9713830
  36.8604700  61.0378570  43.7906970  34.4462830  57.5051760  50.4914560
  35.0835050  58.1185900  50.8573750  34.5937720  57.5412420  49.5463790
  36.9887380  59.3965550  37.2737700  37.9136690  59.2646730  37.0655990
  36.9663170  59.4758370  38.2274150  37.0625870  60.1676210  39.8994410
  36.2677370  60.1021330  40.4287320  37.2669150  61.1026850  39.8879760
  20.3042490  57.4666070  49.8770240  19.9557310  57.9229890  50.6428420
  19.9730190  56.5723200  49.9592670  21.9106860  70.6385670  54.0423430
  21.8676490  70.2678580  54.9237890  22.0417870  71.5763240  54.1825250
  25.6112890  72.1945260  49.6433150  25.3704250  72.4619820  48.7563670
  26.5515530  72.3650990  49.6984010  27.8167310  58.6577950  53.3989660
  27.7556200  59.2499780  54.1485070  28.7567690  58.5503910  53.2539920
  30.4541870  58.3148010  53.0381950  31.0682280  58.6327300  52.3763030
  30.9991430  57.8296600  53.6577810  20.9763130  56.9942270  53.1521010
  21.5246120  56.8130320  52.3887120  21.0418440  56.2036380  53.6877320
  21.7494890  73.5847920  51.1621210  21.1555210  73.4532620  51.9011250
  21.7418730  72.7486060  50.6963310  31.1949910  56.8780150  49.3651240
  30.3209750  57.2115260  49.1624170  31.0860660  56.4053330  50.1903110
  32.1021890  59.0851020  50.7492960  31.7735250  58.2702780  50.3694690
  33.0504190  59.0420830  50.6258650  21.3807120  70.9506300  50.1129250
  20.6541180  70.3311590  50.0455200  21.4416270  71.3446910  49.2427330
  24.9852220  73.1651300  46.8978660  25.5017240  72.5538660  46.3726920
  25.6349600  73.6680080  47.3889670  28.9424730  57.7949990  48.3044150
  28.1596520  58.2695490  48.5840910  28.6487660  56.8904820  48.1957330
  33.4945800  58.4973090  46.3493240  33.9353890  58.4418190  45.5014840
  33.2253390  59.4131100  46.4203420  35.3584370  58.1288330  44.3602060
  35.2972770  57.1849550  44.2133080  36.1376400  58.2368420  44.9055520
  20.2865140  58.0997470  40.8257870  21.0444500  58.2126350  40.2521900
  19.8242310  58.9366670  40.7801300  26.8278950  60.2136740  43.8160180
  26.0153460  59.8393630  43.4756060  27.3320590  59.4581820  44.1181370
  31.3303930  56.8779190  45.0543250  31.9333300  57.4499400  45.5291770
  30.5896920  57.4418630  44.8317150  34.4738530  57.2800750  40.3283530
  34.6689160  58.1784200  40.5950960  33.6868400  57.0487830  40.8216480
  21.2699820  72.9613920  40.7676150  20.7447440  73.3421950  40.0638110
  21.1944400  73.5864690  41.4885860  22.6590290  58.6261520  39.3659840
  23.1883050  57.8391320  39.2367790  23.2918610  59.3052710  39.5995370
  24.8528130  58.3636660  42.4205230  24.2230870  57.6623970  42.5875360
  24.3133270  59.1240790  42.2038390  24.9783690  57.6420640  54.8557720
  24.6967960  58.1454240  54.0918540  25.3603390  56.8442390  54.4899850
  23.0307580  71.0261030  39.6471730  22.4016460  71.4946130  40.1957560
  23.1455410  70.1810250  40.0817920  31.5799150  57.0574220  55.4338190
  31.4664600  57.3768830  56.3289710  32.3968890  57.4586730  55.1375470
  30.4857300  65.0766690  25.7972930  30.4051350  64.1621300  25.5264640
  30.0721720  65.5733760  25.0912640  28.6175340  66.8545710  27.6782200
  27.8417440  66.3746150  27.9680770  29.2688270  66.1751360  27.5038360
  22.6341170  67.1665520  28.5557960  21.8026050  66.9114230  28.9554470
  23.2422150  67.2376290  29.2915880  32.6382770  71.2605900  26.4581330
  32.1764300  70.4893140  26.7868500  33.4508320  71.2871970  26.9633780
  22.6142430  71.2005610  28.7515980  22.9170470  70.3103350  28.5726200
  23.3586020  71.7575830  28.5238230  21.0433120  62.1267410  22.3400350
  20.1549820  62.4683380  22.2380230  21.3274310  61.9267730  21.4481180
  19.0066130  64.7273060  28.2240050  19.5782240  63.9595260  28.2243690
  19.0067670  65.0261820  27.3146660  28.0584330  69.5302900  27.6852360
  27.9892610  68.5892840  27.5241490  28.8204190  69.6204310  28.2574930
  20.2491000  60.1357420  30.0108980  20.0693840  59.2383170  30.2911740
  19.8471080  60.6829290  30.6855930  29.0889500  62.3373280  27.9121290
  29.4654320  61.4645160  27.7994960  28.9909010  62.6731980  27.0211730
  23.2194510  60.7098910  23.3738730  23.3261260  61.6102640  23.6807490
  22.3086870  60.6616880  23.0833380  32.8713620  59.8323720  24.8449630
  33.6923240  59.3420290  24.8875110  32.9047700  60.4221380  25.5981470
  20.8677670  62.6317920  28.6191320  21.5487780  62.8956290  29.2378720
  20.5525720  61.7918790  28.9529330  25.0602240  63.6785280  27.7063910
  25.5680460  64.1766250  28.3468930  25.5915480  62.9020480  27.5303270
  37.1613170  61.8490470  31.4093260  36.4565340  62.2372180  30.8908370
  37.4271090  62.5440760  32.0114190  23.3438340  58.3183840  31.9727330
  23.3456780  58.8356230  31.1673230  22.5142650  57.8414020  31.9497260
  29.7309430  68.4303150  23.4717230  29.1126700  68.8952600  22.9079950
  30.2432680  69.1230630  23.8886740  24.5941190  67.9579020  30.1500830
  24.2610570  68.5847940  30.7921900  24.7707870  68.4840900  29.3702500
  33.1075100  61.7724100  27.6177170  32.4030670  62.0608990  28.1980280
  33.4687260  62.5824210  27.2576730  23.0253670  60.0293800  29.9797780
  23.3670480  60.8735850  29.6851650  22.0869480  60.1777540  30.0963120
  23.8060290  69.9259820  31.9650010  24.4234290  70.6010900  31.6834460
  22.9453410  70.3347800  31.8737510  19.0992630  69.1159680  20.8456860
  18.7220610  69.6046780  20.1141760  19.3565700  69.7884960  21.4763390
  34.7237880  71.3899230  29.8804650  34.0401400  72.0598340  29.8721320
  35.2632170  71.5879880  29.1149510  36.1762020  61.2178890  28.0086380
  35.2286930  61.2517870  28.1401810  36.5012010  62.0317840  28.3935740
  26.7081560  57.5176070  26.3042370  27.0156540  56.9622960  25.5877870
  25.7782260  57.6520530  26.1215360  33.5542040  69.9559580  23.6840000
  33.4438370  69.0133910  23.8089420  33.5510290  70.3175220  24.5702760
  31.6582060  68.1373200  29.9232440  32.0750850  67.9233310  29.0885900
  32.3821880  68.3945990  30.4941060  29.0962320  65.5824900  23.0402490
  28.1691600  65.5162280  23.2690960  29.2487140  66.5205030  22.9257730
  29.0831400  61.8541900  20.0369650  28.1435070  62.0155860  20.1222110
  29.4014660  62.5727580  19.4905640  35.6044160  66.5360420  30.0148680
  34.7762790  66.6053510  29.5398810  36.1994640  67.1214730  29.5464510
  33.1259610  67.1445200  23.5437740  32.5072030  66.8064750  22.8964040
  33.1084060  66.5004960  24.2516930  32.5686170  63.3229740  30.9603550
  32.1557350  64.1483450  31.2143540  31.8362120  62.7374780  30.7679910
  24.7018960  66.1089640  25.8222220  24.2975960  65.3966890  25.3268120
  24.7882080  65.7642880  26.7110260  25.1700660  69.7957200  27.9861430
  24.8728950  69.1902670  27.3069210  26.1200480  69.8334510  27.8750790
  23.4147580  62.8832850  29.6021260  23.9662170  62.9928190  28.8274510
  23.9291090  63.2570450  30.3176490  24.2619090  69.5338890  34.6369230
  23.3647620  69.7578860  34.8842630  24.2871960  69.6573830  33.6880630
  31.3024310  66.3832010  20.5510490  31.7417590  65.5454440  20.4048310
  32.0152730  67.0161410  20.6374630  23.0890310  66.4052210  33.2126600
  22.9498080  67.2775010  33.5814000  22.2071670  66.0625020  33.0674540
  29.4119690  71.3228080  24.5191730  29.8515600  72.0652410  24.1047120
  29.3506580  71.5654650  25.4430690  24.8870660  72.3473910  35.4211750
  24.8586090  72.7516860  34.5540180  24.7235630  71.4184270  35.2583350
  34.8841450  57.6374820  18.8651530  34.5714110  57.7301650  19.7650600
  35.6453920  58.2155850  18.8148960  21.4023590  65.0034620  23.3228870
  21.2821190  65.7296710  22.7110140  21.0924480  64.2337530  22.8456780
  36.8385480  73.1301010  36.7175920  37.3145200  73.6083900  37.3965000
  37.4592640  73.0618500  35.9921420  19.0408960  68.1749760  29.1297510
  19.1189380  68.3098530  28.1853230  19.6550640  67.4665650  29.3225630
  20.2856590  69.8749950  25.5403690  19.8784670  70.0164540  24.6857290
  21.1769600  69.5910110  25.3374900  36.2418730  70.3213860  33.8775930
  36.3681790  70.0825740  32.9593110  36.2840110  69.4898400  34.3498010
  31.7816000  71.8184760  20.4352740  31.0881160  71.8162050  19.7755020
  32.5238860  71.3944080  20.0046910  36.0942740  62.3746320  34.8425670
  35.4787010  62.8825990  34.3141130  35.7739160  61.4744650  34.7851610
  19.0968480  69.2163930  31.6691970  19.2599520  68.7469290  30.8511340
  19.5620930  68.7087490  32.3340810  23.8687250  58.3469690  26.7052540
  23.4255400  59.1279230  26.3737060  24.4272240  58.6699580  27.4123480
  28.1557060  61.2138210  32.3087860  27.6936430  61.4221230  33.1207800
  27.7535170  60.3997560  32.0058530  33.1561570  62.4347160  33.4384520
  32.3055160  62.1352910  33.7593590  32.9963360  62.6789170  32.5268340
  30.2511280  63.9348910  35.5383310  30.5764690  63.1012660  35.1985540
  31.0391610  64.4577430  35.6861640  26.9846070  57.9680390  21.5858370
  26.3600250  57.9640260  22.3111680  26.8976190  57.1011350  21.1894340
  25.9063150  58.8917020  28.5642140  26.2035480  59.7979850  28.4834160
  26.4548710  58.4035800  27.9501710  23.6601470  63.4703260  24.4333790
  23.4342390  63.2540430  25.3380410  22.8794000  63.9031720  24.0879760
  30.8899230  63.4766630  23.0324440  30.2908120  64.2002430  22.8488060
  31.4378840  63.4143410  22.2500890  26.1000680  64.3688840  35.0994060
  26.0044280  63.4283570  34.9494460  26.9432660  64.5903910  34.7042130
  29.4964100  62.1130170  25.0627720  29.8893670  62.4302370  24.2496410
  29.8580950  61.2342050  25.1772240  21.2311220  60.7802510  33.2527840
  20.8374610  61.6277720  33.4600620  20.5429620  60.1428880  33.4436480
  27.8056270  60.8637480  36.3224580  27.1154590  60.6709680  36.9570670
  28.5488570  61.1472120  36.8548880  18.5328270  58.7030970  27.2857920
  18.2441320  59.2733830  27.9982900  19.2774030  58.2235420  27.6489150
  18.7198500  62.6451090  18.4960640  18.6373170  63.5881850  18.6375630
  18.3681560  62.5026000  17.6172990  30.0819240  64.7035920  29.1578500
  29.3500360  65.2122730  29.5068600  29.6843580  63.8865900  28.8567280
  26.5196630  61.3790120  27.5630990  26.5232690  60.9380070  26.7135530
  27.4147750  61.7007450  27.6702810  22.3699010  61.2616610  26.5225200
  22.0299060  61.7391840  27.2792250  21.6076330  60.8081730  26.1626300
  26.5816780  62.3802200  20.5537750  26.7029600  62.3388680  21.5023570
  26.1965290  63.2426350  20.3984480  30.5445150  60.1569600  28.5701440
  30.5617890  60.6078250  29.4143290  30.2960730  59.2575240  28.7834880
  25.5938280  64.6903340  19.9521050  25.0255180  64.2421590  19.3256960
  26.3027280  65.0496120  19.4186200  33.9715900  57.5701780  34.4087820
  34.2961670  56.8391440  34.9345800  34.0072410  57.2515420  33.5068810
  20.6707460  68.5915360  33.8287780  20.2862250  67.9509030  34.4270740
  20.9819650  69.2951480  34.3982510  26.8204600  65.4391900  29.3096400
  27.1874730  64.9650470  30.0557740  26.6309660  66.3133470  29.6504740
  19.6845090  60.1835590  25.4389870  19.3992010  59.8191260  26.2768490
  19.6223950  59.4516050  24.8253010  24.6103970  64.4800540  31.6280610
  24.3061040  65.3592520  31.8530970  25.5650430  64.5400330  31.6638050
  23.1385760  68.6861530  22.2247460  22.3648020  68.1459150  22.0646180
  23.8680390  68.1668140  21.8865220  33.8973740  67.6826890  28.0173850
  34.6172860  68.1782180  27.6269960  33.6955560  67.0044780  27.3727720
  29.3583680  59.0764850  22.1603240  28.5448290  58.5778020  22.0848550
  29.1645630  59.9163100  21.7439590  29.2792540  67.7535950  33.9042850
  29.2129850  66.8331620  33.6500440  28.6497680  67.8511390  34.6187490
  32.0732070  63.4484500  20.4565400  32.9611690  63.7601730  20.2816740
  32.0437160  62.5756750  20.0645980  23.1823160  68.3541910  25.8626270
  23.7001830  67.5510170  25.8083160  22.7307180  68.2921050  26.7043100
  28.0692660  69.6208190  21.1353570  28.4108360  70.3650420  20.6396890
  27.2405370  69.9339310  21.4978400  20.6667700  65.3203280  32.7751970
  20.3082640  65.9857130  33.3625310  20.3722260  64.4886830  33.1464590
  23.8680820  65.7787520  35.6591520  23.5680960  65.9244700  34.7619340
  24.6392060  65.2192810  35.5664910  29.2109270  70.5756520  33.6546650
  29.2253810  69.6437480  33.4365560  28.5034370  70.6616280  34.2936420
  34.3446340  64.7596340  19.9245260  34.2610060  65.1910560  19.0741700
  35.0640530  65.2194690  20.3572080  35.4220480  67.2163860  33.0015230
  34.6968670  67.8092640  32.8044620  35.9495940  67.2087400  32.2028600
  35.3733590  71.6138600  22.6527390  34.7309750  70.9594220  22.9271110
  34.9864250  72.0193690  21.8768060  30.9520070  68.9424030  26.4999080
  31.3043890  68.3452160  25.8400450  30.0682400  68.6168260  26.6707330
  27.0383350  69.7021720  23.9069490  27.7254480  70.2490930  24.2877080
  26.2515770  70.2462450  23.9419100  19.1775750  65.3194540  19.3986570
  20.0470600  65.6019340  19.6822490  18.6866070  66.1330410  19.2835380
  26.3410560  66.7067750  23.5194850  26.7973340  67.5173000  23.7455040
  25.9898770  66.3890890  24.3513340  28.6443170  72.2174090  30.7487150
  29.2885390  72.4233470  31.4260570  29.0072610  71.4562490  30.2958000
  22.2422340  57.0505400  23.9917370  22.1136970  57.0423300  24.9402290
  21.4184360  57.3888490  23.6408380  29.9175250  70.2206440  29.4664600
  30.5597480  69.5199600  29.5796770  30.4424600  71.0004880  29.2861490
  33.7630970  70.5055060  19.1903740  33.5368550  69.7885500  19.7828380
  33.3727170  70.2567500  18.3525490  31.6912870  71.0201340  32.6700660
  32.0269110  71.6068030  33.3478580  30.7713210  70.8894050  32.8998450
  19.2416270  58.8096520  33.4524070  18.5274790  59.0093440  34.0576680
  19.6611310  58.0336090  33.8238870  33.3447220  68.4227000  20.8517900
  33.0568920  68.8839690  21.6395780  34.1399390  67.9624770  21.1202120
  19.5288860  72.7976780  34.4390600  19.6379980  71.8571520  34.2985990
  18.8769420  73.0631530  33.7904330  27.5201450  71.0692670  35.8388720
  27.1998320  70.3501910  36.3834410  26.8459810  71.7447740  35.9124780
  25.5615620  71.9153120  20.7821870  25.5525720  72.6482810  20.1666380
  24.6413980  71.6684700  20.8748830  21.1622260  67.1368010  21.5268630
  20.5550210  67.8766910  21.5363930  21.6371610  67.2267370  20.7006830
  30.7355050  61.3018830  31.2025520  31.1035870  60.4814040  31.5305090
  29.8753250  61.3620720  31.6181170  34.1017080  60.2575770  22.0113080
  33.4730240  60.3621440  21.2971310  33.6069000  60.4772550  22.8006960
  28.5475220  71.9781360  19.4447060  28.6487200  71.7745350  18.5149040
  27.6476960  71.7239640  19.6494840  26.0701110  62.5361720  23.4270960
  25.3617260  63.0048060  23.8684570  26.3545590  61.8783730  24.0616150
  27.6957040  63.9558420  31.4263490  28.1942290  64.4304240  32.0915340
  27.8379990  63.0321940  31.6333520  30.1016540  59.2612380  24.8666750
  29.9784320  59.2798510  23.9176260  31.0501100  59.3091320  24.9865150
  24.2736130  60.8446800  20.8021670  25.1226660  61.2816950  20.7361860
  23.9067400  61.1567060  21.6293730  34.9023900  60.1726380  32.2691880
  34.3997500  60.9131780  32.6085690  35.7180560  60.5610380  31.9528670
  33.1945910  65.4159560  25.7153240  32.2536050  65.4309790  25.8900930
  33.5089980  64.6295520  26.1613540  23.1727550  67.0979160  19.2757200
  23.9390820  66.9860520  19.8382630  23.2502240  66.4017130  18.6233970
  21.8674310  64.5304230  19.9590090  21.9477900  63.5831740  20.0707490
  22.7594060  64.8611110  20.0650750  35.1971490  72.5868410  27.3907500
  35.3218910  73.4099580  27.8631310  36.0637050  72.3759140  27.0431650
  19.5534500  70.7473190  22.9366140  18.6274280  70.9894330  22.9271550
  20.0190930  71.5747450  22.8150890  30.5111930  69.9725560  36.1985620
  29.9050090  69.9957160  35.4581370  30.2066040  69.2408600  36.7352870
  19.3945110  66.3519150  35.1946260  19.8984130  65.7726430  35.7662490
  18.6552530  66.6359380  35.7322630  26.2968730  69.0733340  18.7492550
  26.1919370  68.4585690  19.4753930  26.1292950  68.5499230  17.9655560
  26.4483050  67.7590140  34.7281780  25.6828720  68.3275140  34.6436450
  26.6299010  67.4666350  33.8350010  29.5371460  68.1353370  19.3534540
  28.9881560  68.5822670  19.9977280  30.1590720  67.6302620  19.8772210
  33.5906400  69.4895470  35.2856800  34.3315870  69.8271230  34.7824260
  32.8279080  69.6587530  34.7326570  21.4268190  64.4948740  36.0896330
  21.4673530  64.1962610  36.9981560  22.2813690  64.8956350  35.9303850
  25.2046580  67.0944290  21.2499840  25.6263000  66.9284160  22.0931230
  25.3297420  66.2844520  20.7554980  23.3674000  63.0740840  34.0570820
  22.8370460  62.5831790  33.4294160  24.0362070  63.5025040  33.5228750
  27.7174220  66.1181900  18.4976940  28.2379880  65.4030920  18.1318090
  28.3642620  66.7567770  18.7977450  32.2652060  67.5410300  33.8212010
  32.6793080  67.6955380  34.6702430  31.3303060  67.6665520  33.9837790
  32.7374230  64.8806460  35.8251160  33.3195000  64.1258780  35.7371640
  32.9136000  65.4113900  35.0482640  23.8546300  60.0403210  34.1368110
  23.7603170  59.4223960  33.4118980  23.2743690  60.7669500  33.9098020
  26.6207740  58.5976450  31.1695500  26.1725040  58.6200710  30.3241050
  25.9872940  58.1995470  31.7665800  27.0267290  67.4930780  31.7907940
  27.4455400  68.3363510  31.6184180  26.1075920  67.6302820  31.5614720
  29.3631190  65.2246960  33.1745780  29.4827400  64.6288100  33.9140620
  30.2225190  65.2616650  32.7547080  31.7019090  65.7784150  31.7508290
  31.1754310  66.3026770  31.1473430  32.0450430  66.4111540  32.3818020
  24.1005480  63.1677520  18.1958000  23.8994540  62.3044880  18.5571340
  23.9297530  63.0810880  17.2579600  26.1299960  61.7668310  34.4321600
  26.7199650  61.4584160  35.1199420  25.3120200  61.2948060  34.5881500
  30.9493390  61.3834120  34.6654620  30.2608910  60.7215660  34.6004610
  31.6699410  60.9372390  35.1103080  31.5793790  57.9785750  20.7244880
  31.8596080  57.1353650  21.0804300  30.8059520  58.2108860  21.2383630
  22.8988280  60.2678140  18.1835880  23.2014180  60.2745570  17.2755030
  23.6382870  59.9176000  18.6803540  26.1173210  59.2112760  19.1692080
  25.7695210  58.5336750  18.5894530  26.3185980  58.7502270  19.9835470
  21.9218410  69.5720560  19.0165680  22.3593280  70.1150230  19.6723260
  22.4066140  68.7467510  19.0262020  19.1364210  72.3609590  26.4685940
  19.4667220  71.4930650  26.2364580  19.5655210  72.5668110  27.2990900
  23.7326130  70.6918600  24.1287910  23.4321670  70.5683570  25.0291820
  23.6263620  69.8327190  23.7203640  35.2616600  72.7297180  33.4944880
  34.6618590  72.7889740  32.7508800  35.3910500  71.7902160  33.6241730
  36.5018050  70.4715000  18.8314590  35.6711010  70.5391650  19.3021820
  36.6789880  71.3619120  18.5281450  35.9574510  67.2162480  21.3348790
  36.7193420  67.7859130  21.4408480  35.9728880  66.6489680  22.1057100
  19.4578850  65.7400410  25.5656450  18.8027690  65.4712050  24.9216150
  20.2956800  65.6304890  25.1158430  36.9634480  68.0712580  26.1790720
  37.3343310  67.2879900  25.7726690  37.6036410  68.7601680  26.0008020
  33.9468240  69.4549160  31.5921040  33.1328080  69.8846320  31.8546830
  34.3542440  70.0667570  30.9790090  36.0093680  67.5096850  18.4921310
  36.2842520  68.4175730  18.3640530  35.8204420  67.4459380  19.4283300
  32.4069290  60.5341700  19.7874940  32.8254170  60.3472680  18.9471600
  32.1005350  59.6820750  20.0977870  35.9059020  65.4465840  23.4850740
  35.5302620  64.6793770  23.0532030  35.1762140  65.8288540  23.9725670
  20.4954780  66.1252980  30.1059790  20.8627820  66.0380380  30.9855810
  19.9265600  65.3619530  30.0066650  35.2958640  64.5937360  33.1190260
  35.0644730  64.3650110  32.2188210  35.5563190  65.5136910  33.0735150
  20.0470780  63.0362070  34.0118210  19.1526830  63.0028830  34.3511920
  20.5868330  63.2348860  34.7769460  33.7346710  59.8193790  35.8969960
  34.6116890  59.8277190  36.2803960  33.7467550  59.0824630  35.2862310
  18.6716930  62.9499340  21.5081780  17.7681010  63.2129540  21.3333440
  19.1557550  63.2210510  20.7281740  35.1809980  63.6723330  26.7857980
  35.7047460  63.1785980  26.1548150  35.7669400  63.8073690  27.5305550
  35.3599700  63.7563200  30.3077530  34.4102410  63.7226740  30.4222520
  35.5412710  64.6663310  30.0727300  21.2144140  62.0064880  19.4176160
  21.9235840  61.5848100  18.9323440  20.4984080  62.0740110  18.7859510
  20.8618300  58.0604210  18.4578810  21.5846430  58.6013150  18.7760030
  21.1342820  57.7867630  17.5820350  34.6709950  62.9296680  22.7250390
  35.1669070  62.6967550  23.5099270  34.4726020  62.0908520  22.3088030
  20.5510490  57.3110400  28.3601430  21.1986680  56.7607780  27.9196590
  20.9712330  57.5653550  29.1817240  36.0997110  61.5657630  25.2588070
  35.9896390  61.4113670  26.1970340  36.8604700  61.0378570  25.0163480
  34.4462830  57.5051760  31.7171070  35.0835050  58.1185900  32.0830260
  34.5937720  57.5412420  30.7720300  36.9887380  59.3965550  18.4994210
  37.9136690  59.2646730  18.2912500  36.9663170  59.4758370  19.4530660
  37.0625870  60.1676210  21.1250920  36.2677370  60.1021330  21.6543830
  37.2669150  61.1026850  21.1136270  20.3042490  57.4666070  31.1026750
  19.9557310  57.9229890  31.8684930  19.9730190  56.5723200  31.1849180
  21.9106860  70.6385670  35.2679940  21.8676490  70.2678580  36.1494400
  22.0417870  71.5763240  35.4081760  25.6112890  72.1945260  30.8689660
  25.3704250  72.4619820  29.9820180  26.5515530  72.3650990  30.9240520
  27.8167310  58.6577950  34.6246170  27.7556200  59.2499780  35.3741580
  28.7567690  58.5503910  34.4796430  30.4541870  58.3148010  34.2638460
  31.0682280  58.6327300  33.6019540  30.9991430  57.8296600  34.8834320
  20.9763130  56.9942270  34.3777520  21.5246120  56.8130320  33.6143630
  21.0418440  56.2036380  34.9133830  21.7494890  73.5847920  32.3877720
  21.1555210  73.4532620  33.1267760  21.7418730  72.7486060  31.9219820
  31.1949910  56.8780150  30.5907750  30.3209750  57.2115260  30.3880680
  31.0860660  56.4053330  31.4159620  32.1021890  59.0851020  31.9749470
  31.7735250  58.2702780  31.5951200  33.0504190  59.0420830  31.8515160
  21.3807120  70.9506300  31.3385760  20.6541180  70.3311590  31.2711710
  21.4416270  71.3446910  30.4683840  24.9852220  73.1651300  28.1235170
  25.5017240  72.5538660  27.5983430  25.6349600  73.6680080  28.6146180
  28.9424730  57.7949990  29.5300660  28.1596520  58.2695490  29.8097420
  28.6487660  56.8904820  29.4213840  33.4945800  58.4973090  27.5749750
  33.9353890  58.4418190  26.7271350  33.2253390  59.4131100  27.6459930
  35.3584370  58.1288330  25.5858570  35.2972770  57.1849550  25.4389590
  36.1376400  58.2368420  26.1312030  20.2865140  58.0997470  22.0514380
  21.0444500  58.2126350  21.4778410  19.8242310  58.9366670  22.0057810
  26.8278950  60.2136740  25.0416690  26.0153460  59.8393630  24.7012570
  27.3320590  59.4581820  25.3437880  31.3303930  56.8779190  26.2799760
  31.9333300  57.4499400  26.7548280  30.5896920  57.4418630  26.0573660
  34.4738530  57.2800750  21.5540040  34.6689160  58.1784200  21.8207470
  33.6868400  57.0487830  22.0472990  21.2699820  72.9613920  21.9932660
  20.7447440  73.3421950  21.2894620  21.1944400  73.5864690  22.7142370
  22.6590290  58.6261520  20.5916350  23.1883050  57.8391320  20.4624300
  23.2918610  59.3052710  20.8251880  24.8528130  58.3636660  23.6461740
  24.2230870  57.6623970  23.8131870  24.3133270  59.1240790  23.4294900
  24.9783690  57.6420640  36.0814230  24.6967960  58.1454240  35.3175050
  25.3603390  56.8442390  35.7156360  23.0307580  71.0261030  20.8728240
  22.4016460  71.4946130  21.4214070  23.1455410  70.1810250  21.3074430
  31.5799150  57.0574220  36.6594700  31.4664600  57.3768830  37.5546220
  32.3968890  57.4586730  36.3631980  30.4857300  65.0766690   7.0229440
  30.4051350  64.1621300   6.7521150  30.0721720  65.5733760   6.3169150
  28.6175340  66.8545710   8.9038710  27.8417440  66.3746150   9.1937280
  29.2688270  66.1751360   8.7294870  22.6341170  67.1665520   9.7814470
  21.8026050  66.9114230  10.1810980  23.2422150  67.2376290  10.5172390
  32.6382770  71.2605900   7.6837840  32.1764300  70.4893140   8.0125010
  33.4508320  71.2871970   8.1890290  22.6142430  71.2005610   9.9772490
  22.9170470  70.3103350   9.7982710  23.3586020  71.7575830   9.7494740
  21.0433120  62.1267410   3.5656860  20.1549820  62.4683380   3.4636740
  21.3274310  61.9267730   2.6737690  19.0066130  64.7273060   9.4496560
  19.5782240  63.9595260   9.4500200  19.0067670  65.0261820   8.5403170
  28.0584330  69.5302900   8.9108870  27.9892610  68.5892840   8.7498000
  28.8204190  69.6204310   9.4831440  20.2491000  60.1357420  11.2365490
  20.0693840  59.2383170  11.5168250  19.8471080  60.6829290  11.9112440
  29.0889500  62.3373280   9.1377800  29.4654320  61.4645160   9.0251470
  28.9909010  62.6731980   8.2468240  23.2194510  60.7098910   4.5995240
  23.3261260  61.6102640   4.9064000  22.3086870  60.6616880   4.3089890
  32.8713620  59.8323720   6.0706140  33.6923240  59.3420290   6.1131620
  32.9047700  60.4221380   6.8237980  20.8677670  62.6317920   9.8447830
  21.5487780  62.8956290  10.4635230  20.5525720  61.7918790  10.1785840
  25.0602240  63.6785280   8.9320420  25.5680460  64.1766250   9.5725440
  25.5915480  62.9020480   8.7559780  37.1613170  61.8490470  12.6349770
  36.4565340  62.2372180  12.1164880  37.4271090  62.5440760  13.2370700
  23.3438340  58.3183840  13.1983840  23.3456780  58.8356230  12.3929740
  22.5142650  57.8414020  13.1753770  29.7309430  68.4303150   4.6973740
  29.1126700  68.8952600   4.1336460  30.2432680  69.1230630   5.1143250
  24.5941190  67.9579020  11.3757340  24.2610570  68.5847940  12.0178410
  24.7707870  68.4840900  10.5959010  33.1075100  61.7724100   8.8433680
  32.4030670  62.0608990   9.4236790  33.4687260  62.5824210   8.4833240
  23.0253670  60.0293800  11.2054290  23.3670480  60.8735850  10.9108160
  22.0869480  60.1777540  11.3219630  23.8060290  69.9259820  13.1906520
  24.4234290  70.6010900  12.9090970  22.9453410  70.3347800  13.0994020
  19.0992630  69.1159680   2.0713370  18.7220610  69.6046780   1.3398270
  19.3565700  69.7884960   2.7019900  34.7237880  71.3899230  11.1061160
  34.0401400  72.0598340  11.0977830  35.2632170  71.5879880  10.3406020
  36.1762020  61.2178890   9.2342890  35.2286930  61.2517870   9.3658320
  36.5012010  62.0317840   9.6192250  26.7081560  57.5176070   7.5298880
  27.0156540  56.9622960   6.8134380  25.7782260  57.6520530   7.3471870
  33.5542040  69.9559580   4.9096510  33.4438370  69.0133910   5.0345930
  33.5510290  70.3175220   5.7959270  31.6582060  68.1373200  11.1488950
  32.0750850  67.9233310  10.3142410  32.3821880  68.3945990  11.7197570
  29.0962320  65.5824900   4.2659000  28.1691600  65.5162280   4.4947470
  29.2487140  66.5205030   4.1514240  35.6044160  66.5360420  11.2405190
  34.7762790  66.6053510  10.7655320  36.1994640  67.1214730  10.7721020
  33.1259610  67.1445200   4.7694250  32.5072030  66.8064750   4.1220550
  33.1084060  66.5004960   5.4773440  32.5686170  63.3229740  12.1860060
  32.1557350  64.1483450  12.4400050  31.8362120  62.7374780  11.9936420
  24.7018960  66.1089640   7.0478730  24.2975960  65.3966890   6.5524630
  24.7882080  65.7642880   7.9366770  25.1700660  69.7957200   9.2117940
  24.8728950  69.1902670   8.5325720  26.1200480  69.8334510   9.1007300
  23.4147580  62.8832850  10.8277770  23.9662170  62.9928190  10.0531020
  23.9291090  63.2570450  11.5433000  24.2619090  69.5338890  15.8625740
  23.3647620  69.7578860  16.1099140  24.2871960  69.6573830  14.9137140
  31.3024310  66.3832010   1.7767000  31.7417590  65.5454440   1.6304820
  32.0152730  67.0161410   1.8631140  23.0890310  66.4052210  14.4383110
  22.9498080  67.2775010  14.8070510  22.2071670  66.0625020  14.2931050
  29.4119690  71.3228080   5.7448240  29.8515600  72.0652410   5.3303630
  29.3506580  71.5654650   6.6687200  24.8870660  72.3473910  16.6468260
  24.8586090  72.7516860  15.7796690  24.7235630  71.4184270  16.4839860
  21.4023590  65.0034620   4.5485380  21.2821190  65.7296710   3.9366650
  21.0924480  64.2337530   4.0713290  36.8385480  73.1301010  17.9432430
  37.3145200  73.6083900  18.6221510  37.4592640  73.0618500  17.2177930
  19.0408960  68.1749760  10.3554020  19.1189380  68.3098530   9.4109740
  19.6550640  67.4665650  10.5482140  20.2856590  69.8749950   6.7660200
  19.8784670  70.0164540   5.9113800  21.1769600  69.5910110   6.5631410
  36.2418730  70.3213860  15.1032440  36.3681790  70.0825740  14.1849620
  36.2840110  69.4898400  15.5754520  36.0942740  62.3746320  16.0682180
  35.4787010  62.8825990  15.5397640  35.7739160  61.4744650  16.0108120
  19.0968480  69.2163930  12.8948480  19.2599520  68.7469290  12.0767850
  19.5620930  68.7087490  13.5597320  23.8687250  58.3469690   7.9309050
  23.4255400  59.1279230   7.5993570  24.4272240  58.6699580   8.6379990
  28.1557060  61.2138210  13.5344370  27.6936430  61.4221230  14.3464310
  27.7535170  60.3997560  13.2315040  33.1561570  62.4347160  14.6641030
  32.3055160  62.1352910  14.9850100  32.9963360  62.6789170  13.7524850
  30.2511280  63.9348910  16.7639820  30.5764690  63.1012660  16.4242050
  31.0391610  64.4577430  16.9118150  26.9846070  57.9680390   2.8114880
  26.3600250  57.9640260   3.5368190  26.8976190  57.1011350   2.4150850
  25.9063150  58.8917020   9.7898650  26.2035480  59.7979850   9.7090670
  26.4548710  58.4035800   9.1758220  23.6601470  63.4703260   5.6590300
  23.4342390  63.2540430   6.5636920  22.8794000  63.9031720   5.3136270
  30.8899230  63.4766630   4.2580950  30.2908120  64.2002430   4.0744570
  31.4378840  63.4143410   3.4757400  26.1000680  64.3688840  16.3250570
  26.0044280  63.4283570  16.1750970  26.9432660  64.5903910  15.9298640
  29.4964100  62.1130170   6.2884230  29.8893670  62.4302370   5.4752920
  29.8580950  61.2342050   6.4028750  21.2311220  60.7802510  14.4784350
  20.8374610  61.6277720  14.6857130  20.5429620  60.1428880  14.6692990
  27.8056270  60.8637480  17.5481090  27.1154590  60.6709680  18.1827180
  28.5488570  61.1472120  18.0805390  18.5328270  58.7030970   8.5114430
  18.2441320  59.2733830   9.2239410  19.2774030  58.2235420   8.8745660
  30.0819240  64.7035920  10.3835010  29.3500360  65.2122730  10.7325110
  29.6843580  63.8865900  10.0823790  26.5196630  61.3790120   8.7887500
  26.5232690  60.9380070   7.9392040  27.4147750  61.7007450   8.8959320
  22.3699010  61.2616610   7.7481710  22.0299060  61.7391840   8.5048760
  21.6076330  60.8081730   7.3882810  26.5816780  62.3802200   1.7794260
  26.7029600  62.3388680   2.7280080  26.1965290  63.2426350   1.6240990
  30.5445150  60.1569600   9.7957950  30.5617890  60.6078250  10.6399800
  30.2960730  59.2575240  10.0091390  33.9715900  57.5701780  15.6344330
  34.2961670  56.8391440  16.1602310  34.0072410  57.2515420  14.7325320
  20.6707460  68.5915360  15.0544290  20.2862250  67.9509030  15.6527250
  20.9819650  69.2951480  15.6239020  26.8204600  65.4391900  10.5352910
  27.1874730  64.9650470  11.2814250  26.6309660  66.3133470  10.8761250
  19.6845090  60.1835590   6.6646380  19.3992010  59.8191260   7.5025000
  19.6223950  59.4516050   6.0509520  24.6103970  64.4800540  12.8537120
  24.3061040  65.3592520  13.0787480  25.5650430  64.5400330  12.8894560
  23.1385760  68.6861530   3.4503970  22.3648020  68.1459150   3.2902690
  23.8680390  68.1668140   3.1121730  33.8973740  67.6826890   9.2430360
  34.6172860  68.1782180   8.8526470  33.6955560  67.0044780   8.5984230
  29.3583680  59.0764850   3.3859750  28.5448290  58.5778020   3.3105060
  29.1645630  59.9163100   2.9696100  29.2792540  67.7535950  15.1299360
  29.2129850  66.8331620  14.8756950  28.6497680  67.8511390  15.8444000
  23.1823160  68.3541910   7.0882780  23.7001830  67.5510170   7.0339670
  22.7307180  68.2921050   7.9299610  28.0692660  69.6208190   2.3610080
  28.4108360  70.3650420   1.8653400  27.2405370  69.9339310   2.7234910
  20.6667700  65.3203280  14.0008480  20.3082640  65.9857130  14.5881820
  20.3722260  64.4886830  14.3721100  23.8680820  65.7787520  16.8848030
  23.5680960  65.9244700  15.9875850  24.6392060  65.2192810  16.7921420
  29.2109270  70.5756520  14.8803160  29.2253810  69.6437480  14.6622070
  28.5034370  70.6616280  15.5192930  35.4220480  67.2163860  14.2271740
  34.6968670  67.8092640  14.0301130  35.9495940  67.2087400  13.4285110
  35.3733590  71.6138600   3.8783900  34.7309750  70.9594220   4.1527620
  34.9864250  72.0193690   3.1024570  30.9520070  68.9424030   7.7255590
  31.3043890  68.3452160   7.0656960  30.0682400  68.6168260   7.8963840
  27.0383350  69.7021720   5.1326000  27.7254480  70.2490930   5.5133590
  26.2515770  70.2462450   5.1675610  26.3410560  66.7067750   4.7451360
  26.7973340  67.5173000   4.9711550  25.9898770  66.3890890   5.5769850
  28.6443170  72.2174090  11.9743660  29.2885390  72.4233470  12.6517080
  29.0072610  71.4562490  11.5214510  22.2422340  57.0505400   5.2173880
  22.1136970  57.0423300   6.1658800  21.4184360  57.3888490   4.8664890
  29.9175250  70.2206440  10.6921110  30.5597480  69.5199600  10.8053280
  30.4424600  71.0004880  10.5118000  31.6912870  71.0201340  13.8957170
  32.0269110  71.6068030  14.5735090  30.7713210  70.8894050  14.1254960
  19.2416270  58.8096520  14.6780580  18.5274790  59.0093440  15.2833190
  19.6611310  58.0336090  15.0495380  33.3447220  68.4227000   2.0774410
  33.0568920  68.8839690   2.8652290  34.1399390  67.9624770   2.3458630
  19.5288860  72.7976780  15.6647110  19.6379980  71.8571520  15.5242500
  18.8769420  73.0631530  15.0160840  27.5201450  71.0692670  17.0645230
  27.1998320  70.3501910  17.6090920  26.8459810  71.7447740  17.1381290
  25.5615620  71.9153120   2.0078380  25.5525720  72.6482810   1.3922890
  24.6413980  71.6684700   2.1005340  21.1622260  67.1368010   2.7525140
  20.5550210  67.8766910   2.7620440  21.6371610  67.2267370   1.9263340
  30.7355050  61.3018830  12.4282030  31.1035870  60.4814040  12.7561600
  29.8753250  61.3620720  12.8437680  34.1017080  60.2575770   3.2369590
  33.4730240  60.3621440   2.5227820  33.6069000  60.4772550   4.0263470
  26.0701110  62.5361720   4.6527470  25.3617260  63.0048060   5.0941080
  26.3545590  61.8783730   5.2872660  27.6957040  63.9558420  12.6520000
  28.1942290  64.4304240  13.3171850  27.8379990  63.0321940  12.8590030
  30.1016540  59.2612380   6.0923260  29.9784320  59.2798510   5.1432770
  31.0501100  59.3091320   6.2121660  24.2736130  60.8446800   2.0278180
  25.1226660  61.2816950   1.9618370  23.9067400  61.1567060   2.8550240
  34.9023900  60.1726380  13.4948390  34.3997500  60.9131780  13.8342200
  35.7180560  60.5610380  13.1785180  33.1945910  65.4159560   6.9409750
  32.2536050  65.4309790   7.1157440  33.5089980  64.6295520   7.3870050
  35.1971490  72.5868410   8.6164010  35.3218910  73.4099580   9.0887820
  36.0637050  72.3759140   8.2688160  19.5534500  70.7473190   4.1622650
  18.6274280  70.9894330   4.1528060  20.0190930  71.5747450   4.0407400
  30.5111930  69.9725560  17.4242130  29.9050090  69.9957160  16.6837880
  30.2066040  69.2408600  17.9609380  19.3945110  66.3519150  16.4202770
  19.8984130  65.7726430  16.9919000  18.6552530  66.6359380  16.9579140
  26.4483050  67.7590140  15.9538290  25.6828720  68.3275140  15.8692960
  26.6299010  67.4666350  15.0606520  33.5906400  69.4895470  16.5113310
  34.3315870  69.8271230  16.0080770  32.8279080  69.6587530  15.9583080
  21.4268190  64.4948740  17.3152840  21.4673530  64.1962610  18.2238070
  22.2813690  64.8956350  17.1560360  25.2046580  67.0944290   2.4756350
  25.6263000  66.9284160   3.3187740  25.3297420  66.2844520   1.9811490
  23.3674000  63.0740840  15.2827330  22.8370460  62.5831790  14.6550670
  24.0362070  63.5025040  14.7485260  32.2652060  67.5410300  15.0468520
  32.6793080  67.6955380  15.8958940  31.3303060  67.6665520  15.2094300
  32.7374230  64.8806460  17.0507670  33.3195000  64.1258780  16.9628150
  32.9136000  65.4113900  16.2739150  23.8546300  60.0403210  15.3624620
  23.7603170  59.4223960  14.6375490  23.2743690  60.7669500  15.1354530
  26.6207740  58.5976450  12.3952010  26.1725040  58.6200710  11.5497560
  25.9872940  58.1995470  12.9922310  27.0267290  67.4930780  13.0164450
  27.4455400  68.3363510  12.8440690  26.1075920  67.6302820  12.7871230
  29.3631190  65.2246960  14.4002290  29.4827400  64.6288100  15.1397130
  30.2225190  65.2616650  13.9803590  31.7019090  65.7784150  12.9764800
  31.1754310  66.3026770  12.3729940  32.0450430  66.4111540  13.6074530
  26.1299960  61.7668310  15.6578110  26.7199650  61.4584160  16.3455930
  25.3120200  61.2948060  15.8138010  30.9493390  61.3834120  15.8911130
  30.2608910  60.7215660  15.8261120  31.6699410  60.9372390  16.3359590
  31.5793790  57.9785750   1.9501390  31.8596080  57.1353650   2.3060810
  30.8059520  58.2108860   2.4640140  19.1364210  72.3609590   7.6942450
  19.4667220  71.4930650   7.4621090  19.5655210  72.5668110   8.5247410
  23.7326130  70.6918600   5.3544420  23.4321670  70.5683570   6.2548330
  23.6263620  69.8327190   4.9460150  35.2616600  72.7297180  14.7201390
  34.6618590  72.7889740  13.9765310  35.3910500  71.7902160  14.8498240
  35.9574510  67.2162480   2.5605300  36.7193420  67.7859130   2.6664990
  35.9728880  66.6489680   3.3313610  19.4578850  65.7400410   6.7912960
  18.8027690  65.4712050   6.1472660  20.2956800  65.6304890   6.3414940
  36.9634480  68.0712580   7.4047230  37.3343310  67.2879900   6.9983200
  37.6036410  68.7601680   7.2264530  33.9468240  69.4549160  12.8177550
  33.1328080  69.8846320  13.0803340  34.3542440  70.0667570  12.2046600
  35.9059020  65.4465840   4.7107250  35.5302620  64.6793770   4.2788540
  35.1762140  65.8288540   5.1982180  20.4954780  66.1252980  11.3316300
  20.8627820  66.0380380  12.2112320  19.9265600  65.3619530  11.2323160
  35.2958640  64.5937360  14.3446770  35.0644730  64.3650110  13.4444720
  35.5563190  65.5136910  14.2991660  20.0470780  63.0362070  15.2374720
  19.1526830  63.0028830  15.5768430  20.5868330  63.2348860  16.0025970
  33.7346710  59.8193790  17.1226470  34.6116890  59.8277190  17.5060470
  33.7467550  59.0824630  16.5118820  18.6716930  62.9499340   2.7338290
  17.7681010  63.2129540   2.5589950  19.1557550  63.2210510   1.9538250
  35.1809980  63.6723330   8.0114490  35.7047460  63.1785980   7.3804660
  35.7669400  63.8073690   8.7562060  35.3599700  63.7563200  11.5334040
  34.4102410  63.7226740  11.6479030  35.5412710  64.6663310  11.2983810
  34.6709950  62.9296680   3.9506900  35.1669070  62.6967550   4.7355780
  34.4726020  62.0908520   3.5344540  20.5510490  57.3110400   9.5857940
  21.1986680  56.7607780   9.1453100  20.9712330  57.5653550  10.4073750
  36.0997110  61.5657630   6.4844580  35.9896390  61.4113670   7.4226850
  36.8604700  61.0378570   6.2419990  34.4462830  57.5051760  12.9427580
  35.0835050  58.1185900  13.3086770  34.5937720  57.5412420  11.9976810
  37.0625870  60.1676210   2.3507430  36.2677370  60.1021330   2.8800340
  37.2669150  61.1026850   2.3392780  20.3042490  57.4666070  12.3283260
  19.9557310  57.9229890  13.0941440  19.9730190  56.5723200  12.4105690
  21.9106860  70.6385670  16.4936450  21.8676490  70.2678580  17.3750910
  22.0417870  71.5763240  16.6338270  25.6112890  72.1945260  12.0946170
  25.3704250  72.4619820  11.2076690  26.5515530  72.3650990  12.1497030
  27.8167310  58.6577950  15.8502680  27.7556200  59.2499780  16.5998090
  28.7567690  58.5503910  15.7052940  30.4541870  58.3148010  15.4894970
  31.0682280  58.6327300  14.8276050  30.9991430  57.8296600  16.1090830
  20.9763130  56.9942270  15.6034030  21.5246120  56.8130320  14.8400140
  21.0418440  56.2036380  16.1390340  21.7494890  73.5847920  13.6134230
  21.1555210  73.4532620  14.3524270  21.7418730  72.7486060  13.1476330
  31.1949910  56.8780150  11.8164260  30.3209750  57.2115260  11.6137190
  31.0860660  56.4053330  12.6416130  32.1021890  59.0851020  13.2005980
  31.7735250  58.2702780  12.8207710  33.0504190  59.0420830  13.0771670
  21.3807120  70.9506300  12.5642270  20.6541180  70.3311590  12.4968220
  21.4416270  71.3446910  11.6940350  24.9852220  73.1651300   9.3491680
  25.5017240  72.5538660   8.8239940  25.6349600  73.6680080   9.8402690
  28.9424730  57.7949990  10.7557170  28.1596520  58.2695490  11.0353930
  28.6487660  56.8904820  10.6470350  33.4945800  58.4973090   8.8006260
  33.9353890  58.4418190   7.9527860  33.2253390  59.4131100   8.8716440
  35.3584370  58.1288330   6.8115080  35.2972770  57.1849550   6.6646100
  36.1376400  58.2368420   7.3568540  20.2865140  58.0997470   3.2770890
  21.0444500  58.2126350   2.7034920  19.8242310  58.9366670   3.2314320
  26.8278950  60.2136740   6.2673200  26.0153460  59.8393630   5.9269080
  27.3320590  59.4581820   6.5694390  31.3303930  56.8779190   7.5056270
  31.9333300  57.4499400   7.9804790  30.5896920  57.4418630   7.2830170
  34.4738530  57.2800750   2.7796550  34.6689160  58.1784200   3.0463980
  33.6868400  57.0487830   3.2729500  21.2699820  72.9613920   3.2189170
  20.7447440  73.3421950   2.5151130  21.1944400  73.5864690   3.9398880
  22.6590290  58.6261520   1.8172860  23.1883050  57.8391320   1.6880810
  23.2918610  59.3052710   2.0508390  24.8528130  58.3636660   4.8718250
  24.2230870  57.6623970   5.0388380  24.3133270  59.1240790   4.6551410
  24.9783690  57.6420640  17.3070740  24.6967960  58.1454240  16.5431560
  25.3603390  56.8442390  16.9412870  23.0307580  71.0261030   2.0984750
  22.4016460  71.4946130   2.6470580  23.1455410  70.1810250   2.5330940
  31.5799150  57.0574220  17.8851210  31.4664600  57.3768830  18.7802730
  32.3968890  57.4586730  17.5888490  30.4857300  46.3023200  63.3459910
  30.4051350  45.3877810  63.0751620  30.0721720  46.7990270  62.6399620
  28.6175340  48.0802220  65.2269180  27.8417440  47.6002660  65.5167750
  29.2688270  47.4007870  65.0525340  22.6341170  48.3922030  66.1044940
  21.8026050  48.1370740  66.5041450  23.2422150  48.4632800  66.8402860
  32.6382770  52.4862410  64.0068310  32.1764300  51.7149650  64.3355480
  33.4508320  52.5128480  64.5120760  22.6142430  52.4262120  66.3002960
  22.9170470  51.5359860  66.1213180  23.3586020  52.9832340  66.0725210
  21.0433120  43.3523920  59.8887330  20.1549820  43.6939890  59.7867210
  21.3274310  43.1524240  58.9968160  19.0066130  45.9529570  65.7727030
  19.5782240  45.1851770  65.7730670  19.0067670  46.2518330  64.8633640
  28.8646080  54.7720420  63.6272300  28.2457520  55.2277920  63.0566740
  29.7197860  54.9271880  63.2262000  28.0584330  50.7559410  65.2339340
  27.9892610  49.8149350  65.0728470  28.8204190  50.8460820  65.8061910
  20.2491000  41.3613930  67.5595960  20.0693840  40.4639680  67.8398720
  19.8471080  41.9085800  68.2342910  29.0889500  43.5629790  65.4608270
  29.4654320  42.6901670  65.3481940  28.9909010  43.8988490  64.5698710
  23.2194510  41.9355420  60.9225710  23.3261260  42.8359150  61.2294470
  22.3086870  41.8873390  60.6320360  32.8713620  41.0580230  62.3936610
  33.6923240  40.5676800  62.4362090  32.9047700  41.6477890  63.1468450
  20.8677670  43.8574430  66.1678300  21.5487780  44.1212800  66.7865700
  20.5525720  43.0175300  66.5016310  25.0602240  44.9041790  65.2550890
  25.5680460  45.4022760  65.8955910  25.5915480  44.1276990  65.0790250
  37.1613170  43.0746980  68.9580240  36.4565340  43.4628690  68.4395350
  37.4271090  43.7697270  69.5601170  23.3438340  39.5440350  69.5214310
  23.3456780  40.0612740  68.7160210  22.5142650  39.0670530  69.4984240
  29.7309430  49.6559660  61.0204210  29.1126700  50.1209110  60.4566930
  30.2432680  50.3487140  61.4373720  24.5941190  49.1835530  67.6987810
  24.2610570  49.8104450  68.3408880  24.7707870  49.7097410  66.9189480
  33.1075100  42.9980610  65.1664150  32.4030670  43.2865500  65.7467260
  33.4687260  43.8080720  64.8063710  23.0253670  41.2550310  67.5284760
  23.3670480  42.0992360  67.2338630  22.0869480  41.4034050  67.6450100
  23.8060290  51.1516330  69.5136990  24.4234290  51.8267410  69.2321440
  22.9453410  51.5604310  69.4224490  19.0992630  50.3416190  58.3943840
  18.7220610  50.8303290  57.6628740  19.3565700  51.0141470  59.0250370
  34.7237880  52.6155740  67.4291630  34.0401400  53.2854850  67.4208300
  35.2632170  52.8136390  66.6636490  36.1762020  42.4435400  65.5573360
  35.2286930  42.4774380  65.6888790  36.5012010  43.2574350  65.9422720
  26.7081560  38.7432580  63.8529350  27.0156540  38.1879470  63.1364850
  25.7782260  38.8777040  63.6702340  32.2596620  54.4599870  66.1436810
  32.2723780  54.0562160  65.2759070  31.7071840  55.2347160  66.0398240
  33.5542040  51.1816090  61.2326980  33.4438370  50.2390420  61.3576400
  33.5510290  51.5431730  62.1189740  31.6582060  49.3629710  67.4719420
  32.0750850  49.1489820  66.6372880  32.3821880  49.6202500  68.0428040
  29.0962320  46.8081410  60.5889470  28.1691600  46.7418790  60.8177940
  29.2487140  47.7461540  60.4744710  29.0831400  43.0798410  57.5856630
  28.1435070  43.2412370  57.6709090  29.4014660  43.7984090  57.0392620
  35.6044160  47.7616930  67.5635660  34.7762790  47.8310020  67.0885790
  36.1994640  48.3471240  67.0951490  33.1259610  48.3701710  61.0924720
  32.5072030  48.0321260  60.4451020  33.1084060  47.7261470  61.8003910
  32.5686170  44.5486250  68.5090530  32.1557350  45.3739960  68.7630520
  31.8362120  43.9631290  68.3166890  24.7018960  47.3346150  63.3709200
  24.2975960  46.6223400  62.8755100  24.7882080  46.9899390  64.2597240
  25.1700660  51.0213710  65.5348410  24.8728950  50.4159180  64.8556190
  26.1200480  51.0591020  65.4237770  23.4147580  44.1089360  67.1508240
  23.9662170  44.2184700  66.3761490  23.9291090  44.4826960  67.8663470
  33.2586270  54.5945580  69.1971510  32.7816830  55.4017770  69.0044120
  32.5748060  53.9423910  69.3497720  31.3024310  47.6088520  58.0997470
  31.7417590  46.7710950  57.9535290  32.0152730  48.2417920  58.1861610
  23.0890310  47.6308720  70.7613580  22.9498080  48.5031520  71.1300980
  22.2071670  47.2881530  70.6161520  29.4119690  52.5484590  62.0678710
  29.8515600  53.2908920  61.6534100  29.3506580  52.7911160  62.9917670
  34.8841450  38.8631330  56.4138510  34.5714110  38.9558160  57.3137580
  35.6453920  39.4412360  56.3635940  21.4023590  46.2291130  60.8715850
  21.2821190  46.9553220  60.2597120  21.0924480  45.4594040  60.3943760
  19.0408960  49.4006270  66.6784490  19.1189380  49.5355040  65.7340210
  19.6550640  48.6922160  66.8712610  20.2856590  51.1006460  63.0890670
  19.8784670  51.2421050  62.2344270  21.1769600  50.8166620  62.8861880
  36.2418730  51.5470370  71.4262910  36.3681790  51.3082250  70.5080090
  36.2840110  50.7154910  71.8984990  30.1035470  55.2498370  69.9957720
  30.6180140  55.1606380  70.7980150  29.2604550  55.5958070  70.2885630
  32.0789870  55.5353710  59.4241720  31.9191010  55.2456650  60.3223550
  31.9136580  54.7593840  58.8886950  24.5578250  55.3152240  61.2013340
  24.3820730  54.3987780  60.9881140  23.7033990  55.6739530  61.4411140
  31.7816000  53.0441270  57.9839720  31.0881160  53.0418560  57.3242000
  32.5238860  52.6200590  57.5533890  31.3465930  54.6703980  62.0588210
  31.8022880  53.8893360  62.3726830  31.6858450  55.3810800  62.6029390
  19.0968480  50.4420440  69.2178950  19.2599520  49.9725800  68.3998320
  19.5620930  49.9344000  69.8827790  23.8687250  39.5726200  64.2539520
  23.4255400  40.3535740  63.9224040  24.4272240  39.8956090  64.9610460
  28.1557060  42.4394720  69.8574840  27.6936430  42.6477740  70.6694780
  27.7535170  41.6254070  69.5545510  33.1561570  43.6603670  70.9871500
  32.3055160  43.3609420  71.3080570  32.9963360  43.9045680  70.0755320
  26.9846070  39.1936900  59.1345350  26.3600250  39.1896770  59.8598660
  26.8976190  38.3267860  58.7381320  25.9063150  40.1173530  66.1129120
  26.2035480  41.0236360  66.0321140  26.4548710  39.6292310  65.4988690
  23.6601470  44.6959770  61.9820770  23.4342390  44.4796940  62.8867390
  22.8794000  45.1288230  61.6366740  30.8899230  44.7023140  60.5811420
  30.2908120  45.4258940  60.3975040  31.4378840  44.6399920  59.7987870
  29.4964100  43.3386680  62.6114700  29.8893670  43.6558880  61.7983390
  29.8580950  42.4598560  62.7259220  21.2311220  42.0059020  70.8014820
  20.8374610  42.8534230  71.0087600  20.5429620  41.3685390  70.9923460
  18.5328270  39.9287480  64.8344900  18.2441320  40.4990340  65.5469880
  19.2774030  39.4491930  65.1976130  18.7198500  43.8707600  56.0447620
  18.6373170  44.8138360  56.1862610  18.3681560  43.7282510  55.1659970
  30.0819240  45.9292430  66.7065480  29.3500360  46.4379240  67.0555580
  29.6843580  45.1122410  66.4054260  26.5196630  42.6046630  65.1117970
  26.5232690  42.1636580  64.2622510  27.4147750  42.9263960  65.2189790
  22.3699010  42.4873120  64.0712180  22.0299060  42.9648350  64.8279230
  21.6076330  42.0338240  63.7113280  26.5816780  43.6058710  58.1024730
  26.7029600  43.5645190  59.0510550  26.1965290  44.4682860  57.9471460
  30.5445150  41.3826110  66.1188420  30.5617890  41.8334760  66.9630270
  30.2960730  40.4831750  66.3321860  25.5938280  45.9159850  57.5008030
  25.0255180  45.4678100  56.8743940  26.3027280  46.2752630  56.9673180
  20.6707460  49.8171870  71.3774760  20.2862250  49.1765540  71.9757720
  20.9819650  50.5207990  71.9469490  26.8204600  46.6648410  66.8583380
  27.1874730  46.1906980  67.6044720  26.6309660  47.5389980  67.1991720
  19.6845090  41.4092100  62.9876850  19.3992010  41.0447770  63.8255470
  19.6223950  40.6772560  62.3739990  24.6103970  45.7057050  69.1767590
  24.3061040  46.5849030  69.4017950  25.5650430  45.7656840  69.2125030
  23.1385760  49.9118040  59.7734440  22.3648020  49.3715660  59.6133160
  23.8680390  49.3924650  59.4352200  33.8973740  48.9083400  65.5660830
  34.6172860  49.4038690  65.1756940  33.6955560  48.2301290  64.9214700
  29.3583680  40.3021360  59.7090220  28.5448290  39.8034530  59.6335530
  29.1645630  41.1419610  59.2926570  29.2792540  48.9792460  71.4529830
  29.2129850  48.0588130  71.1987420  28.6497680  49.0767900  72.1674470
  32.0732070  44.6741010  58.0052380  32.9611690  44.9858240  57.8303720
  32.0437160  43.8013260  57.6132960  23.1823160  49.5798420  63.4113250
  23.7001830  48.7766680  63.3570140  22.7307180  49.5177560  64.2530080
  28.0692660  50.8464700  58.6840550  28.4108360  51.5906930  58.1883870
  27.2405370  51.1595820  59.0465380  20.6667700  46.5459790  70.3238950
  20.3082640  47.2113640  70.9112290  20.3722260  45.7143340  70.6951570
  29.2109270  51.8013030  71.2033630  29.2253810  50.8693990  70.9852540
  28.5034370  51.8872790  71.8423400  34.3446340  45.9852850  57.4732240
  34.2610060  46.4167070  56.6228680  35.0640530  46.4451200  57.9059060
  35.4220480  48.4420370  70.5502210  34.6968670  49.0349150  70.3531600
  35.9495940  48.4343910  69.7515580  35.3733590  52.8395110  60.2014370
  34.7309750  52.1850730  60.4758090  34.9864250  53.2450200  59.4255040
  30.9520070  50.1680540  64.0486060  31.3043890  49.5708670  63.3887430
  30.0682400  49.8424770  64.2194310  27.0383350  50.9278230  61.4556470
  27.7254480  51.4747440  61.8364060  26.2515770  51.4718960  61.4906080
  19.1775750  46.5451050  56.9473550  20.0470600  46.8275850  57.2309470
  18.6866070  47.3586920  56.8322360  26.3410560  47.9324260  61.0681830
  26.7973340  48.7429510  61.2942020  25.9898770  47.6147400  61.9000320
  28.6443170  53.4430600  68.2974130  29.2885390  53.6489980  68.9747550
  29.0072610  52.6819000  67.8444980  22.2422340  38.2761910  61.5404350
  22.1136970  38.2679810  62.4889270  21.4184360  38.6145000  61.1895360
  29.9175250  51.4462950  67.0151580  30.5597480  50.7456110  67.1283750
  30.4424600  52.2261390  66.8348470  33.7630970  51.7311570  56.7390720
  33.5368550  51.0142010  57.3315360  33.3727170  51.4824010  55.9012470
  31.6912870  52.2457850  70.2187640  32.0269110  52.8324540  70.8965560
  30.7713210  52.1150560  70.4485430  19.5447000  55.7578430  57.5135180
  19.9044640  56.3567770  56.8592450  19.4039340  56.3038320  58.2870210
  19.2416270  40.0353030  71.0011050  18.5274790  40.2349950  71.6063660
  19.6611310  39.2592600  71.3725850  33.3447220  49.6483510  58.4004880
  33.0568920  50.1096200  59.1882760  34.1399390  49.1881280  58.6689100
  19.5288860  54.0233290  71.9877580  19.6379980  53.0828030  71.8472970
  18.8769420  54.2888040  71.3391310  25.5615620  53.1409630  58.3308850
  25.5525720  53.8739320  57.7153360  24.6413980  52.8941210  58.4235810
  21.1622260  48.3624520  59.0755610  20.5550210  49.1023420  59.0850910
  21.6371610  48.4523880  58.2493810  30.7355050  42.5275340  68.7512500
  31.1035870  41.7070550  69.0792070  29.8753250  42.5877230  69.1668150
  34.1017080  41.4832280  59.5600060  33.4730240  41.5877950  58.8458290
  33.6069000  41.7029060  60.3493940  28.5475220  53.2037870  56.9934040
  28.6487200  53.0001860  56.0636020  27.6476960  52.9496150  57.1981820
  26.0701110  43.7618230  60.9757940  25.3617260  44.2304570  61.4171550
  26.3545590  43.1040240  61.6103130  27.6957040  45.1814930  68.9750470
  28.1942290  45.6560750  69.6402320  27.8379990  44.2578450  69.1820500
  30.1016540  40.4868890  62.4153730  29.9784320  40.5055020  61.4663240
  31.0501100  40.5347830  62.5352130  27.1893330  55.7224190  61.6881710
  27.4434830  55.6845580  60.7661080  26.2405810  55.5957520  61.6809960
  24.2736130  42.0703310  58.3508650  25.1226660  42.5073460  58.2848840
  23.9067400  42.3823570  59.1780710  34.9023900  41.3982890  69.8178860
  34.3997500  42.1388290  70.1572670  35.7180560  41.7866890  69.5015650
  33.1945910  46.6416070  63.2640220  32.2536050  46.6566300  63.4387910
  33.5089980  45.8552030  63.7100520  23.1727550  48.3235670  56.8244180
  23.9390820  48.2117030  57.3869610  23.2502240  47.6273640  56.1720950
  21.8674310  45.7560740  57.5077070  21.9477900  44.8088250  57.6194470
  22.7594060  46.0867620  57.6137730  35.1971490  53.8124920  64.9394480
  35.3218910  54.6356090  65.4118290  36.0637050  53.6015650  64.5918630
  22.6689020  55.9056130  64.6111610  23.4051500  55.3571590  64.8820180
  23.0529940  56.7712140  64.4717600  19.5534500  51.9729700  60.4853120
  18.6274280  52.2150840  60.4758530  20.0190930  52.8003960  60.3637870
  25.7791330  55.0786440  56.4337180  26.5719940  55.3675270  55.9818970
  25.2595680  54.6478610  55.7549660  34.8321500  54.3056570  57.8573920
  34.5463010  53.8921710  57.0428100  34.6341050  55.2344280  57.7374440
  26.2968730  50.2989850  56.2979530  26.1919370  49.6842200  57.0240910
  26.1292950  49.7755740  55.5142540  29.5371460  49.3609880  56.9021520
  28.9881560  49.8079180  57.5464260  30.1590720  48.8559130  57.4259190
  25.2046580  48.3200800  58.7986820  25.6263000  48.1540670  59.6418210
  25.3297420  47.5101030  58.3041960  23.3674000  44.2997350  71.6057800
  22.8370460  43.8088300  70.9781140  24.0362070  44.7281550  71.0715730
  27.7174220  47.3438410  56.0463920  28.2379880  46.6287430  55.6805070
  28.3642620  47.9824280  56.3464430  32.2652060  48.7666810  71.3698990
  32.6793080  48.9211890  72.2189410  31.3303060  48.8922030  71.5324770
  23.8546300  41.2659720  71.6855090  23.7603170  40.6480470  70.9605960
  23.2743690  41.9926010  71.4585000  26.6207740  39.8232960  68.7182480
  26.1725040  39.8457220  67.8728030  25.9872940  39.4251980  69.3152780
  27.0267290  48.7187290  69.3394920  27.4455400  49.5620020  69.1671160
  26.1075920  48.8559330  69.1101700  29.3631190  46.4503470  70.7232760
  29.4827400  45.8544610  71.4627600  30.2225190  46.4873160  70.3034060
  31.7019090  47.0040660  69.2995270  31.1754310  47.5283280  68.6960410
  32.0450430  47.6368050  69.9305000  24.1005480  44.3934030  55.7444980
  23.8994540  43.5301390  56.1058320  23.9297530  44.3067390  54.8066580
  24.8774710  55.0240300  70.4552650  24.3395800  55.7486360  70.1361350
  25.1308670  54.5470640  69.6649990  31.5793790  39.2042260  58.2731860
  31.8596080  38.3610160  58.6291280  30.8059520  39.4365370  58.7870610
  22.8988280  41.4934650  55.7322860  23.2014180  41.5002080  54.8242010
  23.6382870  41.1432510  56.2290520  27.7336920  56.2591510  70.7139300
  27.6595620  57.1626650  71.0211670  26.8315760  55.9403410  70.6861370
  26.1173210  40.4369270  56.7179060  25.7695210  39.7593260  56.1381510
  26.3185980  39.9758780  57.5322450  28.2822250  55.4250020  58.3365660
  29.1773040  55.7634990  58.3584420  28.3139880  54.7029430  57.7089940
  21.9218410  50.7977070  56.5652660  22.3593280  51.3406740  57.2210240
  22.4066140  49.9724020  56.5749000  19.1364210  53.5866100  64.0172920
  19.4667220  52.7187160  63.7851560  19.5655210  53.7924620  64.8477880
  23.7326130  51.9175110  61.6774890  23.4321670  51.7940080  62.5778800
  23.6263620  51.0583700  61.2690620  19.6254420  54.4536690  66.7554550
  19.1885410  54.6337490  67.5878700  20.1932100  55.2111310  66.6136270
  35.2616600  53.9553690  71.0431860  34.6618590  54.0146250  70.2995780
  35.3910500  53.0158670  71.1728710  36.5018050  51.6971510  56.3801570
  35.6711010  51.7648160  56.8508800  36.6789880  52.5875630  56.0768430
  35.9574510  48.4418990  58.8835770  36.7193420  49.0115640  58.9895460
  35.9728880  47.8746190  59.6544080  19.4578850  46.9656920  63.1143430
  18.8027690  46.6968560  62.4703130  20.2956800  46.8561400  62.6645410
  36.9634480  49.2969090  63.7277700  37.3343310  48.5136410  63.3213670
  37.6036410  49.9858190  63.5495000  33.9468240  50.6805670  69.1408020
  33.1328080  51.1102830  69.4033810  34.3542440  51.2924080  68.5277070
  36.0093680  48.7353360  56.0408290  36.2842520  49.6432240  55.9127510
  35.8204420  48.6715890  56.9770280  32.4069290  41.7598210  57.3361920
  32.8254170  41.5729190  56.4958580  32.1005350  40.9077260  57.6464850
  35.9059020  46.6722350  61.0337720  35.5302620  45.9050280  60.6019010
  35.1762140  47.0545050  61.5212650  20.4954780  47.3509490  67.6546770
  20.8627820  47.2636890  68.5342790  19.9265600  46.5876040  67.5553630
  35.2958640  45.8193870  70.6677240  35.0644730  45.5906620  69.7675190
  35.5563190  46.7393420  70.6222130  18.6716930  44.1755850  59.0568760
  17.7681010  44.4386050  58.8820420  19.1557550  44.4467020  58.2768720
  35.1809980  44.8979840  64.3344960  35.7047460  44.4042490  63.7035130
  35.7669400  45.0330200  65.0792530  35.3599700  44.9819710  67.8564510
  34.4102410  44.9483250  67.9709500  35.5412710  45.8919820  67.6214280
  21.2144140  43.2321390  56.9663140  21.9235840  42.8104610  56.4810420
  20.4984080  43.2996620  56.3346490  20.8618300  39.2860720  56.0065790
  21.5846430  39.8269660  56.3247010  21.1342820  39.0124140  55.1307330
  34.6709950  44.1553190  60.2737370  35.1669070  43.9224060  61.0586250
  34.4726020  43.3165030  59.8575010  20.5510490  38.5366910  65.9088410
  21.1986680  37.9864290  65.4683570  20.9712330  38.7910060  66.7304220
  36.0997110  42.7914140  62.8075050  35.9896390  42.6370180  63.7457320
  36.8604700  42.2635080  62.5650460  34.4462830  38.7308270  69.2658050
  35.0835050  39.3442410  69.6317240  34.5937720  38.7668930  68.3207280
  36.9887380  40.6222060  56.0481190  37.9136690  40.4903240  55.8399480
  36.9663170  40.7014880  57.0017640  37.0625870  41.3932720  58.6737900
  36.2677370  41.3277840  59.2030810  37.2669150  42.3283360  58.6623250
  34.0044290  55.4324270  62.6676290  34.6003360  55.1108840  61.9910710
  34.2622440  54.9596090  63.4589560  20.3042490  38.6922580  68.6513730
  19.9557310  39.1486400  69.4171910  19.9730190  37.7979710  68.7336160
  25.6112890  53.4201770  68.4176640  25.3704250  53.6876330  67.5307160
  26.5515530  53.5907500  68.4727500  36.8717050  55.4396150  69.2187280
  36.3775330  55.8365020  68.5014410  36.2630340  54.8145360  69.6124560
  21.7494890  54.8104430  69.9364700  21.1555210  54.6789130  70.6754740
  21.7418730  53.9742570  69.4706800  31.1949910  38.1036660  68.1394730
  30.3209750  38.4371770  67.9367660  31.0860660  37.6309840  68.9646600
  32.1021890  40.3107530  69.5236450  31.7735250  39.4959290  69.1438180
  33.0504190  40.2677340  69.4002140  34.5556500  56.0819570  66.4974020
  34.0959470  56.8335380  66.1232040  33.9268960  55.3626040  66.4388820
  21.3807120  52.1762810  68.8872740  20.6541180  51.5568100  68.8198690
  21.4416270  52.5703420  68.0170820  24.9852220  54.3907810  65.6722150
  25.5017240  53.7795170  65.1470410  25.6349600  54.8936590  66.1633160
  27.7247720  55.2816300  66.4991130  28.0125530  55.0270600  65.6224140
  28.2370940  54.7293660  67.0896700  28.9424730  39.0206500  67.0787640
  28.1596520  39.4952000  67.3584400  28.6487660  38.1161330  66.9700820
  33.4945800  39.7229600  65.1236730  33.9353890  39.6674700  64.2758330
  33.2253390  40.6387610  65.1946910  35.3584370  39.3544840  63.1345550
  35.2972770  38.4106060  62.9876570  36.1376400  39.4624930  63.6799010
  19.6637120  55.4937200  62.0969500  19.4959160  54.8607880  62.7951390
  18.7971630  55.6996600  61.7463690  20.2865140  39.3253980  59.6001360
  21.0444500  39.4382860  59.0265390  19.8242310  40.1623180  59.5544790
  26.8278950  41.4393250  62.5903670  26.0153460  41.0650140  62.2499550
  27.3320590  40.6838330  62.8924860  31.3303930  38.1035700  63.8286740
  31.9333300  38.6755910  64.3035260  30.5896920  38.6675140  63.6060640
  34.4738530  38.5057260  59.1027020  34.6689160  39.4040710  59.3694450
  33.6868400  38.2744340  59.5959970  21.2699820  54.1870430  59.5419640
  20.7447440  54.5678460  58.8381600  21.1944400  54.8121200  60.2629350
  22.6590290  39.8518030  58.1403330  23.1883050  39.0647830  58.0111280
  23.2918610  40.5309220  58.3738860  24.8528130  39.5893170  61.1948720
  24.2230870  38.8880480  61.3618850  24.3133270  40.3497300  60.9781880
  36.0265140  55.7457970  60.8633580  36.2017330  55.0595710  60.2194500
  35.3286710  56.2705020  60.4710250  23.8692790  56.1352810  58.4168890
  24.6011610  55.8512090  57.8692780  24.1286460  55.8966090  59.3068270
  23.0307580  52.2517540  58.4215220  22.4016460  52.7202640  58.9701050
  23.1455410  51.4066760  58.8561410  30.4857300  46.3023200  44.5716420
  30.4051350  45.3877810  44.3008130  30.0721720  46.7990270  43.8656130
  28.6175340  48.0802220  46.4525690  27.8417440  47.6002660  46.7424260
  29.2688270  47.4007870  46.2781850  22.6341170  48.3922030  47.3301450
  21.8026050  48.1370740  47.7297960  23.2422150  48.4632800  48.0659370
  32.6382770  52.4862410  45.2324820  32.1764300  51.7149650  45.5611990
  33.4508320  52.5128480  45.7377270  22.6142430  52.4262120  47.5259470
  22.9170470  51.5359860  47.3469690  23.3586020  52.9832340  47.2981720
  21.0433120  43.3523920  41.1143840  20.1549820  43.6939890  41.0123720
  21.3274310  43.1524240  40.2224670  19.0066130  45.9529570  46.9983540
  19.5782240  45.1851770  46.9987180  19.0067670  46.2518330  46.0890150
  28.8646080  54.7720420  44.8528810  28.2457520  55.2277920  44.2823250
  29.7197860  54.9271880  44.4518510  28.0584330  50.7559410  46.4595850
  27.9892610  49.8149350  46.2984980  28.8204190  50.8460820  47.0318420
  20.2491000  41.3613930  48.7852470  20.0693840  40.4639680  49.0655230
  19.8471080  41.9085800  49.4599420  29.0889500  43.5629790  46.6864780
  29.4654320  42.6901670  46.5738450  28.9909010  43.8988490  45.7955220
  23.2194510  41.9355420  42.1482220  23.3261260  42.8359150  42.4550980
  22.3086870  41.8873390  41.8576870  32.8713620  41.0580230  43.6193120
  33.6923240  40.5676800  43.6618600  32.9047700  41.6477890  44.3724960
  20.8677670  43.8574430  47.3934810  21.5487780  44.1212800  48.0122210
  20.5525720  43.0175300  47.7272820  25.0602240  44.9041790  46.4807400
  25.5680460  45.4022760  47.1212420  25.5915480  44.1276990  46.3046760
  37.1613170  43.0746980  50.1836750  36.4565340  43.4628690  49.6651860
  37.4271090  43.7697270  50.7857680  23.3438340  39.5440350  50.7470820
  23.3456780  40.0612740  49.9416720  22.5142650  39.0670530  50.7240750
  29.7309430  49.6559660  42.2460720  29.1126700  50.1209110  41.6823440
  30.2432680  50.3487140  42.6630230  24.5941190  49.1835530  48.9244320
  24.2610570  49.8104450  49.5665390  24.7707870  49.7097410  48.1445990
  33.1075100  42.9980610  46.3920660  32.4030670  43.2865500  46.9723770
  33.4687260  43.8080720  46.0320220  23.0253670  41.2550310  48.7541270
  23.3670480  42.0992360  48.4595140  22.0869480  41.4034050  48.8706610
  23.8060290  51.1516330  50.7393500  24.4234290  51.8267410  50.4577950
  22.9453410  51.5604310  50.6481000  19.0992630  50.3416190  39.6200350
  18.7220610  50.8303290  38.8885250  19.3565700  51.0141470  40.2506880
  34.7237880  52.6155740  48.6548140  34.0401400  53.2854850  48.6464810
  35.2632170  52.8136390  47.8893000  36.1762020  42.4435400  46.7829870
  35.2286930  42.4774380  46.9145300  36.5012010  43.2574350  47.1679230
  26.7081560  38.7432580  45.0785860  27.0156540  38.1879470  44.3621360
  25.7782260  38.8777040  44.8958850  32.2596620  54.4599870  47.3693320
  32.2723780  54.0562160  46.5015580  31.7071840  55.2347160  47.2654750
  33.5542040  51.1816090  42.4583490  33.4438370  50.2390420  42.5832910
  33.5510290  51.5431730  43.3446250  31.6582060  49.3629710  48.6975930
  32.0750850  49.1489820  47.8629390  32.3821880  49.6202500  49.2684550
  29.0962320  46.8081410  41.8145980  28.1691600  46.7418790  42.0434450
  29.2487140  47.7461540  41.7001220  29.0831400  43.0798410  38.8113140
  28.1435070  43.2412370  38.8965600  29.4014660  43.7984090  38.2649130
  35.6044160  47.7616930  48.7892170  34.7762790  47.8310020  48.3142300
  36.1994640  48.3471240  48.3208000  33.1259610  48.3701710  42.3181230
  32.5072030  48.0321260  41.6707530  33.1084060  47.7261470  43.0260420
  32.5686170  44.5486250  49.7347040  32.1557350  45.3739960  49.9887030
  31.8362120  43.9631290  49.5423400  24.7018960  47.3346150  44.5965710
  24.2975960  46.6223400  44.1011610  24.7882080  46.9899390  45.4853750
  25.1700660  51.0213710  46.7604920  24.8728950  50.4159180  46.0812700
  26.1200480  51.0591020  46.6494280  23.4147580  44.1089360  48.3764750
  23.9662170  44.2184700  47.6018000  23.9291090  44.4826960  49.0919980
  33.2586270  54.5945580  50.4228020  32.7816830  55.4017770  50.2300630
  32.5748060  53.9423910  50.5754230  24.2619090  50.7595400  53.4112720
  23.3647620  50.9835370  53.6586120  24.2871960  50.8830340  52.4624120
  31.3024310  47.6088520  39.3253980  31.7417590  46.7710950  39.1791800
  32.0152730  48.2417920  39.4118120  23.0890310  47.6308720  51.9870090
  22.9498080  48.5031520  52.3557490  22.2071670  47.2881530  51.8418030
  29.4119690  52.5484590  43.2935220  29.8515600  53.2908920  42.8790610
  29.3506580  52.7911160  44.2174180  24.8870660  53.5730420  54.1955240
  24.8586090  53.9773370  53.3283670  24.7235630  52.6440780  54.0326840
  21.4023590  46.2291130  42.0972360  21.2821190  46.9553220  41.4853630
  21.0924480  45.4594040  41.6200270  36.8385480  54.3557520  55.4919410
  37.3145200  54.8340410  56.1708490  37.4592640  54.2875010  54.7664910
  19.0408960  49.4006270  47.9041000  19.1189380  49.5355040  46.9596720
  19.6550640  48.6922160  48.0969120  20.2856590  51.1006460  44.3147180
  19.8784670  51.2421050  43.4600780  21.1769600  50.8166620  44.1118390
  36.2418730  51.5470370  52.6519420  36.3681790  51.3082250  51.7336600
  36.2840110  50.7154910  53.1241500  30.1035470  55.2498370  51.2214230
  30.6180140  55.1606380  52.0236660  29.2604550  55.5958070  51.5142140
  32.0789870  55.5353710  40.6498230  31.9191010  55.2456650  41.5480060
  31.9136580  54.7593840  40.1143460  24.5578250  55.3152240  42.4269850
  24.3820730  54.3987780  42.2137650  23.7033990  55.6739530  42.6667650
  31.7816000  53.0441270  39.2096230  31.0881160  53.0418560  38.5498510
  32.5238860  52.6200590  38.7790400  31.3465930  54.6703980  43.2844720
  31.8022880  53.8893360  43.5983340  31.6858450  55.3810800  43.8285900
  36.0942740  43.6002830  53.6169160  35.4787010  44.1082500  53.0884620
  35.7739160  42.7001160  53.5595100  19.0968480  50.4420440  50.4435460
  19.2599520  49.9725800  49.6254830  19.5620930  49.9344000  51.1084300
  23.8687250  39.5726200  45.4796030  23.4255400  40.3535740  45.1480550
  24.4272240  39.8956090  46.1866970  28.1557060  42.4394720  51.0831350
  27.6936430  42.6477740  51.8951290  27.7535170  41.6254070  50.7802020
  33.1561570  43.6603670  52.2128010  32.3055160  43.3609420  52.5337080
  32.9963360  43.9045680  51.3011830  30.2511280  45.1605420  54.3126800
  30.5764690  44.3269170  53.9729030  31.0391610  45.6833940  54.4605130
  26.9846070  39.1936900  40.3601860  26.3600250  39.1896770  41.0855170
  26.8976190  38.3267860  39.9637830  25.9063150  40.1173530  47.3385630
  26.2035480  41.0236360  47.2577650  26.4548710  39.6292310  46.7245200
  23.6601470  44.6959770  43.2077280  23.4342390  44.4796940  44.1123900
  22.8794000  45.1288230  42.8623250  30.8899230  44.7023140  41.8067930
  30.2908120  45.4258940  41.6231550  31.4378840  44.6399920  41.0244380
  26.1000680  45.5945350  53.8737550  26.0044280  44.6540080  53.7237950
  26.9432660  45.8160420  53.4785620  29.4964100  43.3386680  43.8371210
  29.8893670  43.6558880  43.0239900  29.8580950  42.4598560  43.9515730
  21.2311220  42.0059020  52.0271330  20.8374610  42.8534230  52.2344110
  20.5429620  41.3685390  52.2179970  27.8056270  42.0893990  55.0968070
  27.1154590  41.8966190  55.7314160  28.5488570  42.3728630  55.6292370
  18.5328270  39.9287480  46.0601410  18.2441320  40.4990340  46.7726390
  19.2774030  39.4491930  46.4232640  18.7198500  43.8707600  37.2704130
  18.6373170  44.8138360  37.4119120  18.3681560  43.7282510  36.3916480
  30.0819240  45.9292430  47.9321990  29.3500360  46.4379240  48.2812090
  29.6843580  45.1122410  47.6310770  26.5196630  42.6046630  46.3374480
  26.5232690  42.1636580  45.4879020  27.4147750  42.9263960  46.4446300
  22.3699010  42.4873120  45.2968690  22.0299060  42.9648350  46.0535740
  21.6076330  42.0338240  44.9369790  26.5816780  43.6058710  39.3281240
  26.7029600  43.5645190  40.2767060  26.1965290  44.4682860  39.1727970
  30.5445150  41.3826110  47.3444930  30.5617890  41.8334760  48.1886780
  30.2960730  40.4831750  47.5578370  25.5938280  45.9159850  38.7264540
  25.0255180  45.4678100  38.1000450  26.3027280  46.2752630  38.1929690
  33.9715900  38.7958290  53.1831310  34.2961670  38.0647950  53.7089290
  34.0072410  38.4771930  52.2812300  20.6707460  49.8171870  52.6031270
  20.2862250  49.1765540  53.2014230  20.9819650  50.5207990  53.1726000
  26.8204600  46.6648410  48.0839890  27.1874730  46.1906980  48.8301230
  26.6309660  47.5389980  48.4248230  19.6845090  41.4092100  44.2133360
  19.3992010  41.0447770  45.0511980  19.6223950  40.6772560  43.5996500
  24.6103970  45.7057050  50.4024100  24.3061040  46.5849030  50.6274460
  25.5650430  45.7656840  50.4381540  23.1385760  49.9118040  40.9990950
  22.3648020  49.3715660  40.8389670  23.8680390  49.3924650  40.6608710
  33.8973740  48.9083400  46.7917340  34.6172860  49.4038690  46.4013450
  33.6955560  48.2301290  46.1471210  29.3583680  40.3021360  40.9346730
  28.5448290  39.8034530  40.8592040  29.1645630  41.1419610  40.5183080
  29.2792540  48.9792460  52.6786340  29.2129850  48.0588130  52.4243930
  28.6497680  49.0767900  53.3930980  32.0732070  44.6741010  39.2308890
  32.9611690  44.9858240  39.0560230  32.0437160  43.8013260  38.8389470
  23.1823160  49.5798420  44.6369760  23.7001830  48.7766680  44.5826650
  22.7307180  49.5177560  45.4786590  28.0692660  50.8464700  39.9097060
  28.4108360  51.5906930  39.4140380  27.2405370  51.1595820  40.2721890
  20.6667700  46.5459790  51.5495460  20.3082640  47.2113640  52.1368800
  20.3722260  45.7143340  51.9208080  23.8680820  47.0044030  54.4335010
  23.5680960  47.1501210  53.5362830  24.6392060  46.4449320  54.3408400
  29.2109270  51.8013030  52.4290140  29.2253810  50.8693990  52.2109050
  28.5034370  51.8872790  53.0679910  34.3446340  45.9852850  38.6988750
  34.2610060  46.4167070  37.8485190  35.0640530  46.4451200  39.1315570
  35.4220480  48.4420370  51.7758720  34.6968670  49.0349150  51.5788110
  35.9495940  48.4343910  50.9772090  35.3733590  52.8395110  41.4270880
  34.7309750  52.1850730  41.7014600  34.9864250  53.2450200  40.6511550
  30.9520070  50.1680540  45.2742570  31.3043890  49.5708670  44.6143940
  30.0682400  49.8424770  45.4450820  27.0383350  50.9278230  42.6812980
  27.7254480  51.4747440  43.0620570  26.2515770  51.4718960  42.7162590
  19.1775750  46.5451050  38.1730060  20.0470600  46.8275850  38.4565980
  18.6866070  47.3586920  38.0578870  26.3410560  47.9324260  42.2938340
  26.7973340  48.7429510  42.5198530  25.9898770  47.6147400  43.1256830
  28.6443170  53.4430600  49.5230640  29.2885390  53.6489980  50.2004060
  29.0072610  52.6819000  49.0701490  22.2422340  38.2761910  42.7660860
  22.1136970  38.2679810  43.7145780  21.4184360  38.6145000  42.4151870
  29.9175250  51.4462950  48.2408090  30.5597480  50.7456110  48.3540260
  30.4424600  52.2261390  48.0604980  33.7630970  51.7311570  37.9647230
  33.5368550  51.0142010  38.5571870  33.3727170  51.4824010  37.1268980
  31.6912870  52.2457850  51.4444150  32.0269110  52.8324540  52.1222070
  30.7713210  52.1150560  51.6741940  19.5447000  55.7578430  38.7391690
  19.9044640  56.3567770  38.0848960  19.4039340  56.3038320  39.5126720
  19.2416270  40.0353030  52.2267560  18.5274790  40.2349950  52.8320170
  19.6611310  39.2592600  52.5982360  33.3447220  49.6483510  39.6261390
  33.0568920  50.1096200  40.4139270  34.1399390  49.1881280  39.8945610
  19.5288860  54.0233290  53.2134090  19.6379980  53.0828030  53.0729480
  18.8769420  54.2888040  52.5647820  27.5201450  52.2949180  54.6132210
  27.1998320  51.5758420  55.1577900  26.8459810  52.9704250  54.6868270
  25.5615620  53.1409630  39.5565360  25.5525720  53.8739320  38.9409870
  24.6413980  52.8941210  39.6492320  21.1622260  48.3624520  40.3012120
  20.5550210  49.1023420  40.3107420  21.6371610  48.4523880  39.4750320
  30.7355050  42.5275340  49.9769010  31.1035870  41.7070550  50.3048580
  29.8753250  42.5877230  50.3924660  34.1017080  41.4832280  40.7856570
  33.4730240  41.5877950  40.0714800  33.6069000  41.7029060  41.5750450
  28.5475220  53.2037870  38.2190550  28.6487200  53.0001860  37.2892530
  27.6476960  52.9496150  38.4238330  26.0701110  43.7618230  42.2014450
  25.3617260  44.2304570  42.6428060  26.3545590  43.1040240  42.8359640
  27.6957040  45.1814930  50.2006980  28.1942290  45.6560750  50.8658830
  27.8379990  44.2578450  50.4077010  30.1016540  40.4868890  43.6410240
  29.9784320  40.5055020  42.6919750  31.0501100  40.5347830  43.7608640
  27.1893330  55.7224190  42.9138220  27.4434830  55.6845580  41.9917590
  26.2405810  55.5957520  42.9066470  24.2736130  42.0703310  39.5765160
  25.1226660  42.5073460  39.5105350  23.9067400  42.3823570  40.4037220
  34.9023900  41.3982890  51.0435370  34.3997500  42.1388290  51.3829180
  35.7180560  41.7866890  50.7272160  33.1945910  46.6416070  44.4896730
  32.2536050  46.6566300  44.6644420  33.5089980  45.8552030  44.9357030
  23.1727550  48.3235670  38.0500690  23.9390820  48.2117030  38.6126120
  23.2502240  47.6273640  37.3977460  21.8674310  45.7560740  38.7333580
  21.9477900  44.8088250  38.8450980  22.7594060  46.0867620  38.8394240
  35.1971490  53.8124920  46.1650990  35.3218910  54.6356090  46.6374800
  36.0637050  53.6015650  45.8175140  22.6689020  55.9056130  45.8368120
  23.4051500  55.3571590  46.1076690  23.0529940  56.7712140  45.6974110
  19.5534500  51.9729700  41.7109630  18.6274280  52.2150840  41.7015040
  20.0190930  52.8003960  41.5894380  21.6747300  55.0902200  55.0253700
  22.4760030  55.4114250  55.4389100  21.1599120  54.7297780  55.7473610
  25.7791330  55.0786440  37.6593690  26.5719940  55.3675270  37.2075480
  25.2595680  54.6478610  36.9806170  30.5111930  51.1982070  54.9729110
  29.9050090  51.2213670  54.2324860  30.2066040  50.4665110  55.5096360
  31.9412300  54.9262360  53.5838520  32.8934050  54.8420380  53.5338760
  31.7940520  55.5904070  54.2572310  34.8321500  54.3056570  39.0830430
  34.5463010  53.8921710  38.2684610  34.6341050  55.2344280  38.9630950
  19.3945110  47.5775660  53.9689750  19.8984130  46.9982940  54.5405980
  18.6552530  47.8615890  54.5066120  26.2968730  50.2989850  37.5236040
  26.1919370  49.6842200  38.2497420  26.1292950  49.7755740  36.7399050
  26.4483050  48.9846650  53.5025270  25.6828720  49.5531650  53.4179940
  26.6299010  48.6922860  52.6093500  29.5371460  49.3609880  38.1278030
  28.9881560  49.8079180  38.7720770  30.1590720  48.8559130  38.6515700
  33.5906400  50.7151980  54.0600290  34.3315870  51.0527740  53.5567750
  32.8279080  50.8844040  53.5070060  21.4268190  45.7205250  54.8639820
  21.4673530  45.4219120  55.7725050  22.2813690  46.1212860  54.7047340
  25.2046580  48.3200800  40.0243330  25.6263000  48.1540670  40.8674720
  25.3297420  47.5101030  39.5298470  23.3674000  44.2997350  52.8314310
  22.8370460  43.8088300  52.2037650  24.0362070  44.7281550  52.2972240
  27.7174220  47.3438410  37.2720430  28.2379880  46.6287430  36.9061580
  28.3642620  47.9824280  37.5720940  32.2652060  48.7666810  52.5955500
  32.6793080  48.9211890  53.4445920  31.3303060  48.8922030  52.7581280
  32.7374230  46.1062970  54.5994650  33.3195000  45.3515290  54.5115130
  32.9136000  46.6370410  53.8226130  23.8546300  41.2659720  52.9111600
  23.7603170  40.6480470  52.1862470  23.2743690  41.9926010  52.6841510
  26.6207740  39.8232960  49.9438990  26.1725040  39.8457220  49.0984540
  25.9872940  39.4251980  50.5409290  27.0267290  48.7187290  50.5651430
  27.4455400  49.5620020  50.3927670  26.1075920  48.8559330  50.3358210
  29.3631190  46.4503470  51.9489270  29.4827400  45.8544610  52.6884110
  30.2225190  46.4873160  51.5290570  31.7019090  47.0040660  50.5251780
  31.1754310  47.5283280  49.9216920  32.0450430  47.6368050  51.1561510
  24.1005480  44.3934030  36.9701490  23.8994540  43.5301390  37.3314830
  23.9297530  44.3067390  36.0323090  24.8774710  55.0240300  51.6809160
  24.3395800  55.7486360  51.3617860  25.1308670  54.5470640  50.8906500
  26.1299960  42.9924820  53.2065090  26.7199650  42.6840670  53.8942910
  25.3120200  42.5204570  53.3624990  30.9493390  42.6090630  53.4398110
  30.2608910  41.9472170  53.3748100  31.6699410  42.1628900  53.8846570
  31.5793790  39.2042260  39.4988370  31.8596080  38.3610160  39.8547790
  30.8059520  39.4365370  40.0127120  22.8988280  41.4934650  36.9579370
  23.2014180  41.5002080  36.0498520  23.6382870  41.1432510  37.4547030
  27.7336920  56.2591510  51.9395810  27.6595620  57.1626650  52.2468180
  26.8315760  55.9403410  51.9117880  26.1173210  40.4369270  37.9435570
  25.7695210  39.7593260  37.3638020  26.3185980  39.9758780  38.7578960
  28.2822250  55.4250020  39.5622170  29.1773040  55.7634990  39.5840930
  28.3139880  54.7029430  38.9346450  21.9218410  50.7977070  37.7909170
  22.3593280  51.3406740  38.4466750  22.4066140  49.9724020  37.8005510
  19.1364210  53.5866100  45.2429430  19.4667220  52.7187160  45.0108070
  19.5655210  53.7924620  46.0734390  23.7326130  51.9175110  42.9031400
  23.4321670  51.7940080  43.8035310  23.6263620  51.0583700  42.4947130
  19.6254420  54.4536690  47.9811060  19.1885410  54.6337490  48.8135210
  20.1932100  55.2111310  47.8392780  35.2616600  53.9553690  52.2688370
  34.6618590  54.0146250  51.5252290  35.3910500  53.0158670  52.3985220
  36.5018050  51.6971510  37.6058080  35.6711010  51.7648160  38.0765310
  36.6789880  52.5875630  37.3024940  35.9574510  48.4418990  40.1092280
  36.7193420  49.0115640  40.2151970  35.9728880  47.8746190  40.8800590
  19.4578850  46.9656920  44.3399940  18.8027690  46.6968560  43.6959640
  20.2956800  46.8561400  43.8901920  36.9634480  49.2969090  44.9534210
  37.3343310  48.5136410  44.5470180  37.6036410  49.9858190  44.7751510
  33.9468240  50.6805670  50.3664530  33.1328080  51.1102830  50.6290320
  34.3542440  51.2924080  49.7533580  36.0093680  48.7353360  37.2664800
  36.2842520  49.6432240  37.1384020  35.8204420  48.6715890  38.2026790
  32.4069290  41.7598210  38.5618430  32.8254170  41.5729190  37.7215090
  32.1005350  40.9077260  38.8721360  35.9059020  46.6722350  42.2594230
  35.5302620  45.9050280  41.8275520  35.1762140  47.0545050  42.7469160
  20.4954780  47.3509490  48.8803280  20.8627820  47.2636890  49.7599300
  19.9265600  46.5876040  48.7810140  35.2958640  45.8193870  51.8933750
  35.0644730  45.5906620  50.9931700  35.5563190  46.7393420  51.8478640
  20.0470780  44.2618580  52.7861700  19.1526830  44.2285340  53.1255410
  20.5868330  44.4605370  53.5512950  33.7346710  41.0450300  54.6713450
  34.6116890  41.0533700  55.0547450  33.7467550  40.3081140  54.0605800
  18.6716930  44.1755850  40.2825270  17.7681010  44.4386050  40.1076930
  19.1557550  44.4467020  39.5025230  35.1809980  44.8979840  45.5601470
  35.7047460  44.4042490  44.9291640  35.7669400  45.0330200  46.3049040
  35.3599700  44.9819710  49.0821020  34.4102410  44.9483250  49.1966010
  35.5412710  45.8919820  48.8470790  21.2144140  43.2321390  38.1919650
  21.9235840  42.8104610  37.7066930  20.4984080  43.2996620  37.5603000
  20.8618300  39.2860720  37.2322300  21.5846430  39.8269660  37.5503520
  21.1342820  39.0124140  36.3563840  34.6709950  44.1553190  41.4993880
  35.1669070  43.9224060  42.2842760  34.4726020  43.3165030  41.0831520
  20.5510490  38.5366910  47.1344920  21.1986680  37.9864290  46.6940080
  20.9712330  38.7910060  47.9560730  36.0997110  42.7914140  44.0331560
  35.9896390  42.6370180  44.9713830  36.8604700  42.2635080  43.7906970
  34.4462830  38.7308270  50.4914560  35.0835050  39.3442410  50.8573750
  34.5937720  38.7668930  49.5463790  34.0044290  55.4324270  43.8932800
  34.6003360  55.1108840  43.2167220  34.2622440  54.9596090  44.6846070
  20.3042490  38.6922580  49.8770240  19.9557310  39.1486400  50.6428420
  19.9730190  37.7979710  49.9592670  21.9106860  51.8642180  54.0423430
  21.8676490  51.4935090  54.9237890  22.0417870  52.8019750  54.1825250
  25.6112890  53.4201770  49.6433150  25.3704250  53.6876330  48.7563670
  26.5515530  53.5907500  49.6984010  27.8167310  39.8834460  53.3989660
  27.7556200  40.4756290  54.1485070  28.7567690  39.7760420  53.2539920
  30.4541870  39.5404520  53.0381950  31.0682280  39.8583810  52.3763030
  30.9991430  39.0553110  53.6577810  36.8717050  55.4396150  50.4443790
  36.3775330  55.8365020  49.7270920  36.2630340  54.8145360  50.8381070
  20.9763130  38.2198780  53.1521010  21.5246120  38.0386830  52.3887120
  21.0418440  37.4292890  53.6877320  21.7494890  54.8104430  51.1621210
  21.1555210  54.6789130  51.9011250  21.7418730  53.9742570  50.6963310
  31.1949910  38.1036660  49.3651240  30.3209750  38.4371770  49.1624170
  31.0860660  37.6309840  50.1903110  32.1021890  40.3107530  50.7492960
  31.7735250  39.4959290  50.3694690  33.0504190  40.2677340  50.6258650
  34.5556500  56.0819570  47.7230530  34.0959470  56.8335380  47.3488550
  33.9268960  55.3626040  47.6645330  21.3807120  52.1762810  50.1129250
  20.6541180  51.5568100  50.0455200  21.4416270  52.5703420  49.2427330
  24.9852220  54.3907810  46.8978660  25.5017240  53.7795170  46.3726920
  25.6349600  54.8936590  47.3889670  27.7247720  55.2816300  47.7247640
  28.0125530  55.0270600  46.8480650  28.2370940  54.7293660  48.3153210
  28.9424730  39.0206500  48.3044150  28.1596520  39.4952000  48.5840910
  28.6487660  38.1161330  48.1957330  33.4945800  39.7229600  46.3493240
  33.9353890  39.6674700  45.5014840  33.2253390  40.6387610  46.4203420
  35.3584370  39.3544840  44.3602060  35.2972770  38.4106060  44.2133080
  36.1376400  39.4624930  44.9055520  19.6637120  55.4937200  43.3226010
  19.4959160  54.8607880  44.0207900  18.7971630  55.6996600  42.9720200
  20.2865140  39.3253980  40.8257870  21.0444500  39.4382860  40.2521900
  19.8242310  40.1623180  40.7801300  26.8278950  41.4393250  43.8160180
  26.0153460  41.0650140  43.4756060  27.3320590  40.6838330  44.1181370
  31.3303930  38.1035700  45.0543250  31.9333300  38.6755910  45.5291770
  30.5896920  38.6675140  44.8317150  21.2699820  54.1870430  40.7676150
  20.7447440  54.5678460  40.0638110  21.1944400  54.8121200  41.4885860
  22.6590290  39.8518030  39.3659840  23.1883050  39.0647830  39.2367790
  23.2918610  40.5309220  39.5995370  24.8528130  39.5893170  42.4205230
  24.2230870  38.8880480  42.5875360  24.3133270  40.3497300  42.2038390
  27.7920080  56.2032400  55.0915840  28.7187390  55.9676670  55.1351800
  27.7770510  57.0304400  54.6101870  36.0265140  55.7457970  42.0890090
  36.2017330  55.0595710  41.4451010  35.3286710  56.2705020  41.6966760
  24.9783690  38.8677150  54.8557720  24.6967960  39.3710750  54.0918540
  25.3603390  38.0698900  54.4899850  23.8692790  56.1352810  39.6425400
  24.6011610  55.8512090  39.0949290  24.1286460  55.8966090  40.5324780
  23.0307580  52.2517540  39.6471730  22.4016460  52.7202640  40.1957560
  23.1455410  51.4066760  40.0817920  31.5799150  38.2830730  55.4338190
  31.4664600  38.6025340  56.3289710  32.3968890  38.6843240  55.1375470
  34.3597640  55.4302260  54.9156880  35.1522960  54.9351490  54.7082840
  34.6530790  56.1092400  55.5232490  30.4857300  46.3023200  25.7972930
  30.4051350  45.3877810  25.5264640  30.0721720  46.7990270  25.0912640
  28.6175340  48.0802220  27.6782200  27.8417440  47.6002660  27.9680770
  29.2688270  47.4007870  27.5038360  22.6341170  48.3922030  28.5557960
  21.8026050  48.1370740  28.9554470  23.2422150  48.4632800  29.2915880
  32.6382770  52.4862410  26.4581330  32.1764300  51.7149650  26.7868500
  33.4508320  52.5128480  26.9633780  22.6142430  52.4262120  28.7515980
  22.9170470  51.5359860  28.5726200  23.3586020  52.9832340  28.5238230
  21.0433120  43.3523920  22.3400350  20.1549820  43.6939890  22.2380230
  21.3274310  43.1524240  21.4481180  19.0066130  45.9529570  28.2240050
  19.5782240  45.1851770  28.2243690  19.0067670  46.2518330  27.3146660
  28.8646080  54.7720420  26.0785320  28.2457520  55.2277920  25.5079760
  29.7197860  54.9271880  25.6775020  28.0584330  50.7559410  27.6852360
  27.9892610  49.8149350  27.5241490  28.8204190  50.8460820  28.2574930
  20.2491000  41.3613930  30.0108980  20.0693840  40.4639680  30.2911740
  19.8471080  41.9085800  30.6855930  29.0889500  43.5629790  27.9121290
  29.4654320  42.6901670  27.7994960  28.9909010  43.8988490  27.0211730
  23.2194510  41.9355420  23.3738730  23.3261260  42.8359150  23.6807490
  22.3086870  41.8873390  23.0833380  32.8713620  41.0580230  24.8449630
  33.6923240  40.5676800  24.8875110  32.9047700  41.6477890  25.5981470
  20.8677670  43.8574430  28.6191320  21.5487780  44.1212800  29.2378720
  20.5525720  43.0175300  28.9529330  25.0602240  44.9041790  27.7063910
  25.5680460  45.4022760  28.3468930  25.5915480  44.1276990  27.5303270
  37.1613170  43.0746980  31.4093260  36.4565340  43.4628690  30.8908370
  37.4271090  43.7697270  32.0114190  23.3438340  39.5440350  31.9727330
  23.3456780  40.0612740  31.1673230  22.5142650  39.0670530  31.9497260
  29.7309430  49.6559660  23.4717230  29.1126700  50.1209110  22.9079950
  30.2432680  50.3487140  23.8886740  24.5941190  49.1835530  30.1500830
  24.2610570  49.8104450  30.7921900  24.7707870  49.7097410  29.3702500
  33.1075100  42.9980610  27.6177170  32.4030670  43.2865500  28.1980280
  33.4687260  43.8080720  27.2576730  23.0253670  41.2550310  29.9797780
  23.3670480  42.0992360  29.6851650  22.0869480  41.4034050  30.0963120
  23.8060290  51.1516330  31.9650010  24.4234290  51.8267410  31.6834460
  22.9453410  51.5604310  31.8737510  19.0992630  50.3416190  20.8456860
  18.7220610  50.8303290  20.1141760  19.3565700  51.0141470  21.4763390
  34.7237880  52.6155740  29.8804650  34.0401400  53.2854850  29.8721320
  35.2632170  52.8136390  29.1149510  36.1762020  42.4435400  28.0086380
  35.2286930  42.4774380  28.1401810  36.5012010  43.2574350  28.3935740
  26.7081560  38.7432580  26.3042370  27.0156540  38.1879470  25.5877870
  25.7782260  38.8777040  26.1215360  32.2596620  54.4599870  28.5949830
  32.2723780  54.0562160  27.7272090  31.7071840  55.2347160  28.4911260
  33.5542040  51.1816090  23.6840000  33.4438370  50.2390420  23.8089420
  33.5510290  51.5431730  24.5702760  31.6582060  49.3629710  29.9232440
  32.0750850  49.1489820  29.0885900  32.3821880  49.6202500  30.4941060
  29.0962320  46.8081410  23.0402490  28.1691600  46.7418790  23.2690960
  29.2487140  47.7461540  22.9257730  29.0831400  43.0798410  20.0369650
  28.1435070  43.2412370  20.1222110  29.4014660  43.7984090  19.4905640
  35.6044160  47.7616930  30.0148680  34.7762790  47.8310020  29.5398810
  36.1994640  48.3471240  29.5464510  33.1259610  48.3701710  23.5437740
  32.5072030  48.0321260  22.8964040  33.1084060  47.7261470  24.2516930
  32.5686170  44.5486250  30.9603550  32.1557350  45.3739960  31.2143540
  31.8362120  43.9631290  30.7679910  24.7018960  47.3346150  25.8222220
  24.2975960  46.6223400  25.3268120  24.7882080  46.9899390  26.7110260
  25.1700660  51.0213710  27.9861430  24.8728950  50.4159180  27.3069210
  26.1200480  51.0591020  27.8750790  23.4147580  44.1089360  29.6021260
  23.9662170  44.2184700  28.8274510  23.9291090  44.4826960  30.3176490
  33.2586270  54.5945580  31.6484530  32.7816830  55.4017770  31.4557140
  32.5748060  53.9423910  31.8010740  24.2619090  50.7595400  34.6369230
  23.3647620  50.9835370  34.8842630  24.2871960  50.8830340  33.6880630
  31.3024310  47.6088520  20.5510490  31.7417590  46.7710950  20.4048310
  32.0152730  48.2417920  20.6374630  23.0890310  47.6308720  33.2126600
  22.9498080  48.5031520  33.5814000  22.2071670  47.2881530  33.0674540
  29.4119690  52.5484590  24.5191730  29.8515600  53.2908920  24.1047120
  29.3506580  52.7911160  25.4430690  24.8870660  53.5730420  35.4211750
  24.8586090  53.9773370  34.5540180  24.7235630  52.6440780  35.2583350
  34.8841450  38.8631330  18.8651530  34.5714110  38.9558160  19.7650600
  35.6453920  39.4412360  18.8148960  21.4023590  46.2291130  23.3228870
  21.2821190  46.9553220  22.7110140  21.0924480  45.4594040  22.8456780
  36.8385480  54.3557520  36.7175920  37.3145200  54.8340410  37.3965000
  37.4592640  54.2875010  35.9921420  19.0408960  49.4006270  29.1297510
  19.1189380  49.5355040  28.1853230  19.6550640  48.6922160  29.3225630
  20.2856590  51.1006460  25.5403690  19.8784670  51.2421050  24.6857290
  21.1769600  50.8166620  25.3374900  36.2418730  51.5470370  33.8775930
  36.3681790  51.3082250  32.9593110  36.2840110  50.7154910  34.3498010
  30.1035470  55.2498370  32.4470740  30.6180140  55.1606380  33.2493170
  29.2604550  55.5958070  32.7398650  32.0789870  55.5353710  21.8754740
  31.9191010  55.2456650  22.7736570  31.9136580  54.7593840  21.3399970
  24.5578250  55.3152240  23.6526360  24.3820730  54.3987780  23.4394160
  23.7033990  55.6739530  23.8924160  31.7816000  53.0441270  20.4352740
  31.0881160  53.0418560  19.7755020  32.5238860  52.6200590  20.0046910
  31.3465930  54.6703980  24.5101230  31.8022880  53.8893360  24.8239850
  31.6858450  55.3810800  25.0542410  36.0942740  43.6002830  34.8425670
  35.4787010  44.1082500  34.3141130  35.7739160  42.7001160  34.7851610
  19.0968480  50.4420440  31.6691970  19.2599520  49.9725800  30.8511340
  19.5620930  49.9344000  32.3340810  23.8687250  39.5726200  26.7052540
  23.4255400  40.3535740  26.3737060  24.4272240  39.8956090  27.4123480
  28.1557060  42.4394720  32.3087860  27.6936430  42.6477740  33.1207800
  27.7535170  41.6254070  32.0058530  33.1561570  43.6603670  33.4384520
  32.3055160  43.3609420  33.7593590  32.9963360  43.9045680  32.5268340
  30.2511280  45.1605420  35.5383310  30.5764690  44.3269170  35.1985540
  31.0391610  45.6833940  35.6861640  26.9846070  39.1936900  21.5858370
  26.3600250  39.1896770  22.3111680  26.8976190  38.3267860  21.1894340
  25.9063150  40.1173530  28.5642140  26.2035480  41.0236360  28.4834160
  26.4548710  39.6292310  27.9501710  23.6601470  44.6959770  24.4333790
  23.4342390  44.4796940  25.3380410  22.8794000  45.1288230  24.0879760
  30.8899230  44.7023140  23.0324440  30.2908120  45.4258940  22.8488060
  31.4378840  44.6399920  22.2500890  26.1000680  45.5945350  35.0994060
  26.0044280  44.6540080  34.9494460  26.9432660  45.8160420  34.7042130
  29.4964100  43.3386680  25.0627720  29.8893670  43.6558880  24.2496410
  29.8580950  42.4598560  25.1772240  21.2311220  42.0059020  33.2527840
  20.8374610  42.8534230  33.4600620  20.5429620  41.3685390  33.4436480
  27.8056270  42.0893990  36.3224580  27.1154590  41.8966190  36.9570670
  28.5488570  42.3728630  36.8548880  18.5328270  39.9287480  27.2857920
  18.2441320  40.4990340  27.9982900  19.2774030  39.4491930  27.6489150
  18.7198500  43.8707600  18.4960640  18.6373170  44.8138360  18.6375630
  18.3681560  43.7282510  17.6172990  30.0819240  45.9292430  29.1578500
  29.3500360  46.4379240  29.5068600  29.6843580  45.1122410  28.8567280
  26.5196630  42.6046630  27.5630990  26.5232690  42.1636580  26.7135530
  27.4147750  42.9263960  27.6702810  22.3699010  42.4873120  26.5225200
  22.0299060  42.9648350  27.2792250  21.6076330  42.0338240  26.1626300
  26.5816780  43.6058710  20.5537750  26.7029600  43.5645190  21.5023570
  26.1965290  44.4682860  20.3984480  30.5445150  41.3826110  28.5701440
  30.5617890  41.8334760  29.4143290  30.2960730  40.4831750  28.7834880
  25.5938280  45.9159850  19.9521050  25.0255180  45.4678100  19.3256960
  26.3027280  46.2752630  19.4186200  20.6707460  49.8171870  33.8287780
  20.2862250  49.1765540  34.4270740  20.9819650  50.5207990  34.3982510
  26.8204600  46.6648410  29.3096400  27.1874730  46.1906980  30.0557740
  26.6309660  47.5389980  29.6504740  19.6845090  41.4092100  25.4389870
  19.3992010  41.0447770  26.2768490  19.6223950  40.6772560  24.8253010
  24.6103970  45.7057050  31.6280610  24.3061040  46.5849030  31.8530970
  25.5650430  45.7656840  31.6638050  23.1385760  49.9118040  22.2247460
  22.3648020  49.3715660  22.0646180  23.8680390  49.3924650  21.8865220
  33.8973740  48.9083400  28.0173850  34.6172860  49.4038690  27.6269960
  33.6955560  48.2301290  27.3727720  29.3583680  40.3021360  22.1603240
  28.5448290  39.8034530  22.0848550  29.1645630  41.1419610  21.7439590
  29.2792540  48.9792460  33.9042850  29.2129850  48.0588130  33.6500440
  28.6497680  49.0767900  34.6187490  32.0732070  44.6741010  20.4565400
  32.9611690  44.9858240  20.2816740  32.0437160  43.8013260  20.0645980
  23.1823160  49.5798420  25.8626270  23.7001830  48.7766680  25.8083160
  22.7307180  49.5177560  26.7043100  28.0692660  50.8464700  21.1353570
  28.4108360  51.5906930  20.6396890  27.2405370  51.1595820  21.4978400
  20.6667700  46.5459790  32.7751970  20.3082640  47.2113640  33.3625310
  20.3722260  45.7143340  33.1464590  23.8680820  47.0044030  35.6591520
  23.5680960  47.1501210  34.7619340  24.6392060  46.4449320  35.5664910
  29.2109270  51.8013030  33.6546650  29.2253810  50.8693990  33.4365560
  28.5034370  51.8872790  34.2936420  34.3446340  45.9852850  19.9245260
  34.2610060  46.4167070  19.0741700  35.0640530  46.4451200  20.3572080
  35.4220480  48.4420370  33.0015230  34.6968670  49.0349150  32.8044620
  35.9495940  48.4343910  32.2028600  35.3733590  52.8395110  22.6527390
  34.7309750  52.1850730  22.9271110  34.9864250  53.2450200  21.8768060
  30.9520070  50.1680540  26.4999080  31.3043890  49.5708670  25.8400450
  30.0682400  49.8424770  26.6707330  27.0383350  50.9278230  23.9069490
  27.7254480  51.4747440  24.2877080  26.2515770  51.4718960  23.9419100
  19.1775750  46.5451050  19.3986570  20.0470600  46.8275850  19.6822490
  18.6866070  47.3586920  19.2835380  26.3410560  47.9324260  23.5194850
  26.7973340  48.7429510  23.7455040  25.9898770  47.6147400  24.3513340
  28.6443170  53.4430600  30.7487150  29.2885390  53.6489980  31.4260570
  29.0072610  52.6819000  30.2958000  22.2422340  38.2761910  23.9917370
  22.1136970  38.2679810  24.9402290  21.4184360  38.6145000  23.6408380
  29.9175250  51.4462950  29.4664600  30.5597480  50.7456110  29.5796770
  30.4424600  52.2261390  29.2861490  33.7630970  51.7311570  19.1903740
  33.5368550  51.0142010  19.7828380  33.3727170  51.4824010  18.3525490
  31.6912870  52.2457850  32.6700660  32.0269110  52.8324540  33.3478580
  30.7713210  52.1150560  32.8998450  19.5447000  55.7578430  19.9648200
  19.9044640  56.3567770  19.3105470  19.4039340  56.3038320  20.7383230
  19.2416270  40.0353030  33.4524070  18.5274790  40.2349950  34.0576680
  19.6611310  39.2592600  33.8238870  33.3447220  49.6483510  20.8517900
  33.0568920  50.1096200  21.6395780  34.1399390  49.1881280  21.1202120
  19.5288860  54.0233290  34.4390600  19.6379980  53.0828030  34.2985990
  18.8769420  54.2888040  33.7904330  27.5201450  52.2949180  35.8388720
  27.1998320  51.5758420  36.3834410  26.8459810  52.9704250  35.9124780
  25.5615620  53.1409630  20.7821870  25.5525720  53.8739320  20.1666380
  24.6413980  52.8941210  20.8748830  21.1622260  48.3624520  21.5268630
  20.5550210  49.1023420  21.5363930  21.6371610  48.4523880  20.7006830
  30.7355050  42.5275340  31.2025520  31.1035870  41.7070550  31.5305090
  29.8753250  42.5877230  31.6181170  34.1017080  41.4832280  22.0113080
  33.4730240  41.5877950  21.2971310  33.6069000  41.7029060  22.8006960
  28.5475220  53.2037870  19.4447060  28.6487200  53.0001860  18.5149040
  27.6476960  52.9496150  19.6494840  26.0701110  43.7618230  23.4270960
  25.3617260  44.2304570  23.8684570  26.3545590  43.1040240  24.0616150
  27.6957040  45.1814930  31.4263490  28.1942290  45.6560750  32.0915340
  27.8379990  44.2578450  31.6333520  30.1016540  40.4868890  24.8666750
  29.9784320  40.5055020  23.9176260  31.0501100  40.5347830  24.9865150
  27.1893330  55.7224190  24.1394730  27.4434830  55.6845580  23.2174100
  26.2405810  55.5957520  24.1322980  24.2736130  42.0703310  20.8021670
  25.1226660  42.5073460  20.7361860  23.9067400  42.3823570  21.6293730
  34.9023900  41.3982890  32.2691880  34.3997500  42.1388290  32.6085690
  35.7180560  41.7866890  31.9528670  33.1945910  46.6416070  25.7153240
  32.2536050  46.6566300  25.8900930  33.5089980  45.8552030  26.1613540
  23.1727550  48.3235670  19.2757200  23.9390820  48.2117030  19.8382630
  23.2502240  47.6273640  18.6233970  21.8674310  45.7560740  19.9590090
  21.9477900  44.8088250  20.0707490  22.7594060  46.0867620  20.0650750
  35.1971490  53.8124920  27.3907500  35.3218910  54.6356090  27.8631310
  36.0637050  53.6015650  27.0431650  22.6689020  55.9056130  27.0624630
  23.4051500  55.3571590  27.3333200  23.0529940  56.7712140  26.9230620
  19.5534500  51.9729700  22.9366140  18.6274280  52.2150840  22.9271550
  20.0190930  52.8003960  22.8150890  21.6747300  55.0902200  36.2510210
  22.4760030  55.4114250  36.6645610  21.1599120  54.7297780  36.9730120
  25.7791330  55.0786440  18.8850200  26.5719940  55.3675270  18.4331990
  25.2595680  54.6478610  18.2062680  30.5111930  51.1982070  36.1985620
  29.9050090  51.2213670  35.4581370  30.2066040  50.4665110  36.7352870
  31.9412300  54.9262360  34.8095030  32.8934050  54.8420380  34.7595270
  31.7940520  55.5904070  35.4828820  34.8321500  54.3056570  20.3086940
  34.5463010  53.8921710  19.4941120  34.6341050  55.2344280  20.1887460
  19.3945110  47.5775660  35.1946260  19.8984130  46.9982940  35.7662490
  18.6552530  47.8615890  35.7322630  26.2968730  50.2989850  18.7492550
  26.1919370  49.6842200  19.4753930  26.1292950  49.7755740  17.9655560
  26.4483050  48.9846650  34.7281780  25.6828720  49.5531650  34.6436450
  26.6299010  48.6922860  33.8350010  29.5371460  49.3609880  19.3534540
  28.9881560  49.8079180  19.9977280  30.1590720  48.8559130  19.8772210
  33.5906400  50.7151980  35.2856800  34.3315870  51.0527740  34.7824260
  32.8279080  50.8844040  34.7326570  21.4268190  45.7205250  36.0896330
  21.4673530  45.4219120  36.9981560  22.2813690  46.1212860  35.9303850
  25.2046580  48.3200800  21.2499840  25.6263000  48.1540670  22.0931230
  25.3297420  47.5101030  20.7554980  23.3674000  44.2997350  34.0570820
  22.8370460  43.8088300  33.4294160  24.0362070  44.7281550  33.5228750
  27.7174220  47.3438410  18.4976940  28.2379880  46.6287430  18.1318090
  28.3642620  47.9824280  18.7977450  32.2652060  48.7666810  33.8212010
  32.6793080  48.9211890  34.6702430  31.3303060  48.8922030  33.9837790
  32.7374230  46.1062970  35.8251160  33.3195000  45.3515290  35.7371640
  32.9136000  46.6370410  35.0482640  23.8546300  41.2659720  34.1368110
  23.7603170  40.6480470  33.4118980  23.2743690  41.9926010  33.9098020
  26.6207740  39.8232960  31.1695500  26.1725040  39.8457220  30.3241050
  25.9872940  39.4251980  31.7665800  27.0267290  48.7187290  31.7907940
  27.4455400  49.5620020  31.6184180  26.1075920  48.8559330  31.5614720
  29.3631190  46.4503470  33.1745780  29.4827400  45.8544610  33.9140620
  30.2225190  46.4873160  32.7547080  31.7019090  47.0040660  31.7508290
  31.1754310  47.5283280  31.1473430  32.0450430  47.6368050  32.3818020
  24.1005480  44.3934030  18.1958000  23.8994540  43.5301390  18.5571340
  23.9297530  44.3067390  17.2579600  24.8774710  55.0240300  32.9065670
  24.3395800  55.7486360  32.5874370  25.1308670  54.5470640  32.1163010
  26.1299960  42.9924820  34.4321600  26.7199650  42.6840670  35.1199420
  25.3120200  42.5204570  34.5881500  30.9493390  42.6090630  34.6654620
  30.2608910  41.9472170  34.6004610  31.6699410  42.1628900  35.1103080
  31.5793790  39.2042260  20.7244880  31.8596080  38.3610160  21.0804300
  30.8059520  39.4365370  21.2383630  22.8988280  41.4934650  18.1835880
  23.2014180  41.5002080  17.2755030  23.6382870  41.1432510  18.6803540
  27.7336920  56.2591510  33.1652320  27.6595620  57.1626650  33.4724690
  26.8315760  55.9403410  33.1374390  26.1173210  40.4369270  19.1692080
  25.7695210  39.7593260  18.5894530  26.3185980  39.9758780  19.9835470
  28.2822250  55.4250020  20.7878680  29.1773040  55.7634990  20.8097440
  28.3139880  54.7029430  20.1602960  21.9218410  50.7977070  19.0165680
  22.3593280  51.3406740  19.6723260  22.4066140  49.9724020  19.0262020
  19.1364210  53.5866100  26.4685940  19.4667220  52.7187160  26.2364580
  19.5655210  53.7924620  27.2990900  23.7326130  51.9175110  24.1287910
  23.4321670  51.7940080  25.0291820  23.6263620  51.0583700  23.7203640
  19.6254420  54.4536690  29.2067570  19.1885410  54.6337490  30.0391720
  20.1932100  55.2111310  29.0649290  35.2616600  53.9553690  33.4944880
  34.6618590  54.0146250  32.7508800  35.3910500  53.0158670  33.6241730
  36.5018050  51.6971510  18.8314590  35.6711010  51.7648160  19.3021820
  36.6789880  52.5875630  18.5281450  35.9574510  48.4418990  21.3348790
  36.7193420  49.0115640  21.4408480  35.9728880  47.8746190  22.1057100
  19.4578850  46.9656920  25.5656450  18.8027690  46.6968560  24.9216150
  20.2956800  46.8561400  25.1158430  36.9634480  49.2969090  26.1790720
  37.3343310  48.5136410  25.7726690  37.6036410  49.9858190  26.0008020
  33.9468240  50.6805670  31.5921040  33.1328080  51.1102830  31.8546830
  34.3542440  51.2924080  30.9790090  36.0093680  48.7353360  18.4921310
  36.2842520  49.6432240  18.3640530  35.8204420  48.6715890  19.4283300
  32.4069290  41.7598210  19.7874940  32.8254170  41.5729190  18.9471600
  32.1005350  40.9077260  20.0977870  35.9059020  46.6722350  23.4850740
  35.5302620  45.9050280  23.0532030  35.1762140  47.0545050  23.9725670
  20.4954780  47.3509490  30.1059790  20.8627820  47.2636890  30.9855810
  19.9265600  46.5876040  30.0066650  35.2958640  45.8193870  33.1190260
  35.0644730  45.5906620  32.2188210  35.5563190  46.7393420  33.0735150
  20.0470780  44.2618580  34.0118210  19.1526830  44.2285340  34.3511920
  20.5868330  44.4605370  34.7769460  18.6716930  44.1755850  21.5081780
  17.7681010  44.4386050  21.3333440  19.1557550  44.4467020  20.7281740
  35.1809980  44.8979840  26.7857980  35.7047460  44.4042490  26.1548150
  35.7669400  45.0330200  27.5305550  35.3599700  44.9819710  30.3077530
  34.4102410  44.9483250  30.4222520  35.5412710  45.8919820  30.0727300
  21.2144140  43.2321390  19.4176160  21.9235840  42.8104610  18.9323440
  20.4984080  43.2996620  18.7859510  20.8618300  39.2860720  18.4578810
  21.5846430  39.8269660  18.7760030  21.1342820  39.0124140  17.5820350
  34.6709950  44.1553190  22.7250390  35.1669070  43.9224060  23.5099270
  34.4726020  43.3165030  22.3088030  20.5510490  38.5366910  28.3601430
  21.1986680  37.9864290  27.9196590  20.9712330  38.7910060  29.1817240
  36.0997110  42.7914140  25.2588070  35.9896390  42.6370180  26.1970340
  36.8604700  42.2635080  25.0163480  34.4462830  38.7308270  31.7171070
  35.0835050  39.3442410  32.0830260  34.5937720  38.7668930  30.7720300
  36.9887380  40.6222060  18.4994210  37.9136690  40.4903240  18.2912500
  36.9663170  40.7014880  19.4530660  37.0625870  41.3932720  21.1250920
  36.2677370  41.3277840  21.6543830  37.2669150  42.3283360  21.1136270
  34.0044290  55.4324270  25.1189310  34.6003360  55.1108840  24.4423730
  34.2622440  54.9596090  25.9102580  20.3042490  38.6922580  31.1026750
  19.9557310  39.1486400  31.8684930  19.9730190  37.7979710  31.1849180
  21.9106860  51.8642180  35.2679940  21.8676490  51.4935090  36.1494400
  22.0417870  52.8019750  35.4081760  25.6112890  53.4201770  30.8689660
  25.3704250  53.6876330  29.9820180  26.5515530  53.5907500  30.9240520
  27.8167310  39.8834460  34.6246170  27.7556200  40.4756290  35.3741580
  28.7567690  39.7760420  34.4796430  30.4541870  39.5404520  34.2638460
  31.0682280  39.8583810  33.6019540  30.9991430  39.0553110  34.8834320
  36.8717050  55.4396150  31.6700300  36.3775330  55.8365020  30.9527430
  36.2630340  54.8145360  32.0637580  20.9763130  38.2198780  34.3777520
  21.5246120  38.0386830  33.6143630  21.0418440  37.4292890  34.9133830
  21.7494890  54.8104430  32.3877720  21.1555210  54.6789130  33.1267760
  21.7418730  53.9742570  31.9219820  31.1949910  38.1036660  30.5907750
  30.3209750  38.4371770  30.3880680  31.0860660  37.6309840  31.4159620
  32.1021890  40.3107530  31.9749470  31.7735250  39.4959290  31.5951200
  33.0504190  40.2677340  31.8515160  34.5556500  56.0819570  28.9487040
  34.0959470  56.8335380  28.5745060  33.9268960  55.3626040  28.8901840
  21.3807120  52.1762810  31.3385760  20.6541180  51.5568100  31.2711710
  21.4416270  52.5703420  30.4683840  24.9852220  54.3907810  28.1235170
  25.5017240  53.7795170  27.5983430  25.6349600  54.8936590  28.6146180
  27.7247720  55.2816300  28.9504150  28.0125530  55.0270600  28.0737160
  28.2370940  54.7293660  29.5409720  28.9424730  39.0206500  29.5300660
  28.1596520  39.4952000  29.8097420  28.6487660  38.1161330  29.4213840
  33.4945800  39.7229600  27.5749750  33.9353890  39.6674700  26.7271350
  33.2253390  40.6387610  27.6459930  35.3584370  39.3544840  25.5858570
  35.2972770  38.4106060  25.4389590  36.1376400  39.4624930  26.1312030
  19.6637120  55.4937200  24.5482520  19.4959160  54.8607880  25.2464410
  18.7971630  55.6996600  24.1976710  20.2865140  39.3253980  22.0514380
  21.0444500  39.4382860  21.4778410  19.8242310  40.1623180  22.0057810
  26.8278950  41.4393250  25.0416690  26.0153460  41.0650140  24.7012570
  27.3320590  40.6838330  25.3437880  31.3303930  38.1035700  26.2799760
  31.9333300  38.6755910  26.7548280  30.5896920  38.6675140  26.0573660
  34.4738530  38.5057260  21.5540040  34.6689160  39.4040710  21.8207470
  33.6868400  38.2744340  22.0472990  21.2699820  54.1870430  21.9932660
  20.7447440  54.5678460  21.2894620  21.1944400  54.8121200  22.7142370
  22.6590290  39.8518030  20.5916350  23.1883050  39.0647830  20.4624300
  23.2918610  40.5309220  20.8251880  24.8528130  39.5893170  23.6461740
  24.2230870  38.8880480  23.8131870  24.3133270  40.3497300  23.4294900
  27.7920080  56.2032400  36.3172350  28.7187390  55.9676670  36.3608310
  27.7770510  57.0304400  35.8358380  36.0265140  55.7457970  23.3146600
  36.2017330  55.0595710  22.6707520  35.3286710  56.2705020  22.9223270
  24.9783690  38.8677150  36.0814230  24.6967960  39.3710750  35.3175050
  25.3603390  38.0698900  35.7156360  23.8692790  56.1352810  20.8681910
  24.6011610  55.8512090  20.3205800  24.1286460  55.8966090  21.7581290
  23.0307580  52.2517540  20.8728240  22.4016460  52.7202640  21.4214070
  23.1455410  51.4066760  21.3074430  34.3597640  55.4302260  36.1413390
  35.1522960  54.9351490  35.9339350  34.6530790  56.1092400  36.7489000
  30.4857300  46.3023200   7.0229440  30.4051350  45.3877810   6.7521150
  30.0721720  46.7990270   6.3169150  28.6175340  48.0802220   8.9038710
  27.8417440  47.6002660   9.1937280  29.2688270  47.4007870   8.7294870
  22.6341170  48.3922030   9.7814470  21.8026050  48.1370740  10.1810980
  23.2422150  48.4632800  10.5172390  32.6382770  52.4862410   7.6837840
  32.1764300  51.7149650   8.0125010  33.4508320  52.5128480   8.1890290
  22.6142430  52.4262120   9.9772490  22.9170470  51.5359860   9.7982710
  23.3586020  52.9832340   9.7494740  21.0433120  43.3523920   3.5656860
  20.1549820  43.6939890   3.4636740  21.3274310  43.1524240   2.6737690
  19.0066130  45.9529570   9.4496560  19.5782240  45.1851770   9.4500200
  19.0067670  46.2518330   8.5403170  28.8646080  54.7720420   7.3041830
  28.2457520  55.2277920   6.7336270  29.7197860  54.9271880   6.9031530
  28.0584330  50.7559410   8.9108870  27.9892610  49.8149350   8.7498000
  28.8204190  50.8460820   9.4831440  20.2491000  41.3613930  11.2365490
  20.0693840  40.4639680  11.5168250  19.8471080  41.9085800  11.9112440
  29.0889500  43.5629790   9.1377800  29.4654320  42.6901670   9.0251470
  28.9909010  43.8988490   8.2468240  23.2194510  41.9355420   4.5995240
  23.3261260  42.8359150   4.9064000  22.3086870  41.8873390   4.3089890
  32.8713620  41.0580230   6.0706140  33.6923240  40.5676800   6.1131620
  32.9047700  41.6477890   6.8237980  20.8677670  43.8574430   9.8447830
  21.5487780  44.1212800  10.4635230  20.5525720  43.0175300  10.1785840
  25.0602240  44.9041790   8.9320420  25.5680460  45.4022760   9.5725440
  25.5915480  44.1276990   8.7559780  37.1613170  43.0746980  12.6349770
  36.4565340  43.4628690  12.1164880  37.4271090  43.7697270  13.2370700
  23.3438340  39.5440350  13.1983840  23.3456780  40.0612740  12.3929740
  22.5142650  39.0670530  13.1753770  29.7309430  49.6559660   4.6973740
  29.1126700  50.1209110   4.1336460  30.2432680  50.3487140   5.1143250
  24.5941190  49.1835530  11.3757340  24.2610570  49.8104450  12.0178410
  24.7707870  49.7097410  10.5959010  33.1075100  42.9980610   8.8433680
  32.4030670  43.2865500   9.4236790  33.4687260  43.8080720   8.4833240
  23.0253670  41.2550310  11.2054290  23.3670480  42.0992360  10.9108160
  22.0869480  41.4034050  11.3219630  23.8060290  51.1516330  13.1906520
  24.4234290  51.8267410  12.9090970  22.9453410  51.5604310  13.0994020
  19.0992630  50.3416190   2.0713370  18.7220610  50.8303290   1.3398270
  19.3565700  51.0141470   2.7019900  34.7237880  52.6155740  11.1061160
  34.0401400  53.2854850  11.0977830  35.2632170  52.8136390  10.3406020
  36.1762020  42.4435400   9.2342890  35.2286930  42.4774380   9.3658320
  36.5012010  43.2574350   9.6192250  26.7081560  38.7432580   7.5298880
  27.0156540  38.1879470   6.8134380  25.7782260  38.8777040   7.3471870
  32.2596620  54.4599870   9.8206340  32.2723780  54.0562160   8.9528600
  31.7071840  55.2347160   9.7167770  33.5542040  51.1816090   4.9096510
  33.4438370  50.2390420   5.0345930  33.5510290  51.5431730   5.7959270
  31.6582060  49.3629710  11.1488950  32.0750850  49.1489820  10.3142410
  32.3821880  49.6202500  11.7197570  29.0962320  46.8081410   4.2659000
  28.1691600  46.7418790   4.4947470  29.2487140  47.7461540   4.1514240
  35.6044160  47.7616930  11.2405190  34.7762790  47.8310020  10.7655320
  36.1994640  48.3471240  10.7721020  33.1259610  48.3701710   4.7694250
  32.5072030  48.0321260   4.1220550  33.1084060  47.7261470   5.4773440
  32.5686170  44.5486250  12.1860060  32.1557350  45.3739960  12.4400050
  31.8362120  43.9631290  11.9936420  24.7018960  47.3346150   7.0478730
  24.2975960  46.6223400   6.5524630  24.7882080  46.9899390   7.9366770
  25.1700660  51.0213710   9.2117940  24.8728950  50.4159180   8.5325720
  26.1200480  51.0591020   9.1007300  23.4147580  44.1089360  10.8277770
  23.9662170  44.2184700  10.0531020  23.9291090  44.4826960  11.5433000
  33.2586270  54.5945580  12.8741040  32.7816830  55.4017770  12.6813650
  32.5748060  53.9423910  13.0267250  24.2619090  50.7595400  15.8625740
  23.3647620  50.9835370  16.1099140  24.2871960  50.8830340  14.9137140
  31.3024310  47.6088520   1.7767000  31.7417590  46.7710950   1.6304820
  32.0152730  48.2417920   1.8631140  23.0890310  47.6308720  14.4383110
  22.9498080  48.5031520  14.8070510  22.2071670  47.2881530  14.2931050
  29.4119690  52.5484590   5.7448240  29.8515600  53.2908920   5.3303630
  29.3506580  52.7911160   6.6687200  24.8870660  53.5730420  16.6468260
  24.8586090  53.9773370  15.7796690  24.7235630  52.6440780  16.4839860
  21.4023590  46.2291130   4.5485380  21.2821190  46.9553220   3.9366650
  21.0924480  45.4594040   4.0713290  36.8385480  54.3557520  17.9432430
  37.3145200  54.8340410  18.6221510  37.4592640  54.2875010  17.2177930
  19.0408960  49.4006270  10.3554020  19.1189380  49.5355040   9.4109740
  19.6550640  48.6922160  10.5482140  20.2856590  51.1006460   6.7660200
  19.8784670  51.2421050   5.9113800  21.1769600  50.8166620   6.5631410
  36.2418730  51.5470370  15.1032440  36.3681790  51.3082250  14.1849620
  36.2840110  50.7154910  15.5754520  30.1035470  55.2498370  13.6727250
  30.6180140  55.1606380  14.4749680  29.2604550  55.5958070  13.9655160
  32.0789870  55.5353710   3.1011250  31.9191010  55.2456650   3.9993080
  31.9136580  54.7593840   2.5656480  24.5578250  55.3152240   4.8782870
  24.3820730  54.3987780   4.6650670  23.7033990  55.6739530   5.1180670
  31.3465930  54.6703980   5.7357740  31.8022880  53.8893360   6.0496360
  31.6858450  55.3810800   6.2798920  36.0942740  43.6002830  16.0682180
  35.4787010  44.1082500  15.5397640  35.7739160  42.7001160  16.0108120
  19.0968480  50.4420440  12.8948480  19.2599520  49.9725800  12.0767850
  19.5620930  49.9344000  13.5597320  23.8687250  39.5726200   7.9309050
  23.4255400  40.3535740   7.5993570  24.4272240  39.8956090   8.6379990
  28.1557060  42.4394720  13.5344370  27.6936430  42.6477740  14.3464310
  27.7535170  41.6254070  13.2315040  33.1561570  43.6603670  14.6641030
  32.3055160  43.3609420  14.9850100  32.9963360  43.9045680  13.7524850
  30.2511280  45.1605420  16.7639820  30.5764690  44.3269170  16.4242050
  31.0391610  45.6833940  16.9118150  26.9846070  39.1936900   2.8114880
  26.3600250  39.1896770   3.5368190  26.8976190  38.3267860   2.4150850
  25.9063150  40.1173530   9.7898650  26.2035480  41.0236360   9.7090670
  26.4548710  39.6292310   9.1758220  23.6601470  44.6959770   5.6590300
  23.4342390  44.4796940   6.5636920  22.8794000  45.1288230   5.3136270
  30.8899230  44.7023140   4.2580950  30.2908120  45.4258940   4.0744570
  31.4378840  44.6399920   3.4757400  26.1000680  45.5945350  16.3250570
  26.0044280  44.6540080  16.1750970  26.9432660  45.8160420  15.9298640
  29.4964100  43.3386680   6.2884230  29.8893670  43.6558880   5.4752920
  29.8580950  42.4598560   6.4028750  21.2311220  42.0059020  14.4784350
  20.8374610  42.8534230  14.6857130  20.5429620  41.3685390  14.6692990
  27.8056270  42.0893990  17.5481090  27.1154590  41.8966190  18.1827180
  28.5488570  42.3728630  18.0805390  18.5328270  39.9287480   8.5114430
  18.2441320  40.4990340   9.2239410  19.2774030  39.4491930   8.8745660
  30.0819240  45.9292430  10.3835010  29.3500360  46.4379240  10.7325110
  29.6843580  45.1122410  10.0823790  26.5196630  42.6046630   8.7887500
  26.5232690  42.1636580   7.9392040  27.4147750  42.9263960   8.8959320
  22.3699010  42.4873120   7.7481710  22.0299060  42.9648350   8.5048760
  21.6076330  42.0338240   7.3882810  26.5816780  43.6058710   1.7794260
  26.7029600  43.5645190   2.7280080  26.1965290  44.4682860   1.6240990
  30.5445150  41.3826110   9.7957950  30.5617890  41.8334760  10.6399800
  30.2960730  40.4831750  10.0091390  33.9715900  38.7958290  15.6344330
  34.2961670  38.0647950  16.1602310  34.0072410  38.4771930  14.7325320
  20.6707460  49.8171870  15.0544290  20.2862250  49.1765540  15.6527250
  20.9819650  50.5207990  15.6239020  26.8204600  46.6648410  10.5352910
  27.1874730  46.1906980  11.2814250  26.6309660  47.5389980  10.8761250
  19.6845090  41.4092100   6.6646380  19.3992010  41.0447770   7.5025000
  19.6223950  40.6772560   6.0509520  24.6103970  45.7057050  12.8537120
  24.3061040  46.5849030  13.0787480  25.5650430  45.7656840  12.8894560
  23.1385760  49.9118040   3.4503970  22.3648020  49.3715660   3.2902690
  23.8680390  49.3924650   3.1121730  33.8973740  48.9083400   9.2430360
  34.6172860  49.4038690   8.8526470  33.6955560  48.2301290   8.5984230
  29.3583680  40.3021360   3.3859750  28.5448290  39.8034530   3.3105060
  29.1645630  41.1419610   2.9696100  29.2792540  48.9792460  15.1299360
  29.2129850  48.0588130  14.8756950  28.6497680  49.0767900  15.8444000
  23.1823160  49.5798420   7.0882780  23.7001830  48.7766680   7.0339670
  22.7307180  49.5177560   7.9299610  28.0692660  50.8464700   2.3610080
  28.4108360  51.5906930   1.8653400  27.2405370  51.1595820   2.7234910
  20.6667700  46.5459790  14.0008480  20.3082640  47.2113640  14.5881820
  20.3722260  45.7143340  14.3721100  23.8680820  47.0044030  16.8848030
  23.5680960  47.1501210  15.9875850  24.6392060  46.4449320  16.7921420
  29.2109270  51.8013030  14.8803160  29.2253810  50.8693990  14.6622070
  28.5034370  51.8872790  15.5192930  35.4220480  48.4420370  14.2271740
  34.6968670  49.0349150  14.0301130  35.9495940  48.4343910  13.4285110
  35.3733590  52.8395110   3.8783900  34.7309750  52.1850730   4.1527620
  34.9864250  53.2450200   3.1024570  30.9520070  50.1680540   7.7255590
  31.3043890  49.5708670   7.0656960  30.0682400  49.8424770   7.8963840
  27.0383350  50.9278230   5.1326000  27.7254480  51.4747440   5.5133590
  26.2515770  51.4718960   5.1675610  26.3410560  47.9324260   4.7451360
  26.7973340  48.7429510   4.9711550  25.9898770  47.6147400   5.5769850
  28.6443170  53.4430600  11.9743660  29.2885390  53.6489980  12.6517080
  29.0072610  52.6819000  11.5214510  22.2422340  38.2761910   5.2173880
  22.1136970  38.2679810   6.1658800  21.4184360  38.6145000   4.8664890
  29.9175250  51.4462950  10.6921110  30.5597480  50.7456110  10.8053280
  30.4424600  52.2261390  10.5118000  31.6912870  52.2457850  13.8957170
  32.0269110  52.8324540  14.5735090  30.7713210  52.1150560  14.1254960
  19.2416270  40.0353030  14.6780580  18.5274790  40.2349950  15.2833190
  19.6611310  39.2592600  15.0495380  33.3447220  49.6483510   2.0774410
  33.0568920  50.1096200   2.8652290  34.1399390  49.1881280   2.3458630
  19.5288860  54.0233290  15.6647110  19.6379980  53.0828030  15.5242500
  18.8769420  54.2888040  15.0160840  27.5201450  52.2949180  17.0645230
  27.1998320  51.5758420  17.6090920  26.8459810  52.9704250  17.1381290
  25.5615620  53.1409630   2.0078380  25.5525720  53.8739320   1.3922890
  24.6413980  52.8941210   2.1005340  21.1622260  48.3624520   2.7525140
  20.5550210  49.1023420   2.7620440  21.6371610  48.4523880   1.9263340
  30.7355050  42.5275340  12.4282030  31.1035870  41.7070550  12.7561600
  29.8753250  42.5877230  12.8437680  34.1017080  41.4832280   3.2369590
  33.4730240  41.5877950   2.5227820  33.6069000  41.7029060   4.0263470
  26.0701110  43.7618230   4.6527470  25.3617260  44.2304570   5.0941080
  26.3545590  43.1040240   5.2872660  27.6957040  45.1814930  12.6520000
  28.1942290  45.6560750  13.3171850  27.8379990  44.2578450  12.8590030
  30.1016540  40.4868890   6.0923260  29.9784320  40.5055020   5.1432770
  31.0501100  40.5347830   6.2121660  27.1893330  55.7224190   5.3651240
  27.4434830  55.6845580   4.4430610  26.2405810  55.5957520   5.3579490
  24.2736130  42.0703310   2.0278180  25.1226660  42.5073460   1.9618370
  23.9067400  42.3823570   2.8550240  34.9023900  41.3982890  13.4948390
  34.3997500  42.1388290  13.8342200  35.7180560  41.7866890  13.1785180
  33.1945910  46.6416070   6.9409750  32.2536050  46.6566300   7.1157440
  33.5089980  45.8552030   7.3870050  35.1971490  53.8124920   8.6164010
  35.3218910  54.6356090   9.0887820  36.0637050  53.6015650   8.2688160
  22.6689020  55.9056130   8.2881140  23.4051500  55.3571590   8.5589710
  23.0529940  56.7712140   8.1487130  19.5534500  51.9729700   4.1622650
  18.6274280  52.2150840   4.1528060  20.0190930  52.8003960   4.0407400
  21.6747300  55.0902200  17.4766720  22.4760030  55.4114250  17.8902120
  21.1599120  54.7297780  18.1986630  30.5111930  51.1982070  17.4242130
  29.9050090  51.2213670  16.6837880  30.2066040  50.4665110  17.9609380
  31.9412300  54.9262360  16.0351540  32.8934050  54.8420380  15.9851780
  31.7940520  55.5904070  16.7085330  19.3945110  47.5775660  16.4202770
  19.8984130  46.9982940  16.9919000  18.6552530  47.8615890  16.9579140
  26.4483050  48.9846650  15.9538290  25.6828720  49.5531650  15.8692960
  26.6299010  48.6922860  15.0606520  33.5906400  50.7151980  16.5113310
  34.3315870  51.0527740  16.0080770  32.8279080  50.8844040  15.9583080
  21.4268190  45.7205250  17.3152840  21.4673530  45.4219120  18.2238070
  22.2813690  46.1212860  17.1560360  25.2046580  48.3200800   2.4756350
  25.6263000  48.1540670   3.3187740  25.3297420  47.5101030   1.9811490
  23.3674000  44.2997350  15.2827330  22.8370460  43.8088300  14.6550670
  24.0362070  44.7281550  14.7485260  32.2652060  48.7666810  15.0468520
  32.6793080  48.9211890  15.8958940  31.3303060  48.8922030  15.2094300
  32.7374230  46.1062970  17.0507670  33.3195000  45.3515290  16.9628150
  32.9136000  46.6370410  16.2739150  23.8546300  41.2659720  15.3624620
  23.7603170  40.6480470  14.6375490  23.2743690  41.9926010  15.1354530
  26.6207740  39.8232960  12.3952010  26.1725040  39.8457220  11.5497560
  25.9872940  39.4251980  12.9922310  27.0267290  48.7187290  13.0164450
  27.4455400  49.5620020  12.8440690  26.1075920  48.8559330  12.7871230
  29.3631190  46.4503470  14.4002290  29.4827400  45.8544610  15.1397130
  30.2225190  46.4873160  13.9803590  31.7019090  47.0040660  12.9764800
  31.1754310  47.5283280  12.3729940  32.0450430  47.6368050  13.6074530
  24.8774710  55.0240300  14.1322180  24.3395800  55.7486360  13.8130880
  25.1308670  54.5470640  13.3419520  26.1299960  42.9924820  15.6578110
  26.7199650  42.6840670  16.3455930  25.3120200  42.5204570  15.8138010
  30.9493390  42.6090630  15.8911130  30.2608910  41.9472170  15.8261120
  31.6699410  42.1628900  16.3359590  31.5793790  39.2042260   1.9501390
  31.8596080  38.3610160   2.3060810  30.8059520  39.4365370   2.4640140
  27.7336920  56.2591510  14.3908830  27.6595620  57.1626650  14.6981200
  26.8315760  55.9403410  14.3630900  28.2822250  55.4250020   2.0135190
  29.1773040  55.7634990   2.0353950  28.3139880  54.7029430   1.3859470
  19.1364210  53.5866100   7.6942450  19.4667220  52.7187160   7.4621090
  19.5655210  53.7924620   8.5247410  23.7326130  51.9175110   5.3544420
  23.4321670  51.7940080   6.2548330  23.6263620  51.0583700   4.9460150
  19.6254420  54.4536690  10.4324080  19.1885410  54.6337490  11.2648230
  20.1932100  55.2111310  10.2905800  35.2616600  53.9553690  14.7201390
  34.6618590  54.0146250  13.9765310  35.3910500  53.0158670  14.8498240
  35.9574510  48.4418990   2.5605300  36.7193420  49.0115640   2.6664990
  35.9728880  47.8746190   3.3313610  19.4578850  46.9656920   6.7912960
  18.8027690  46.6968560   6.1472660  20.2956800  46.8561400   6.3414940
  36.9634480  49.2969090   7.4047230  37.3343310  48.5136410   6.9983200
  37.6036410  49.9858190   7.2264530  33.9468240  50.6805670  12.8177550
  33.1328080  51.1102830  13.0803340  34.3542440  51.2924080  12.2046600
  35.9059020  46.6722350   4.7107250  35.5302620  45.9050280   4.2788540
  35.1762140  47.0545050   5.1982180  20.4954780  47.3509490  11.3316300
  20.8627820  47.2636890  12.2112320  19.9265600  46.5876040  11.2323160
  35.2958640  45.8193870  14.3446770  35.0644730  45.5906620  13.4444720
  35.5563190  46.7393420  14.2991660  20.0470780  44.2618580  15.2374720
  19.1526830  44.2285340  15.5768430  20.5868330  44.4605370  16.0025970
  33.7346710  41.0450300  17.1226470  34.6116890  41.0533700  17.5060470
  33.7467550  40.3081140  16.5118820  18.6716930  44.1755850   2.7338290
  17.7681010  44.4386050   2.5589950  19.1557550  44.4467020   1.9538250
  35.1809980  44.8979840   8.0114490  35.7047460  44.4042490   7.3804660
  35.7669400  45.0330200   8.7562060  35.3599700  44.9819710  11.5334040
  34.4102410  44.9483250  11.6479030  35.5412710  45.8919820  11.2983810
  34.6709950  44.1553190   3.9506900  35.1669070  43.9224060   4.7355780
  34.4726020  43.3165030   3.5344540  20.5510490  38.5366910   9.5857940
  21.1986680  37.9864290   9.1453100  20.9712330  38.7910060  10.4073750
  36.0997110  42.7914140   6.4844580  35.9896390  42.6370180   7.4226850
  36.8604700  42.2635080   6.2419990  34.4462830  38.7308270  12.9427580
  35.0835050  39.3442410  13.3086770  34.5937720  38.7668930  11.9976810
  37.0625870  41.3932720   2.3507430  36.2677370  41.3277840   2.8800340
  37.2669150  42.3283360   2.3392780  34.0044290  55.4324270   6.3445820
  34.6003360  55.1108840   5.6680240  34.2622440  54.9596090   7.1359090
  20.3042490  38.6922580  12.3283260  19.9557310  39.1486400  13.0941440
  19.9730190  37.7979710  12.4105690  21.9106860  51.8642180  16.4936450
  21.8676490  51.4935090  17.3750910  22.0417870  52.8019750  16.6338270
  25.6112890  53.4201770  12.0946170  25.3704250  53.6876330  11.2076690
  26.5515530  53.5907500  12.1497030  27.8167310  39.8834460  15.8502680
  27.7556200  40.4756290  16.5998090  28.7567690  39.7760420  15.7052940
  30.4541870  39.5404520  15.4894970  31.0682280  39.8583810  14.8276050
  30.9991430  39.0553110  16.1090830  36.8717050  55.4396150  12.8956810
  36.3775330  55.8365020  12.1783940  36.2630340  54.8145360  13.2894090
  20.9763130  38.2198780  15.6034030  21.5246120  38.0386830  14.8400140
  21.0418440  37.4292890  16.1390340  21.7494890  54.8104430  13.6134230
  21.1555210  54.6789130  14.3524270  21.7418730  53.9742570  13.1476330
  31.1949910  38.1036660  11.8164260  30.3209750  38.4371770  11.6137190
  31.0860660  37.6309840  12.6416130  32.1021890  40.3107530  13.2005980
  31.7735250  39.4959290  12.8207710  33.0504190  40.2677340  13.0771670
  34.5556500  56.0819570  10.1743550  34.0959470  56.8335380   9.8001570
  33.9268960  55.3626040  10.1158350  21.3807120  52.1762810  12.5642270
  20.6541180  51.5568100  12.4968220  21.4416270  52.5703420  11.6940350
  24.9852220  54.3907810   9.3491680  25.5017240  53.7795170   8.8239940
  25.6349600  54.8936590   9.8402690  27.7247720  55.2816300  10.1760660
  28.0125530  55.0270600   9.2993670  28.2370940  54.7293660  10.7666230
  28.9424730  39.0206500  10.7557170  28.1596520  39.4952000  11.0353930
  28.6487660  38.1161330  10.6470350  33.4945800  39.7229600   8.8006260
  33.9353890  39.6674700   7.9527860  33.2253390  40.6387610   8.8716440
  35.3584370  39.3544840   6.8115080  35.2972770  38.4106060   6.6646100
  36.1376400  39.4624930   7.3568540  19.6637120  55.4937200   5.7739030
  19.4959160  54.8607880   6.4720920  18.7971630  55.6996600   5.4233220
  20.2865140  39.3253980   3.2770890  21.0444500  39.4382860   2.7034920
  19.8242310  40.1623180   3.2314320  26.8278950  41.4393250   6.2673200
  26.0153460  41.0650140   5.9269080  27.3320590  40.6838330   6.5694390
  31.3303930  38.1035700   7.5056270  31.9333300  38.6755910   7.9804790
  30.5896920  38.6675140   7.2830170  34.4738530  38.5057260   2.7796550
  34.6689160  39.4040710   3.0463980  33.6868400  38.2744340   3.2729500
  21.2699820  54.1870430   3.2189170  20.7447440  54.5678460   2.5151130
  21.1944400  54.8121200   3.9398880  22.6590290  39.8518030   1.8172860
  23.1883050  39.0647830   1.6880810  23.2918610  40.5309220   2.0508390
  24.8528130  39.5893170   4.8718250  24.2230870  38.8880480   5.0388380
  24.3133270  40.3497300   4.6551410  27.7920080  56.2032400  17.5428860
  28.7187390  55.9676670  17.5864820  27.7770510  57.0304400  17.0614890
  36.0265140  55.7457970   4.5403110  36.2017330  55.0595710   3.8964030
  35.3286710  56.2705020   4.1479780  24.9783690  38.8677150  17.3070740
  24.6967960  39.3710750  16.5431560  25.3603390  38.0698900  16.9412870
  23.8692790  56.1352810   2.0938420  24.6011610  55.8512090   1.5462310
  24.1286460  55.8966090   2.9837800  23.0307580  52.2517540   2.0984750
  22.4016460  52.7202640   2.6470580  23.1455410  51.4066760   2.5330940
  31.5799150  38.2830730  17.8851210  31.4664600  38.6025340  18.7802730
  32.3968890  38.6843240  17.5888490  34.3597640  55.4302260  17.3669900
  35.1522960  54.9351490  17.1595860  34.6530790  56.1092400  17.9745510
  30.4857300  27.5279710  63.3459910  30.4051350  26.6134320  63.0751620
  30.0721720  28.0246780  62.6399620  28.6175340  29.3058730  65.2269180
  27.8417440  28.8259170  65.5167750  29.2688270  28.6264380  65.0525340
  22.6341170  29.6178540  66.1044940  21.8026050  29.3627250  66.5041450
  23.2422150  29.6889310  66.8402860  32.6382770  33.7118920  64.0068310
  32.1764300  32.9406160  64.3355480  33.4508320  33.7384990  64.5120760
  22.6142430  33.6518630  66.3002960  22.9170470  32.7616370  66.1213180
  23.3586020  34.2088850  66.0725210  21.0433120  24.5780430  59.8887330
  20.1549820  24.9196400  59.7867210  21.3274310  24.3780750  58.9968160
  19.0066130  27.1786080  65.7727030  19.5782240  26.4108280  65.7730670
  19.0067670  27.4774840  64.8633640  28.8646080  35.9976930  63.6272300
  28.2457520  36.4534430  63.0566740  29.7197860  36.1528390  63.2262000
  28.0584330  31.9815920  65.2339340  27.9892610  31.0405860  65.0728470
  28.8204190  32.0717330  65.8061910  20.2491000  22.5870440  67.5595960
  20.0693840  21.6896190  67.8398720  19.8471080  23.1342310  68.2342910
  29.0889500  24.7886300  65.4608270  29.4654320  23.9158180  65.3481940
  28.9909010  25.1245000  64.5698710  23.2194510  23.1611930  60.9225710
  23.3261260  24.0615660  61.2294470  22.3086870  23.1129900  60.6320360
  32.8713620  22.2836740  62.3936610  33.6923240  21.7933310  62.4362090
  32.9047700  22.8734400  63.1468450  20.8677670  25.0830940  66.1678300
  21.5487780  25.3469310  66.7865700  20.5525720  24.2431810  66.5016310
  25.0602240  26.1298300  65.2550890  25.5680460  26.6279270  65.8955910
  25.5915480  25.3533500  65.0790250  37.1613170  24.3003490  68.9580240
  36.4565340  24.6885200  68.4395350  37.4271090  24.9953780  69.5601170
  23.3438340  20.7696860  69.5214310  23.3456780  21.2869250  68.7160210
  22.5142650  20.2927040  69.4984240  29.7309430  30.8816170  61.0204210
  29.1126700  31.3465620  60.4566930  30.2432680  31.5743650  61.4373720
  24.5941190  30.4092040  67.6987810  24.2610570  31.0360960  68.3408880
  24.7707870  30.9353920  66.9189480  33.1075100  24.2237120  65.1664150
  32.4030670  24.5122010  65.7467260  33.4687260  25.0337230  64.8063710
  23.0253670  22.4806820  67.5284760  23.3670480  23.3248870  67.2338630
  22.0869480  22.6290560  67.6450100  23.8060290  32.3772840  69.5136990
  24.4234290  33.0523920  69.2321440  22.9453410  32.7860820  69.4224490
  19.0992630  31.5672700  58.3943840  18.7220610  32.0559800  57.6628740
  19.3565700  32.2397980  59.0250370  34.7237880  33.8412250  67.4291630
  34.0401400  34.5111360  67.4208300  35.2632170  34.0392900  66.6636490
  36.1762020  23.6691910  65.5573360  35.2286930  23.7030890  65.6888790
  36.5012010  24.4830860  65.9422720  26.7081560  19.9689090  63.8529350
  27.0156540  19.4135980  63.1364850  25.7782260  20.1033550  63.6702340
  32.2596620  35.6856380  66.1436810  32.2723780  35.2818670  65.2759070
  31.7071840  36.4603670  66.0398240  33.5542040  32.4072600  61.2326980
  33.4438370  31.4646930  61.3576400  33.5510290  32.7688240  62.1189740
  31.6582060  30.5886220  67.4719420  32.0750850  30.3746330  66.6372880
  32.3821880  30.8459010  68.0428040  29.0962320  28.0337920  60.5889470
  28.1691600  27.9675300  60.8177940  29.2487140  28.9718050  60.4744710
  29.0831400  24.3054920  57.5856630  28.1435070  24.4668880  57.6709090
  29.4014660  25.0240600  57.0392620  35.6044160  28.9873440  67.5635660
  34.7762790  29.0566530  67.0885790  36.1994640  29.5727750  67.0951490
  33.1259610  29.5958220  61.0924720  32.5072030  29.2577770  60.4451020
  33.1084060  28.9517980  61.8003910  32.5686170  25.7742760  68.5090530
  32.1557350  26.5996470  68.7630520  31.8362120  25.1887800  68.3166890
  24.7018960  28.5602660  63.3709200  24.2975960  27.8479910  62.8755100
  24.7882080  28.2155900  64.2597240  25.1700660  32.2470220  65.5348410
  24.8728950  31.6415690  64.8556190  26.1200480  32.2847530  65.4237770
  23.4147580  25.3345870  67.1508240  23.9662170  25.4441210  66.3761490
  23.9291090  25.7083470  67.8663470  33.2586270  35.8202090  69.1971510
  32.7816830  36.6274280  69.0044120  32.5748060  35.1680420  69.3497720
  31.3024310  28.8345030  58.0997470  31.7417590  27.9967460  57.9535290
  32.0152730  29.4674430  58.1861610  23.0890310  28.8565230  70.7613580
  22.9498080  29.7288030  71.1300980  22.2071670  28.5138040  70.6161520
  29.4119690  33.7741100  62.0678710  29.8515600  34.5165430  61.6534100
  29.3506580  34.0167670  62.9917670  34.8841450  20.0887840  56.4138510
  34.5714110  20.1814670  57.3137580  35.6453920  20.6668870  56.3635940
  21.4023590  27.4547640  60.8715850  21.2821190  28.1809730  60.2597120
  21.0924480  26.6850550  60.3943760  19.0408960  30.6262780  66.6784490
  19.1189380  30.7611550  65.7340210  19.6550640  29.9178670  66.8712610
  20.2856590  32.3262970  63.0890670  19.8784670  32.4677560  62.2344270
  21.1769600  32.0423130  62.8861880  36.2418730  32.7726880  71.4262910
  36.3681790  32.5338760  70.5080090  36.2840110  31.9411420  71.8984990
  30.1035470  36.4754880  69.9957720  30.6180140  36.3862890  70.7980150
  29.2604550  36.8214580  70.2885630  32.0789870  36.7610220  59.4241720
  31.9191010  36.4713160  60.3223550  31.9136580  35.9850350  58.8886950
  24.5578250  36.5408750  61.2013340  24.3820730  35.6244290  60.9881140
  23.7033990  36.8996040  61.4411140  31.7816000  34.2697780  57.9839720
  31.0881160  34.2675070  57.3242000  32.5238860  33.8457100  57.5533890
  31.3465930  35.8960490  62.0588210  31.8022880  35.1149870  62.3726830
  31.6858450  36.6067310  62.6029390  19.0968480  31.6676950  69.2178950
  19.2599520  31.1982310  68.3998320  19.5620930  31.1600510  69.8827790
  23.8687250  20.7982710  64.2539520  23.4255400  21.5792250  63.9224040
  24.4272240  21.1212600  64.9610460  28.1557060  23.6651230  69.8574840
  27.6936430  23.8734250  70.6694780  27.7535170  22.8510580  69.5545510
  33.1561570  24.8860180  70.9871500  32.3055160  24.5865930  71.3080570
  32.9963360  25.1302190  70.0755320  26.9846070  20.4193410  59.1345350
  26.3600250  20.4153280  59.8598660  26.8976190  19.5524370  58.7381320
  25.9063150  21.3430040  66.1129120  26.2035480  22.2492870  66.0321140
  26.4548710  20.8548820  65.4988690  23.6601470  25.9216280  61.9820770
  23.4342390  25.7053450  62.8867390  22.8794000  26.3544740  61.6366740
  30.8899230  25.9279650  60.5811420  30.2908120  26.6515450  60.3975040
  31.4378840  25.8656430  59.7987870  29.4964100  24.5643190  62.6114700
  29.8893670  24.8815390  61.7983390  29.8580950  23.6855070  62.7259220
  21.2311220  23.2315530  70.8014820  20.8374610  24.0790740  71.0087600
  20.5429620  22.5941900  70.9923460  18.5328270  21.1543990  64.8344900
  18.2441320  21.7246850  65.5469880  19.2774030  20.6748440  65.1976130
  18.7198500  25.0964110  56.0447620  18.6373170  26.0394870  56.1862610
  18.3681560  24.9539020  55.1659970  30.0819240  27.1548940  66.7065480
  29.3500360  27.6635750  67.0555580  29.6843580  26.3378920  66.4054260
  26.5196630  23.8303140  65.1117970  26.5232690  23.3893090  64.2622510
  27.4147750  24.1520470  65.2189790  22.3699010  23.7129630  64.0712180
  22.0299060  24.1904860  64.8279230  21.6076330  23.2594750  63.7113280
  26.5816780  24.8315220  58.1024730  26.7029600  24.7901700  59.0510550
  26.1965290  25.6939370  57.9471460  30.5445150  22.6082620  66.1188420
  30.5617890  23.0591270  66.9630270  30.2960730  21.7088260  66.3321860
  25.5938280  27.1416360  57.5008030  25.0255180  26.6934610  56.8743940
  26.3027280  27.5009140  56.9673180  20.6707460  31.0428380  71.3774760
  20.2862250  30.4022050  71.9757720  20.9819650  31.7464500  71.9469490
  26.8204600  27.8904920  66.8583380  27.1874730  27.4163490  67.6044720
  26.6309660  28.7646490  67.1991720  19.6845090  22.6348610  62.9876850
  19.3992010  22.2704280  63.8255470  19.6223950  21.9029070  62.3739990
  24.6103970  26.9313560  69.1767590  24.3061040  27.8105540  69.4017950
  25.5650430  26.9913350  69.2125030  23.1385760  31.1374550  59.7734440
  22.3648020  30.5972170  59.6133160  23.8680390  30.6181160  59.4352200
  33.8973740  30.1339910  65.5660830  34.6172860  30.6295200  65.1756940
  33.6955560  29.4557800  64.9214700  29.3583680  21.5277870  59.7090220
  28.5448290  21.0291040  59.6335530  29.1645630  22.3676120  59.2926570
  29.2792540  30.2048970  71.4529830  29.2129850  29.2844640  71.1987420
  28.6497680  30.3024410  72.1674470  32.0732070  25.8997520  58.0052380
  32.9611690  26.2114750  57.8303720  32.0437160  25.0269770  57.6132960
  23.1823160  30.8054930  63.4113250  23.7001830  30.0023190  63.3570140
  22.7307180  30.7434070  64.2530080  28.0692660  32.0721210  58.6840550
  28.4108360  32.8163440  58.1883870  27.2405370  32.3852330  59.0465380
  20.6667700  27.7716300  70.3238950  20.3082640  28.4370150  70.9112290
  20.3722260  26.9399850  70.6951570  29.2109270  33.0269540  71.2033630
  29.2253810  32.0950500  70.9852540  28.5034370  33.1129300  71.8423400
  34.3446340  27.2109360  57.4732240  34.2610060  27.6423580  56.6228680
  35.0640530  27.6707710  57.9059060  35.4220480  29.6676880  70.5502210
  34.6968670  30.2605660  70.3531600  35.9495940  29.6600420  69.7515580
  35.3733590  34.0651620  60.2014370  34.7309750  33.4107240  60.4758090
  34.9864250  34.4706710  59.4255040  30.9520070  31.3937050  64.0486060
  31.3043890  30.7965180  63.3887430  30.0682400  31.0681280  64.2194310
  27.0383350  32.1534740  61.4556470  27.7254480  32.7003950  61.8364060
  26.2515770  32.6975470  61.4906080  19.1775750  27.7707560  56.9473550
  20.0470600  28.0532360  57.2309470  18.6866070  28.5843430  56.8322360
  26.3410560  29.1580770  61.0681830  26.7973340  29.9686020  61.2942020
  25.9898770  28.8403910  61.9000320  28.6443170  34.6687110  68.2974130
  29.2885390  34.8746490  68.9747550  29.0072610  33.9075510  67.8444980
  22.2422340  19.5018420  61.5404350  22.1136970  19.4936320  62.4889270
  21.4184360  19.8401510  61.1895360  29.9175250  32.6719460  67.0151580
  30.5597480  31.9712620  67.1283750  30.4424600  33.4517900  66.8348470
  33.7630970  32.9568080  56.7390720  33.5368550  32.2398520  57.3315360
  33.3727170  32.7080520  55.9012470  31.6912870  33.4714360  70.2187640
  32.0269110  34.0581050  70.8965560  30.7713210  33.3407070  70.4485430
  19.5447000  36.9834940  57.5135180  19.9044640  37.5824280  56.8592450
  19.4039340  37.5294830  58.2870210  19.2416270  21.2609540  71.0011050
  18.5274790  21.4606460  71.6063660  19.6611310  20.4849110  71.3725850
  33.3447220  30.8740020  58.4004880  33.0568920  31.3352710  59.1882760
  34.1399390  30.4137790  58.6689100  19.5288860  35.2489800  71.9877580
  19.6379980  34.3084540  71.8472970  18.8769420  35.5144550  71.3391310
  25.5615620  34.3666140  58.3308850  25.5525720  35.0995830  57.7153360
  24.6413980  34.1197720  58.4235810  21.1622260  29.5881030  59.0755610
  20.5550210  30.3279930  59.0850910  21.6371610  29.6780390  58.2493810
  30.7355050  23.7531850  68.7512500  31.1035870  22.9327060  69.0792070
  29.8753250  23.8133740  69.1668150  34.1017080  22.7088790  59.5600060
  33.4730240  22.8134460  58.8458290  33.6069000  22.9285570  60.3493940
  28.5475220  34.4294380  56.9934040  28.6487200  34.2258370  56.0636020
  27.6476960  34.1752660  57.1981820  26.0701110  24.9874740  60.9757940
  25.3617260  25.4561080  61.4171550  26.3545590  24.3296750  61.6103130
  27.6957040  26.4071440  68.9750470  28.1942290  26.8817260  69.6402320
  27.8379990  25.4834960  69.1820500  30.1016540  21.7125400  62.4153730
  29.9784320  21.7311530  61.4663240  31.0501100  21.7604340  62.5352130
  27.1893330  36.9480700  61.6881710  27.4434830  36.9102090  60.7661080
  26.2405810  36.8214030  61.6809960  24.2736130  23.2959820  58.3508650
  25.1226660  23.7329970  58.2848840  23.9067400  23.6080080  59.1780710
  34.9023900  22.6239400  69.8178860  34.3997500  23.3644800  70.1572670
  35.7180560  23.0123400  69.5015650  33.1945910  27.8672580  63.2640220
  32.2536050  27.8822810  63.4387910  33.5089980  27.0808540  63.7100520
  23.1727550  29.5492180  56.8244180  23.9390820  29.4373540  57.3869610
  23.2502240  28.8530150  56.1720950  21.8674310  26.9817250  57.5077070
  21.9477900  26.0344760  57.6194470  22.7594060  27.3124130  57.6137730
  35.1971490  35.0381430  64.9394480  35.3218910  35.8612600  65.4118290
  36.0637050  34.8272160  64.5918630  22.6689020  37.1312640  64.6111610
  23.4051500  36.5828100  64.8820180  23.0529940  37.9968650  64.4717600
  19.5534500  33.1986210  60.4853120  18.6274280  33.4407350  60.4758530
  20.0190930  34.0260470  60.3637870  25.7791330  36.3042950  56.4337180
  26.5719940  36.5931780  55.9818970  25.2595680  35.8735120  55.7549660
  34.8321500  35.5313080  57.8573920  34.5463010  35.1178220  57.0428100
  34.6341050  36.4600790  57.7374440  26.2968730  31.5246360  56.2979530
  26.1919370  30.9098710  57.0240910  26.1292950  31.0012250  55.5142540
  29.5371460  30.5866390  56.9021520  28.9881560  31.0335690  57.5464260
  30.1590720  30.0815640  57.4259190  25.2046580  29.5457310  58.7986820
  25.6263000  29.3797180  59.6418210  25.3297420  28.7357540  58.3041960
  23.3674000  25.5253860  71.6057800  22.8370460  25.0344810  70.9781140
  24.0362070  25.9538060  71.0715730  27.7174220  28.5694920  56.0463920
  28.2379880  27.8543940  55.6805070  28.3642620  29.2080790  56.3464430
  32.2652060  29.9923320  71.3698990  32.6793080  30.1468400  72.2189410
  31.3303060  30.1178540  71.5324770  23.8546300  22.4916230  71.6855090
  23.7603170  21.8736980  70.9605960  23.2743690  23.2182520  71.4585000
  26.6207740  21.0489470  68.7182480  26.1725040  21.0713730  67.8728030
  25.9872940  20.6508490  69.3152780  27.0267290  29.9443800  69.3394920
  27.4455400  30.7876530  69.1671160  26.1075920  30.0815840  69.1101700
  29.3631190  27.6759980  70.7232760  29.4827400  27.0801120  71.4627600
  30.2225190  27.7129670  70.3034060  31.7019090  28.2297170  69.2995270
  31.1754310  28.7539790  68.6960410  32.0450430  28.8624560  69.9305000
  24.1005480  25.6190540  55.7444980  23.8994540  24.7557900  56.1058320
  23.9297530  25.5323900  54.8066580  24.8774710  36.2496810  70.4552650
  24.3395800  36.9742870  70.1361350  25.1308670  35.7727150  69.6649990
  31.5793790  20.4298770  58.2731860  31.8596080  19.5866670  58.6291280
  30.8059520  20.6621880  58.7870610  22.8988280  22.7191160  55.7322860
  23.2014180  22.7258590  54.8242010  23.6382870  22.3689020  56.2290520
  27.7336920  37.4848020  70.7139300  27.6595620  38.3883160  71.0211670
  26.8315760  37.1659920  70.6861370  26.1173210  21.6625780  56.7179060
  25.7695210  20.9849770  56.1381510  26.3185980  21.2015290  57.5322450
  28.2822250  36.6506530  58.3365660  29.1773040  36.9891500  58.3584420
  28.3139880  35.9285940  57.7089940  21.9218410  32.0233580  56.5652660
  22.3593280  32.5663250  57.2210240  22.4066140  31.1980530  56.5749000
  19.1364210  34.8122610  64.0172920  19.4667220  33.9443670  63.7851560
  19.5655210  35.0181130  64.8477880  23.7326130  33.1431620  61.6774890
  23.4321670  33.0196590  62.5778800  23.6263620  32.2840210  61.2690620
  19.6254420  35.6793200  66.7554550  19.1885410  35.8594000  67.5878700
  20.1932100  36.4367820  66.6136270  35.2616600  35.1810200  71.0431860
  34.6618590  35.2402760  70.2995780  35.3910500  34.2415180  71.1728710
  36.5018050  32.9228020  56.3801570  35.6711010  32.9904670  56.8508800
  36.6789880  33.8132140  56.0768430  35.9574510  29.6675500  58.8835770
  36.7193420  30.2372150  58.9895460  35.9728880  29.1002700  59.6544080
  19.4578850  28.1913430  63.1143430  18.8027690  27.9225070  62.4703130
  20.2956800  28.0817910  62.6645410  36.9634480  30.5225600  63.7277700
  37.3343310  29.7392920  63.3213670  37.6036410  31.2114700  63.5495000
  33.9468240  31.9062180  69.1408020  33.1328080  32.3359340  69.4033810
  34.3542440  32.5180590  68.5277070  36.0093680  29.9609870  56.0408290
  36.2842520  30.8688750  55.9127510  35.8204420  29.8972400  56.9770280
  32.4069290  22.9854720  57.3361920  32.8254170  22.7985700  56.4958580
  32.1005350  22.1333770  57.6464850  35.9059020  27.8978860  61.0337720
  35.5302620  27.1306790  60.6019010  35.1762140  28.2801560  61.5212650
  20.4954780  28.5766000  67.6546770  20.8627820  28.4893400  68.5342790
  19.9265600  27.8132550  67.5553630  35.2958640  27.0450380  70.6677240
  35.0644730  26.8163130  69.7675190  35.5563190  27.9649930  70.6222130
  18.6716930  25.4012360  59.0568760  17.7681010  25.6642560  58.8820420
  19.1557550  25.6723530  58.2768720  35.1809980  26.1236350  64.3344960
  35.7047460  25.6299000  63.7035130  35.7669400  26.2586710  65.0792530
  35.3599700  26.2076220  67.8564510  34.4102410  26.1739760  67.9709500
  35.5412710  27.1176330  67.6214280  21.2144140  24.4577900  56.9663140
  21.9235840  24.0361120  56.4810420  20.4984080  24.5253130  56.3346490
  20.8618300  20.5117230  56.0065790  21.5846430  21.0526170  56.3247010
  21.1342820  20.2380650  55.1307330  34.6709950  25.3809700  60.2737370
  35.1669070  25.1480570  61.0586250  34.4726020  24.5421540  59.8575010
  20.5510490  19.7623420  65.9088410  21.1986680  19.2120800  65.4683570
  20.9712330  20.0166570  66.7304220  36.0997110  24.0170650  62.8075050
  35.9896390  23.8626690  63.7457320  36.8604700  23.4891590  62.5650460
  34.4462830  19.9564780  69.2658050  35.0835050  20.5698920  69.6317240
  34.5937720  19.9925440  68.3207280  36.9887380  21.8478570  56.0481190
  37.9136690  21.7159750  55.8399480  36.9663170  21.9271390  57.0017640
  37.0625870  22.6189230  58.6737900  36.2677370  22.5534350  59.2030810
  37.2669150  23.5539870  58.6623250  34.0044290  36.6580780  62.6676290
  34.6003360  36.3365350  61.9910710  34.2622440  36.1852600  63.4589560
  20.3042490  19.9179090  68.6513730  19.9557310  20.3742910  69.4171910
  19.9730190  19.0236220  68.7336160  25.6112890  34.6458280  68.4176640
  25.3704250  34.9132840  67.5307160  26.5515530  34.8164010  68.4727500
  36.8717050  36.6652660  69.2187280  36.3775330  37.0621530  68.5014410
  36.2630340  36.0401870  69.6124560  21.7494890  36.0360940  69.9364700
  21.1555210  35.9045640  70.6754740  21.7418730  35.1999080  69.4706800
  31.1949910  19.3293170  68.1394730  30.3209750  19.6628280  67.9367660
  31.0860660  18.8566350  68.9646600  32.1021890  21.5364040  69.5236450
  31.7735250  20.7215800  69.1438180  33.0504190  21.4933850  69.4002140
  34.5556500  37.3076080  66.4974020  34.0959470  38.0591890  66.1232040
  33.9268960  36.5882550  66.4388820  21.3807120  33.4019320  68.8872740
  20.6541180  32.7824610  68.8198690  21.4416270  33.7959930  68.0170820
  24.9852220  35.6164320  65.6722150  25.5017240  35.0051680  65.1470410
  25.6349600  36.1193100  66.1633160  27.7247720  36.5072810  66.4991130
  28.0125530  36.2527110  65.6224140  28.2370940  35.9550170  67.0896700
  28.9424730  20.2463010  67.0787640  28.1596520  20.7208510  67.3584400
  28.6487660  19.3417840  66.9700820  33.4945800  20.9486110  65.1236730
  33.9353890  20.8931210  64.2758330  33.2253390  21.8644120  65.1946910
  35.3584370  20.5801350  63.1345550  35.2972770  19.6362570  62.9876570
  36.1376400  20.6881440  63.6799010  19.6637120  36.7193710  62.0969500
  19.4959160  36.0864390  62.7951390  18.7971630  36.9253110  61.7463690
  20.2865140  20.5510490  59.6001360  21.0444500  20.6639370  59.0265390
  19.8242310  21.3879690  59.5544790  26.8278950  22.6649760  62.5903670
  26.0153460  22.2906650  62.2499550  27.3320590  21.9094840  62.8924860
  31.3303930  19.3292210  63.8286740  31.9333300  19.9012420  64.3035260
  30.5896920  19.8931650  63.6060640  34.4738530  19.7313770  59.1027020
  34.6689160  20.6297220  59.3694450  33.6868400  19.5000850  59.5959970
  21.2699820  35.4126940  59.5419640  20.7447440  35.7934970  58.8381600
  21.1944400  36.0377710  60.2629350  22.6590290  21.0774540  58.1403330
  23.1883050  20.2904340  58.0111280  23.2918610  21.7565730  58.3738860
  24.8528130  20.8149680  61.1948720  24.2230870  20.1136990  61.3618850
  24.3133270  21.5753810  60.9781880  36.0265140  36.9714480  60.8633580
  36.2017330  36.2852220  60.2194500  35.3286710  37.4961530  60.4710250
  23.8692790  37.3609320  58.4168890  24.6011610  37.0768600  57.8692780
  24.1286460  37.1222600  59.3068270  23.0307580  33.4774050  58.4215220
  22.4016460  33.9459150  58.9701050  23.1455410  32.6323270  58.8561410
  30.4857300  27.5279710  44.5716420  30.4051350  26.6134320  44.3008130
  30.0721720  28.0246780  43.8656130  28.6175340  29.3058730  46.4525690
  27.8417440  28.8259170  46.7424260  29.2688270  28.6264380  46.2781850
  22.6341170  29.6178540  47.3301450  21.8026050  29.3627250  47.7297960
  23.2422150  29.6889310  48.0659370  32.6382770  33.7118920  45.2324820
  32.1764300  32.9406160  45.5611990  33.4508320  33.7384990  45.7377270
  22.6142430  33.6518630  47.5259470  22.9170470  32.7616370  47.3469690
  23.3586020  34.2088850  47.2981720  21.0433120  24.5780430  41.1143840
  20.1549820  24.9196400  41.0123720  21.3274310  24.3780750  40.2224670
  19.0066130  27.1786080  46.9983540  19.5782240  26.4108280  46.9987180
  19.0067670  27.4774840  46.0890150  28.8646080  35.9976930  44.8528810
  28.2457520  36.4534430  44.2823250  29.7197860  36.1528390  44.4518510
  28.0584330  31.9815920  46.4595850  27.9892610  31.0405860  46.2984980
  28.8204190  32.0717330  47.0318420  20.2491000  22.5870440  48.7852470
  20.0693840  21.6896190  49.0655230  19.8471080  23.1342310  49.4599420
  29.0889500  24.7886300  46.6864780  29.4654320  23.9158180  46.5738450
  28.9909010  25.1245000  45.7955220  23.2194510  23.1611930  42.1482220
  23.3261260  24.0615660  42.4550980  22.3086870  23.1129900  41.8576870
  32.8713620  22.2836740  43.6193120  33.6923240  21.7933310  43.6618600
  32.9047700  22.8734400  44.3724960  20.8677670  25.0830940  47.3934810
  21.5487780  25.3469310  48.0122210  20.5525720  24.2431810  47.7272820
  25.0602240  26.1298300  46.4807400  25.5680460  26.6279270  47.1212420
  25.5915480  25.3533500  46.3046760  37.1613170  24.3003490  50.1836750
  36.4565340  24.6885200  49.6651860  37.4271090  24.9953780  50.7857680
  23.3438340  20.7696860  50.7470820  23.3456780  21.2869250  49.9416720
  22.5142650  20.2927040  50.7240750  29.7309430  30.8816170  42.2460720
  29.1126700  31.3465620  41.6823440  30.2432680  31.5743650  42.6630230
  24.5941190  30.4092040  48.9244320  24.2610570  31.0360960  49.5665390
  24.7707870  30.9353920  48.1445990  33.1075100  24.2237120  46.3920660
  32.4030670  24.5122010  46.9723770  33.4687260  25.0337230  46.0320220
  23.0253670  22.4806820  48.7541270  23.3670480  23.3248870  48.4595140
  22.0869480  22.6290560  48.8706610  23.8060290  32.3772840  50.7393500
  24.4234290  33.0523920  50.4577950  22.9453410  32.7860820  50.6481000
  19.0992630  31.5672700  39.6200350  18.7220610  32.0559800  38.8885250
  19.3565700  32.2397980  40.2506880  34.7237880  33.8412250  48.6548140
  34.0401400  34.5111360  48.6464810  35.2632170  34.0392900  47.8893000
  36.1762020  23.6691910  46.7829870  35.2286930  23.7030890  46.9145300
  36.5012010  24.4830860  47.1679230  26.7081560  19.9689090  45.0785860
  27.0156540  19.4135980  44.3621360  25.7782260  20.1033550  44.8958850
  32.2596620  35.6856380  47.3693320  32.2723780  35.2818670  46.5015580
  31.7071840  36.4603670  47.2654750  31.6582060  30.5886220  48.6975930
  32.0750850  30.3746330  47.8629390  32.3821880  30.8459010  49.2684550
  29.0962320  28.0337920  41.8145980  28.1691600  27.9675300  42.0434450
  29.2487140  28.9718050  41.7001220  29.0831400  24.3054920  38.8113140
  28.1435070  24.4668880  38.8965600  29.4014660  25.0240600  38.2649130
  35.6044160  28.9873440  48.7892170  34.7762790  29.0566530  48.3142300
  36.1994640  29.5727750  48.3208000  33.1259610  29.5958220  42.3181230
  32.5072030  29.2577770  41.6707530  33.1084060  28.9517980  43.0260420
  32.5686170  25.7742760  49.7347040  32.1557350  26.5996470  49.9887030
  31.8362120  25.1887800  49.5423400  24.7018960  28.5602660  44.5965710
  24.2975960  27.8479910  44.1011610  24.7882080  28.2155900  45.4853750
  25.1700660  32.2470220  46.7604920  24.8728950  31.6415690  46.0812700
  26.1200480  32.2847530  46.6494280  23.4147580  25.3345870  48.3764750
  23.9662170  25.4441210  47.6018000  23.9291090  25.7083470  49.0919980
  33.2586270  35.8202090  50.4228020  32.7816830  36.6274280  50.2300630
  32.5748060  35.1680420  50.5754230  24.2619090  31.9851910  53.4112720
  23.3647620  32.2091880  53.6586120  24.2871960  32.1086850  52.4624120
  31.3024310  28.8345030  39.3253980  31.7417590  27.9967460  39.1791800
  32.0152730  29.4674430  39.4118120  23.0890310  28.8565230  51.9870090
  22.9498080  29.7288030  52.3557490  22.2071670  28.5138040  51.8418030
  29.4119690  33.7741100  43.2935220  29.8515600  34.5165430  42.8790610
  29.3506580  34.0167670  44.2174180  24.8870660  34.7986930  54.1955240
  24.8586090  35.2029880  53.3283670  24.7235630  33.8697290  54.0326840
  34.8841450  20.0887840  37.6395020  34.5714110  20.1814670  38.5394090
  35.6453920  20.6668870  37.5892450  21.4023590  27.4547640  42.0972360
  21.2821190  28.1809730  41.4853630  21.0924480  26.6850550  41.6200270
  36.8385480  35.5814030  55.4919410  37.3145200  36.0596920  56.1708490
  37.4592640  35.5131520  54.7664910  19.0408960  30.6262780  47.9041000
  19.1189380  30.7611550  46.9596720  19.6550640  29.9178670  48.0969120
  20.2856590  32.3262970  44.3147180  19.8784670  32.4677560  43.4600780
  21.1769600  32.0423130  44.1118390  36.2418730  32.7726880  52.6519420
  36.3681790  32.5338760  51.7336600  36.2840110  31.9411420  53.1241500
  30.1035470  36.4754880  51.2214230  30.6180140  36.3862890  52.0236660
  29.2604550  36.8214580  51.5142140  32.0789870  36.7610220  40.6498230
  31.9191010  36.4713160  41.5480060  31.9136580  35.9850350  40.1143460
  24.5578250  36.5408750  42.4269850  24.3820730  35.6244290  42.2137650
  23.7033990  36.8996040  42.6667650  31.7816000  34.2697780  39.2096230
  31.0881160  34.2675070  38.5498510  32.5238860  33.8457100  38.7790400
  31.3465930  35.8960490  43.2844720  31.8022880  35.1149870  43.5983340
  31.6858450  36.6067310  43.8285900  36.0942740  24.8259340  53.6169160
  35.4787010  25.3339010  53.0884620  35.7739160  23.9257670  53.5595100
  19.0968480  31.6676950  50.4435460  19.2599520  31.1982310  49.6254830
  19.5620930  31.1600510  51.1084300  23.8687250  20.7982710  45.4796030
  23.4255400  21.5792250  45.1480550  24.4272240  21.1212600  46.1866970
  28.1557060  23.6651230  51.0831350  27.6936430  23.8734250  51.8951290
  27.7535170  22.8510580  50.7802020  33.1561570  24.8860180  52.2128010
  32.3055160  24.5865930  52.5337080  32.9963360  25.1302190  51.3011830
  30.2511280  26.3861930  54.3126800  30.5764690  25.5525680  53.9729030
  31.0391610  26.9090450  54.4605130  26.9846070  20.4193410  40.3601860
  26.3600250  20.4153280  41.0855170  26.8976190  19.5524370  39.9637830
  25.9063150  21.3430040  47.3385630  26.2035480  22.2492870  47.2577650
  26.4548710  20.8548820  46.7245200  23.6601470  25.9216280  43.2077280
  23.4342390  25.7053450  44.1123900  22.8794000  26.3544740  42.8623250
  30.8899230  25.9279650  41.8067930  30.2908120  26.6515450  41.6231550
  31.4378840  25.8656430  41.0244380  26.1000680  26.8201860  53.8737550
  26.0044280  25.8796590  53.7237950  26.9432660  27.0416930  53.4785620
  29.4964100  24.5643190  43.8371210  29.8893670  24.8815390  43.0239900
  29.8580950  23.6855070  43.9515730  21.2311220  23.2315530  52.0271330
  20.8374610  24.0790740  52.2344110  20.5429620  22.5941900  52.2179970
  27.8056270  23.3150500  55.0968070  27.1154590  23.1222700  55.7314160
  28.5488570  23.5985140  55.6292370  18.5328270  21.1543990  46.0601410
  18.2441320  21.7246850  46.7726390  19.2774030  20.6748440  46.4232640
  18.7198500  25.0964110  37.2704130  18.6373170  26.0394870  37.4119120
  18.3681560  24.9539020  36.3916480  30.0819240  27.1548940  47.9321990
  29.3500360  27.6635750  48.2812090  29.6843580  26.3378920  47.6310770
  26.5196630  23.8303140  46.3374480  26.5232690  23.3893090  45.4879020
  27.4147750  24.1520470  46.4446300  22.3699010  23.7129630  45.2968690
  22.0299060  24.1904860  46.0535740  21.6076330  23.2594750  44.9369790
  26.5816780  24.8315220  39.3281240  26.7029600  24.7901700  40.2767060
  26.1965290  25.6939370  39.1727970  30.5445150  22.6082620  47.3444930
  30.5617890  23.0591270  48.1886780  30.2960730  21.7088260  47.5578370
  25.5938280  27.1416360  38.7264540  25.0255180  26.6934610  38.1000450
  26.3027280  27.5009140  38.1929690  33.9715900  20.0214800  53.1831310
  34.2961670  19.2904460  53.7089290  34.0072410  19.7028440  52.2812300
  20.6707460  31.0428380  52.6031270  20.2862250  30.4022050  53.2014230
  20.9819650  31.7464500  53.1726000  26.8204600  27.8904920  48.0839890
  27.1874730  27.4163490  48.8301230  26.6309660  28.7646490  48.4248230
  19.6845090  22.6348610  44.2133360  19.3992010  22.2704280  45.0511980
  19.6223950  21.9029070  43.5996500  24.6103970  26.9313560  50.4024100
  24.3061040  27.8105540  50.6274460  25.5650430  26.9913350  50.4381540
  23.1385760  31.1374550  40.9990950  22.3648020  30.5972170  40.8389670
  23.8680390  30.6181160  40.6608710  33.8973740  30.1339910  46.7917340
  34.6172860  30.6295200  46.4013450  33.6955560  29.4557800  46.1471210
  29.3583680  21.5277870  40.9346730  28.5448290  21.0291040  40.8592040
  29.1645630  22.3676120  40.5183080  29.2792540  30.2048970  52.6786340
  29.2129850  29.2844640  52.4243930  28.6497680  30.3024410  53.3930980
  32.0732070  25.8997520  39.2308890  32.9611690  26.2114750  39.0560230
  32.0437160  25.0269770  38.8389470  23.1823160  30.8054930  44.6369760
  23.7001830  30.0023190  44.5826650  22.7307180  30.7434070  45.4786590
  28.0692660  32.0721210  39.9097060  28.4108360  32.8163440  39.4140380
  27.2405370  32.3852330  40.2721890  20.6667700  27.7716300  51.5495460
  20.3082640  28.4370150  52.1368800  20.3722260  26.9399850  51.9208080
  23.8680820  28.2300540  54.4335010  23.5680960  28.3757720  53.5362830
  24.6392060  27.6705830  54.3408400  29.2109270  33.0269540  52.4290140
  29.2253810  32.0950500  52.2109050  28.5034370  33.1129300  53.0679910
  34.3446340  27.2109360  38.6988750  34.2610060  27.6423580  37.8485190
  35.0640530  27.6707710  39.1315570  35.4220480  29.6676880  51.7758720
  34.6968670  30.2605660  51.5788110  35.9495940  29.6600420  50.9772090
  30.9520070  31.3937050  45.2742570  31.3043890  30.7965180  44.6143940
  30.0682400  31.0681280  45.4450820  27.0383350  32.1534740  42.6812980
  27.7254480  32.7003950  43.0620570  26.2515770  32.6975470  42.7162590
  19.1775750  27.7707560  38.1730060  20.0470600  28.0532360  38.4565980
  18.6866070  28.5843430  38.0578870  26.3410560  29.1580770  42.2938340
  26.7973340  29.9686020  42.5198530  25.9898770  28.8403910  43.1256830
  28.6443170  34.6687110  49.5230640  29.2885390  34.8746490  50.2004060
  29.0072610  33.9075510  49.0701490  22.2422340  19.5018420  42.7660860
  22.1136970  19.4936320  43.7145780  21.4184360  19.8401510  42.4151870
  29.9175250  32.6719460  48.2408090  30.5597480  31.9712620  48.3540260
  30.4424600  33.4517900  48.0604980  31.6912870  33.4714360  51.4444150
  32.0269110  34.0581050  52.1222070  30.7713210  33.3407070  51.6741940
  19.5447000  36.9834940  38.7391690  19.9044640  37.5824280  38.0848960
  19.4039340  37.5294830  39.5126720  19.2416270  21.2609540  52.2267560
  18.5274790  21.4606460  52.8320170  19.6611310  20.4849110  52.5982360
  33.3447220  30.8740020  39.6261390  33.0568920  31.3352710  40.4139270
  34.1399390  30.4137790  39.8945610  19.5288860  35.2489800  53.2134090
  19.6379980  34.3084540  53.0729480  18.8769420  35.5144550  52.5647820
  27.5201450  33.5205690  54.6132210  27.1998320  32.8014930  55.1577900
  26.8459810  34.1960760  54.6868270  25.5615620  34.3666140  39.5565360
  25.5525720  35.0995830  38.9409870  24.6413980  34.1197720  39.6492320
  21.1622260  29.5881030  40.3012120  20.5550210  30.3279930  40.3107420
  21.6371610  29.6780390  39.4750320  30.7355050  23.7531850  49.9769010
  31.1035870  22.9327060  50.3048580  29.8753250  23.8133740  50.3924660
  34.1017080  22.7088790  40.7856570  33.4730240  22.8134460  40.0714800
  33.6069000  22.9285570  41.5750450  28.5475220  34.4294380  38.2190550
  28.6487200  34.2258370  37.2892530  27.6476960  34.1752660  38.4238330
  26.0701110  24.9874740  42.2014450  25.3617260  25.4561080  42.6428060
  26.3545590  24.3296750  42.8359640  27.6957040  26.4071440  50.2006980
  28.1942290  26.8817260  50.8658830  27.8379990  25.4834960  50.4077010
  30.1016540  21.7125400  43.6410240  29.9784320  21.7311530  42.6919750
  31.0501100  21.7604340  43.7608640  27.1893330  36.9480700  42.9138220
  27.4434830  36.9102090  41.9917590  26.2405810  36.8214030  42.9066470
  24.2736130  23.2959820  39.5765160  25.1226660  23.7329970  39.5105350
  23.9067400  23.6080080  40.4037220  34.9023900  22.6239400  51.0435370
  34.3997500  23.3644800  51.3829180  35.7180560  23.0123400  50.7272160
  33.1945910  27.8672580  44.4896730  32.2536050  27.8822810  44.6644420
  33.5089980  27.0808540  44.9357030  23.1727550  29.5492180  38.0500690
  23.9390820  29.4373540  38.6126120  23.2502240  28.8530150  37.3977460
  21.8674310  26.9817250  38.7333580  21.9477900  26.0344760  38.8450980
  22.7594060  27.3124130  38.8394240  35.1971490  35.0381430  46.1650990
  35.3218910  35.8612600  46.6374800  36.0637050  34.8272160  45.8175140
  22.6689020  37.1312640  45.8368120  23.4051500  36.5828100  46.1076690
  23.0529940  37.9968650  45.6974110  19.5534500  33.1986210  41.7109630
  18.6274280  33.4407350  41.7015040  20.0190930  34.0260470  41.5894380
  21.6747300  36.3158710  55.0253700  22.4760030  36.6370760  55.4389100
  21.1599120  35.9554290  55.7473610  25.7791330  36.3042950  37.6593690
  26.5719940  36.5931780  37.2075480  25.2595680  35.8735120  36.9806170
  30.5111930  32.4238580  54.9729110  29.9050090  32.4470180  54.2324860
  30.2066040  31.6921620  55.5096360  31.9412300  36.1518870  53.5838520
  32.8934050  36.0676890  53.5338760  31.7940520  36.8160580  54.2572310
  19.3945110  28.8032170  53.9689750  19.8984130  28.2239450  54.5405980
  18.6552530  29.0872400  54.5066120  26.2968730  31.5246360  37.5236040
  26.1919370  30.9098710  38.2497420  26.1292950  31.0012250  36.7399050
  26.4483050  30.2103160  53.5025270  25.6828720  30.7788160  53.4179940
  26.6299010  29.9179370  52.6093500  29.5371460  30.5866390  38.1278030
  28.9881560  31.0335690  38.7720770  30.1590720  30.0815640  38.6515700
  33.5906400  31.9408490  54.0600290  34.3315870  32.2784250  53.5567750
  32.8279080  32.1100550  53.5070060  21.4268190  26.9461760  54.8639820
  21.4673530  26.6475630  55.7725050  22.2813690  27.3469370  54.7047340
  25.2046580  29.5457310  40.0243330  25.6263000  29.3797180  40.8674720
  25.3297420  28.7357540  39.5298470  23.3674000  25.5253860  52.8314310
  22.8370460  25.0344810  52.2037650  24.0362070  25.9538060  52.2972240
  27.7174220  28.5694920  37.2720430  28.2379880  27.8543940  36.9061580
  28.3642620  29.2080790  37.5720940  32.2652060  29.9923320  52.5955500
  32.6793080  30.1468400  53.4445920  31.3303060  30.1178540  52.7581280
  32.7374230  27.3319480  54.5994650  33.3195000  26.5771800  54.5115130
  32.9136000  27.8626920  53.8226130  23.8546300  22.4916230  52.9111600
  23.7603170  21.8736980  52.1862470  23.2743690  23.2182520  52.6841510
  26.6207740  21.0489470  49.9438990  26.1725040  21.0713730  49.0984540
  25.9872940  20.6508490  50.5409290  27.0267290  29.9443800  50.5651430
  27.4455400  30.7876530  50.3927670  26.1075920  30.0815840  50.3358210
  29.3631190  27.6759980  51.9489270  29.4827400  27.0801120  52.6884110
  30.2225190  27.7129670  51.5290570  31.7019090  28.2297170  50.5251780
  31.1754310  28.7539790  49.9216920  32.0450430  28.8624560  51.1561510
  24.1005480  25.6190540  36.9701490  23.8994540  24.7557900  37.3314830
  23.9297530  25.5323900  36.0323090  24.8774710  36.2496810  51.6809160
  24.3395800  36.9742870  51.3617860  25.1308670  35.7727150  50.8906500
  26.1299960  24.2181330  53.2065090  26.7199650  23.9097180  53.8942910
  25.3120200  23.7461080  53.3624990  30.9493390  23.8347140  53.4398110
  30.2608910  23.1728680  53.3748100  31.6699410  23.3885410  53.8846570
  31.5793790  20.4298770  39.4988370  31.8596080  19.5866670  39.8547790
  30.8059520  20.6621880  40.0127120  22.8988280  22.7191160  36.9579370
  23.2014180  22.7258590  36.0498520  23.6382870  22.3689020  37.4547030
  27.7336920  37.4848020  51.9395810  27.6595620  38.3883160  52.2468180
  26.8315760  37.1659920  51.9117880  26.1173210  21.6625780  37.9435570
  25.7695210  20.9849770  37.3638020  26.3185980  21.2015290  38.7578960
  28.2822250  36.6506530  39.5622170  29.1773040  36.9891500  39.5840930
  28.3139880  35.9285940  38.9346450  21.9218410  32.0233580  37.7909170
  22.3593280  32.5663250  38.4466750  22.4066140  31.1980530  37.8005510
  19.1364210  34.8122610  45.2429430  19.4667220  33.9443670  45.0108070
  19.5655210  35.0181130  46.0734390  23.7326130  33.1431620  42.9031400
  23.4321670  33.0196590  43.8035310  23.6263620  32.2840210  42.4947130
  19.6254420  35.6793200  47.9811060  19.1885410  35.8594000  48.8135210
  20.1932100  36.4367820  47.8392780  35.2616600  35.1810200  52.2688370
  34.6618590  35.2402760  51.5252290  35.3910500  34.2415180  52.3985220
  35.9574510  29.6675500  40.1092280  36.7193420  30.2372150  40.2151970
  35.9728880  29.1002700  40.8800590  19.4578850  28.1913430  44.3399940
  18.8027690  27.9225070  43.6959640  20.2956800  28.0817910  43.8901920
  36.9634480  30.5225600  44.9534210  37.3343310  29.7392920  44.5470180
  37.6036410  31.2114700  44.7751510  33.9468240  31.9062180  50.3664530
  33.1328080  32.3359340  50.6290320  34.3542440  32.5180590  49.7533580
  36.0093680  29.9609870  37.2664800  36.2842520  30.8688750  37.1384020
  35.8204420  29.8972400  38.2026790  32.4069290  22.9854720  38.5618430
  32.8254170  22.7985700  37.7215090  32.1005350  22.1333770  38.8721360
  35.9059020  27.8978860  42.2594230  35.5302620  27.1306790  41.8275520
  35.1762140  28.2801560  42.7469160  20.4954780  28.5766000  48.8803280
  20.8627820  28.4893400  49.7599300  19.9265600  27.8132550  48.7810140
  35.2958640  27.0450380  51.8933750  35.0644730  26.8163130  50.9931700
  35.5563190  27.9649930  51.8478640  20.0470780  25.4875090  52.7861700
  19.1526830  25.4541850  53.1255410  20.5868330  25.6861880  53.5512950
  33.7346710  22.2706810  54.6713450  34.6116890  22.2790210  55.0547450
  33.7467550  21.5337650  54.0605800  18.6716930  25.4012360  40.2825270
  17.7681010  25.6642560  40.1076930  19.1557550  25.6723530  39.5025230
  35.1809980  26.1236350  45.5601470  35.7047460  25.6299000  44.9291640
  35.7669400  26.2586710  46.3049040  35.3599700  26.2076220  49.0821020
  34.4102410  26.1739760  49.1966010  35.5412710  27.1176330  48.8470790
  21.2144140  24.4577900  38.1919650  21.9235840  24.0361120  37.7066930
  20.4984080  24.5253130  37.5603000  20.8618300  20.5117230  37.2322300
  21.5846430  21.0526170  37.5503520  21.1342820  20.2380650  36.3563840
  34.6709950  25.3809700  41.4993880  35.1669070  25.1480570  42.2842760
  34.4726020  24.5421540  41.0831520  20.5510490  19.7623420  47.1344920
  21.1986680  19.2120800  46.6940080  20.9712330  20.0166570  47.9560730
  36.0997110  24.0170650  44.0331560  35.9896390  23.8626690  44.9713830
  36.8604700  23.4891590  43.7906970  34.4462830  19.9564780  50.4914560
  35.0835050  20.5698920  50.8573750  34.5937720  19.9925440  49.5463790
  36.9887380  21.8478570  37.2737700  37.9136690  21.7159750  37.0655990
  36.9663170  21.9271390  38.2274150  37.0625870  22.6189230  39.8994410
  36.2677370  22.5534350  40.4287320  37.2669150  23.5539870  39.8879760
  34.0044290  36.6580780  43.8932800  34.6003360  36.3365350  43.2167220
  34.2622440  36.1852600  44.6846070  20.3042490  19.9179090  49.8770240
  19.9557310  20.3742910  50.6428420  19.9730190  19.0236220  49.9592670
  21.9106860  33.0898690  54.0423430  21.8676490  32.7191600  54.9237890
  22.0417870  34.0276260  54.1825250  25.6112890  34.6458280  49.6433150
  25.3704250  34.9132840  48.7563670  26.5515530  34.8164010  49.6984010
  27.8167310  21.1090970  53.3989660  27.7556200  21.7012800  54.1485070
  28.7567690  21.0016930  53.2539920  30.4541870  20.7661030  53.0381950
  31.0682280  21.0840320  52.3763030  30.9991430  20.2809620  53.6577810
  36.8717050  36.6652660  50.4443790  36.3775330  37.0621530  49.7270920
  36.2630340  36.0401870  50.8381070  20.9763130  19.4455290  53.1521010
  21.5246120  19.2643340  52.3887120  21.0418440  18.6549400  53.6877320
  21.7494890  36.0360940  51.1621210  21.1555210  35.9045640  51.9011250
  21.7418730  35.1999080  50.6963310  31.1949910  19.3293170  49.3651240
  30.3209750  19.6628280  49.1624170  31.0860660  18.8566350  50.1903110
  32.1021890  21.5364040  50.7492960  31.7735250  20.7215800  50.3694690
  33.0504190  21.4933850  50.6258650  34.5556500  37.3076080  47.7230530
  34.0959470  38.0591890  47.3488550  33.9268960  36.5882550  47.6645330
  21.3807120  33.4019320  50.1129250  20.6541180  32.7824610  50.0455200
  21.4416270  33.7959930  49.2427330  24.9852220  35.6164320  46.8978660
  25.5017240  35.0051680  46.3726920  25.6349600  36.1193100  47.3889670
  27.7247720  36.5072810  47.7247640  28.0125530  36.2527110  46.8480650
  28.2370940  35.9550170  48.3153210  28.9424730  20.2463010  48.3044150
  28.1596520  20.7208510  48.5840910  28.6487660  19.3417840  48.1957330
  33.4945800  20.9486110  46.3493240  33.9353890  20.8931210  45.5014840
  33.2253390  21.8644120  46.4203420  35.3584370  20.5801350  44.3602060
  35.2972770  19.6362570  44.2133080  36.1376400  20.6881440  44.9055520
  19.6637120  36.7193710  43.3226010  19.4959160  36.0864390  44.0207900
  18.7971630  36.9253110  42.9720200  20.2865140  20.5510490  40.8257870
  21.0444500  20.6639370  40.2521900  19.8242310  21.3879690  40.7801300
  26.8278950  22.6649760  43.8160180  26.0153460  22.2906650  43.4756060
  27.3320590  21.9094840  44.1181370  31.3303930  19.3292210  45.0543250
  31.9333300  19.9012420  45.5291770  30.5896920  19.8931650  44.8317150
  34.4738530  19.7313770  40.3283530  34.6689160  20.6297220  40.5950960
  33.6868400  19.5000850  40.8216480  21.2699820  35.4126940  40.7676150
  20.7447440  35.7934970  40.0638110  21.1944400  36.0377710  41.4885860
  22.6590290  21.0774540  39.3659840  23.1883050  20.2904340  39.2367790
  23.2918610  21.7565730  39.5995370  24.8528130  20.8149680  42.4205230
  24.2230870  20.1136990  42.5875360  24.3133270  21.5753810  42.2038390
  27.7920080  37.4288910  55.0915840  28.7187390  37.1933180  55.1351800
  27.7770510  38.2560910  54.6101870  36.0265140  36.9714480  42.0890090
  36.2017330  36.2852220  41.4451010  35.3286710  37.4961530  41.6966760
  24.9783690  20.0933660  54.8557720  24.6967960  20.5967260  54.0918540
  25.3603390  19.2955410  54.4899850  23.8692790  37.3609320  39.6425400
  24.6011610  37.0768600  39.0949290  24.1286460  37.1222600  40.5324780
  23.0307580  33.4774050  39.6471730  22.4016460  33.9459150  40.1957560
  23.1455410  32.6323270  40.0817920  31.5799150  19.5087240  55.4338190
  31.4664600  19.8281850  56.3289710  32.3968890  19.9099750  55.1375470
  34.3597640  36.6558770  54.9156880  35.1522960  36.1608000  54.7082840
  34.6530790  37.3348910  55.5232490  30.4857300  27.5279710  25.7972930
  30.4051350  26.6134320  25.5264640  30.0721720  28.0246780  25.0912640
  28.6175340  29.3058730  27.6782200  27.8417440  28.8259170  27.9680770
  29.2688270  28.6264380  27.5038360  22.6341170  29.6178540  28.5557960
  21.8026050  29.3627250  28.9554470  23.2422150  29.6889310  29.2915880
  32.6382770  33.7118920  26.4581330  32.1764300  32.9406160  26.7868500
  33.4508320  33.7384990  26.9633780  22.6142430  33.6518630  28.7515980
  22.9170470  32.7616370  28.5726200  23.3586020  34.2088850  28.5238230
  21.0433120  24.5780430  22.3400350  20.1549820  24.9196400  22.2380230
  21.3274310  24.3780750  21.4481180  19.0066130  27.1786080  28.2240050
  19.5782240  26.4108280  28.2243690  19.0067670  27.4774840  27.3146660
  28.8646080  35.9976930  26.0785320  28.2457520  36.4534430  25.5079760
  29.7197860  36.1528390  25.6775020  28.0584330  31.9815920  27.6852360
  27.9892610  31.0405860  27.5241490  28.8204190  32.0717330  28.2574930
  20.2491000  22.5870440  30.0108980  20.0693840  21.6896190  30.2911740
  19.8471080  23.1342310  30.6855930  29.0889500  24.7886300  27.9121290
  29.4654320  23.9158180  27.7994960  28.9909010  25.1245000  27.0211730
  23.2194510  23.1611930  23.3738730  23.3261260  24.0615660  23.6807490
  22.3086870  23.1129900  23.0833380  32.8713620  22.2836740  24.8449630
  33.6923240  21.7933310  24.8875110  32.9047700  22.8734400  25.5981470
  20.8677670  25.0830940  28.6191320  21.5487780  25.3469310  29.2378720
  20.5525720  24.2431810  28.9529330  25.0602240  26.1298300  27.7063910
  25.5680460  26.6279270  28.3468930  25.5915480  25.3533500  27.5303270
  37.1613170  24.3003490  31.4093260  36.4565340  24.6885200  30.8908370
  37.4271090  24.9953780  32.0114190  23.3438340  20.7696860  31.9727330
  23.3456780  21.2869250  31.1673230  22.5142650  20.2927040  31.9497260
  29.7309430  30.8816170  23.4717230  29.1126700  31.3465620  22.9079950
  30.2432680  31.5743650  23.8886740  24.5941190  30.4092040  30.1500830
  24.2610570  31.0360960  30.7921900  24.7707870  30.9353920  29.3702500
  33.1075100  24.2237120  27.6177170  32.4030670  24.5122010  28.1980280
  33.4687260  25.0337230  27.2576730  23.0253670  22.4806820  29.9797780
  23.3670480  23.3248870  29.6851650  22.0869480  22.6290560  30.0963120
  23.8060290  32.3772840  31.9650010  24.4234290  33.0523920  31.6834460
  22.9453410  32.7860820  31.8737510  19.0992630  31.5672700  20.8456860
  18.7220610  32.0559800  20.1141760  19.3565700  32.2397980  21.4763390
  34.7237880  33.8412250  29.8804650  34.0401400  34.5111360  29.8721320
  35.2632170  34.0392900  29.1149510  36.1762020  23.6691910  28.0086380
  35.2286930  23.7030890  28.1401810  36.5012010  24.4830860  28.3935740
  26.7081560  19.9689090  26.3042370  27.0156540  19.4135980  25.5877870
  25.7782260  20.1033550  26.1215360  32.2596620  35.6856380  28.5949830
  32.2723780  35.2818670  27.7272090  31.7071840  36.4603670  28.4911260
  33.5542040  32.4072600  23.6840000  33.4438370  31.4646930  23.8089420
  33.5510290  32.7688240  24.5702760  31.6582060  30.5886220  29.9232440
  32.0750850  30.3746330  29.0885900  32.3821880  30.8459010  30.4941060
  29.0962320  28.0337920  23.0402490  28.1691600  27.9675300  23.2690960
  29.2487140  28.9718050  22.9257730  29.0831400  24.3054920  20.0369650
  28.1435070  24.4668880  20.1222110  29.4014660  25.0240600  19.4905640
  35.6044160  28.9873440  30.0148680  34.7762790  29.0566530  29.5398810
  36.1994640  29.5727750  29.5464510  33.1259610  29.5958220  23.5437740
  32.5072030  29.2577770  22.8964040  33.1084060  28.9517980  24.2516930
  32.5686170  25.7742760  30.9603550  32.1557350  26.5996470  31.2143540
  31.8362120  25.1887800  30.7679910  24.7018960  28.5602660  25.8222220
  24.2975960  27.8479910  25.3268120  24.7882080  28.2155900  26.7110260
  25.1700660  32.2470220  27.9861430  24.8728950  31.6415690  27.3069210
  26.1200480  32.2847530  27.8750790  23.4147580  25.3345870  29.6021260
  23.9662170  25.4441210  28.8274510  23.9291090  25.7083470  30.3176490
  33.2586270  35.8202090  31.6484530  32.7816830  36.6274280  31.4557140
  32.5748060  35.1680420  31.8010740  24.2619090  31.9851910  34.6369230
  23.3647620  32.2091880  34.8842630  24.2871960  32.1086850  33.6880630
  31.3024310  28.8345030  20.5510490  31.7417590  27.9967460  20.4048310
  32.0152730  29.4674430  20.6374630  23.0890310  28.8565230  33.2126600
  22.9498080  29.7288030  33.5814000  22.2071670  28.5138040  33.0674540
  29.4119690  33.7741100  24.5191730  29.8515600  34.5165430  24.1047120
  29.3506580  34.0167670  25.4430690  24.8870660  34.7986930  35.4211750
  24.8586090  35.2029880  34.5540180  24.7235630  33.8697290  35.2583350
  34.8841450  20.0887840  18.8651530  34.5714110  20.1814670  19.7650600
  35.6453920  20.6668870  18.8148960  21.4023590  27.4547640  23.3228870
  21.2821190  28.1809730  22.7110140  21.0924480  26.6850550  22.8456780
  19.0408960  30.6262780  29.1297510  19.1189380  30.7611550  28.1853230
  19.6550640  29.9178670  29.3225630  20.2856590  32.3262970  25.5403690
  19.8784670  32.4677560  24.6857290  21.1769600  32.0423130  25.3374900
  36.2418730  32.7726880  33.8775930  36.3681790  32.5338760  32.9593110
  36.2840110  31.9411420  34.3498010  30.1035470  36.4754880  32.4470740
  30.6180140  36.3862890  33.2493170  29.2604550  36.8214580  32.7398650
  32.0789870  36.7610220  21.8754740  31.9191010  36.4713160  22.7736570
  31.9136580  35.9850350  21.3399970  24.5578250  36.5408750  23.6526360
  24.3820730  35.6244290  23.4394160  23.7033990  36.8996040  23.8924160
  31.7816000  34.2697780  20.4352740  31.0881160  34.2675070  19.7755020
  32.5238860  33.8457100  20.0046910  31.3465930  35.8960490  24.5101230
  31.8022880  35.1149870  24.8239850  31.6858450  36.6067310  25.0542410
  36.0942740  24.8259340  34.8425670  35.4787010  25.3339010  34.3141130
  35.7739160  23.9257670  34.7851610  19.0968480  31.6676950  31.6691970
  19.2599520  31.1982310  30.8511340  19.5620930  31.1600510  32.3340810
  23.8687250  20.7982710  26.7052540  23.4255400  21.5792250  26.3737060
  24.4272240  21.1212600  27.4123480  28.1557060  23.6651230  32.3087860
  27.6936430  23.8734250  33.1207800  27.7535170  22.8510580  32.0058530
  33.1561570  24.8860180  33.4384520  32.3055160  24.5865930  33.7593590
  32.9963360  25.1302190  32.5268340  30.2511280  26.3861930  35.5383310
  30.5764690  25.5525680  35.1985540  31.0391610  26.9090450  35.6861640
  26.9846070  20.4193410  21.5858370  26.3600250  20.4153280  22.3111680
  26.8976190  19.5524370  21.1894340  25.9063150  21.3430040  28.5642140
  26.2035480  22.2492870  28.4834160  26.4548710  20.8548820  27.9501710
  23.6601470  25.9216280  24.4333790  23.4342390  25.7053450  25.3380410
  22.8794000  26.3544740  24.0879760  30.8899230  25.9279650  23.0324440
  30.2908120  26.6515450  22.8488060  31.4378840  25.8656430  22.2500890
  26.1000680  26.8201860  35.0994060  26.0044280  25.8796590  34.9494460
  26.9432660  27.0416930  34.7042130  29.4964100  24.5643190  25.0627720
  29.8893670  24.8815390  24.2496410  29.8580950  23.6855070  25.1772240
  21.2311220  23.2315530  33.2527840  20.8374610  24.0790740  33.4600620
  20.5429620  22.5941900  33.4436480  27.8056270  23.3150500  36.3224580
  27.1154590  23.1222700  36.9570670  28.5488570  23.5985140  36.8548880
  18.5328270  21.1543990  27.2857920  18.2441320  21.7246850  27.9982900
  19.2774030  20.6748440  27.6489150  18.7198500  25.0964110  18.4960640
  18.6373170  26.0394870  18.6375630  18.3681560  24.9539020  17.6172990
  30.0819240  27.1548940  29.1578500  29.3500360  27.6635750  29.5068600
  29.6843580  26.3378920  28.8567280  26.5196630  23.8303140  27.5630990
  26.5232690  23.3893090  26.7135530  27.4147750  24.1520470  27.6702810
  22.3699010  23.7129630  26.5225200  22.0299060  24.1904860  27.2792250
  21.6076330  23.2594750  26.1626300  26.5816780  24.8315220  20.5537750
  26.7029600  24.7901700  21.5023570  26.1965290  25.6939370  20.3984480
  30.5445150  22.6082620  28.5701440  30.5617890  23.0591270  29.4143290
  30.2960730  21.7088260  28.7834880  25.5938280  27.1416360  19.9521050
  25.0255180  26.6934610  19.3256960  26.3027280  27.5009140  19.4186200
  33.9715900  20.0214800  34.4087820  34.2961670  19.2904460  34.9345800
  34.0072410  19.7028440  33.5068810  20.6707460  31.0428380  33.8287780
  20.2862250  30.4022050  34.4270740  20.9819650  31.7464500  34.3982510
  26.8204600  27.8904920  29.3096400  27.1874730  27.4163490  30.0557740
  26.6309660  28.7646490  29.6504740  19.6845090  22.6348610  25.4389870
  19.3992010  22.2704280  26.2768490  19.6223950  21.9029070  24.8253010
  24.6103970  26.9313560  31.6280610  24.3061040  27.8105540  31.8530970
  25.5650430  26.9913350  31.6638050  23.1385760  31.1374550  22.2247460
  22.3648020  30.5972170  22.0646180  23.8680390  30.6181160  21.8865220
  33.8973740  30.1339910  28.0173850  34.6172860  30.6295200  27.6269960
  33.6955560  29.4557800  27.3727720  29.3583680  21.5277870  22.1603240
  28.5448290  21.0291040  22.0848550  29.1645630  22.3676120  21.7439590
  29.2792540  30.2048970  33.9042850  29.2129850  29.2844640  33.6500440
  28.6497680  30.3024410  34.6187490  32.0732070  25.8997520  20.4565400
  32.9611690  26.2114750  20.2816740  32.0437160  25.0269770  20.0645980
  23.1823160  30.8054930  25.8626270  23.7001830  30.0023190  25.8083160
  22.7307180  30.7434070  26.7043100  28.0692660  32.0721210  21.1353570
  28.4108360  32.8163440  20.6396890  27.2405370  32.3852330  21.4978400
  20.6667700  27.7716300  32.7751970  20.3082640  28.4370150  33.3625310
  20.3722260  26.9399850  33.1464590  23.8680820  28.2300540  35.6591520
  23.5680960  28.3757720  34.7619340  24.6392060  27.6705830  35.5664910
  29.2109270  33.0269540  33.6546650  29.2253810  32.0950500  33.4365560
  28.5034370  33.1129300  34.2936420  34.3446340  27.2109360  19.9245260
  34.2610060  27.6423580  19.0741700  35.0640530  27.6707710  20.3572080
  35.4220480  29.6676880  33.0015230  34.6968670  30.2605660  32.8044620
  35.9495940  29.6600420  32.2028600  35.3733590  34.0651620  22.6527390
  34.7309750  33.4107240  22.9271110  34.9864250  34.4706710  21.8768060
  30.9520070  31.3937050  26.4999080  31.3043890  30.7965180  25.8400450
  30.0682400  31.0681280  26.6707330  27.0383350  32.1534740  23.9069490
  27.7254480  32.7003950  24.2877080  26.2515770  32.6975470  23.9419100
  19.1775750  27.7707560  19.3986570  20.0470600  28.0532360  19.6822490
  18.6866070  28.5843430  19.2835380  26.3410560  29.1580770  23.5194850
  26.7973340  29.9686020  23.7455040  25.9898770  28.8403910  24.3513340
  28.6443170  34.6687110  30.7487150  29.2885390  34.8746490  31.4260570
  29.0072610  33.9075510  30.2958000  22.2422340  19.5018420  23.9917370
  22.1136970  19.4936320  24.9402290  21.4184360  19.8401510  23.6408380
  29.9175250  32.6719460  29.4664600  30.5597480  31.9712620  29.5796770
  30.4424600  33.4517900  29.2861490  33.7630970  32.9568080  19.1903740
  33.5368550  32.2398520  19.7828380  33.3727170  32.7080520  18.3525490
  31.6912870  33.4714360  32.6700660  32.0269110  34.0581050  33.3478580
  30.7713210  33.3407070  32.8998450  19.5447000  36.9834940  19.9648200
  19.9044640  37.5824280  19.3105470  19.4039340  37.5294830  20.7383230
  19.2416270  21.2609540  33.4524070  18.5274790  21.4606460  34.0576680
  19.6611310  20.4849110  33.8238870  33.3447220  30.8740020  20.8517900
  33.0568920  31.3352710  21.6395780  34.1399390  30.4137790  21.1202120
  19.5288860  35.2489800  34.4390600  19.6379980  34.3084540  34.2985990
  18.8769420  35.5144550  33.7904330  27.5201450  33.5205690  35.8388720
  27.1998320  32.8014930  36.3834410  26.8459810  34.1960760  35.9124780
  25.5615620  34.3666140  20.7821870  25.5525720  35.0995830  20.1666380
  24.6413980  34.1197720  20.8748830  21.1622260  29.5881030  21.5268630
  20.5550210  30.3279930  21.5363930  21.6371610  29.6780390  20.7006830
  30.7355050  23.7531850  31.2025520  31.1035870  22.9327060  31.5305090
  29.8753250  23.8133740  31.6181170  34.1017080  22.7088790  22.0113080
  33.4730240  22.8134460  21.2971310  33.6069000  22.9285570  22.8006960
  28.5475220  34.4294380  19.4447060  28.6487200  34.2258370  18.5149040
  27.6476960  34.1752660  19.6494840  26.0701110  24.9874740  23.4270960
  25.3617260  25.4561080  23.8684570  26.3545590  24.3296750  24.0616150
  27.6957040  26.4071440  31.4263490  28.1942290  26.8817260  32.0915340
  27.8379990  25.4834960  31.6333520  30.1016540  21.7125400  24.8666750
  29.9784320  21.7311530  23.9176260  31.0501100  21.7604340  24.9865150
  27.1893330  36.9480700  24.1394730  27.4434830  36.9102090  23.2174100
  26.2405810  36.8214030  24.1322980  24.2736130  23.2959820  20.8021670
  25.1226660  23.7329970  20.7361860  23.9067400  23.6080080  21.6293730
  34.9023900  22.6239400  32.2691880  34.3997500  23.3644800  32.6085690
  35.7180560  23.0123400  31.9528670  33.1945910  27.8672580  25.7153240
  32.2536050  27.8822810  25.8900930  33.5089980  27.0808540  26.1613540
  23.1727550  29.5492180  19.2757200  23.9390820  29.4373540  19.8382630
  23.2502240  28.8530150  18.6233970  21.8674310  26.9817250  19.9590090
  21.9477900  26.0344760  20.0707490  22.7594060  27.3124130  20.0650750
  35.1971490  35.0381430  27.3907500  35.3218910  35.8612600  27.8631310
  36.0637050  34.8272160  27.0431650  22.6689020  37.1312640  27.0624630
  23.4051500  36.5828100  27.3333200  23.0529940  37.9968650  26.9230620
  19.5534500  33.1986210  22.9366140  18.6274280  33.4407350  22.9271550
  20.0190930  34.0260470  22.8150890  21.6747300  36.3158710  36.2510210
  22.4760030  36.6370760  36.6645610  21.1599120  35.9554290  36.9730120
  25.7791330  36.3042950  18.8850200  26.5719940  36.5931780  18.4331990
  25.2595680  35.8735120  18.2062680  30.5111930  32.4238580  36.1985620
  29.9050090  32.4470180  35.4581370  30.2066040  31.6921620  36.7352870
  34.8321500  35.5313080  20.3086940  34.5463010  35.1178220  19.4941120
  34.6341050  36.4600790  20.1887460  19.3945110  28.8032170  35.1946260
  19.8984130  28.2239450  35.7662490  18.6552530  29.0872400  35.7322630
  26.2968730  31.5246360  18.7492550  26.1919370  30.9098710  19.4753930
  26.1292950  31.0012250  17.9655560  26.4483050  30.2103160  34.7281780
  25.6828720  30.7788160  34.6436450  26.6299010  29.9179370  33.8350010
  29.5371460  30.5866390  19.3534540  28.9881560  31.0335690  19.9977280
  30.1590720  30.0815640  19.8772210  21.4268190  26.9461760  36.0896330
  21.4673530  26.6475630  36.9981560  22.2813690  27.3469370  35.9303850
  25.2046580  29.5457310  21.2499840  25.6263000  29.3797180  22.0931230
  25.3297420  28.7357540  20.7554980  23.3674000  25.5253860  34.0570820
  22.8370460  25.0344810  33.4294160  24.0362070  25.9538060  33.5228750
  27.7174220  28.5694920  18.4976940  28.2379880  27.8543940  18.1318090
  28.3642620  29.2080790  18.7977450  32.2652060  29.9923320  33.8212010
  32.6793080  30.1468400  34.6702430  31.3303060  30.1178540  33.9837790
  32.7374230  27.3319480  35.8251160  33.3195000  26.5771800  35.7371640
  32.9136000  27.8626920  35.0482640  23.8546300  22.4916230  34.1368110
  23.7603170  21.8736980  33.4118980  23.2743690  23.2182520  33.9098020
  26.6207740  21.0489470  31.1695500  26.1725040  21.0713730  30.3241050
  25.9872940  20.6508490  31.7665800  27.0267290  29.9443800  31.7907940
  27.4455400  30.7876530  31.6184180  26.1075920  30.0815840  31.5614720
  29.3631190  27.6759980  33.1745780  29.4827400  27.0801120  33.9140620
  30.2225190  27.7129670  32.7547080  31.7019090  28.2297170  31.7508290
  31.1754310  28.7539790  31.1473430  32.0450430  28.8624560  32.3818020
  24.1005480  25.6190540  18.1958000  23.8994540  24.7557900  18.5571340
  23.9297530  25.5323900  17.2579600  24.8774710  36.2496810  32.9065670
  24.3395800  36.9742870  32.5874370  25.1308670  35.7727150  32.1163010
  26.1299960  24.2181330  34.4321600  26.7199650  23.9097180  35.1199420
  25.3120200  23.7461080  34.5881500  30.9493390  23.8347140  34.6654620
  30.2608910  23.1728680  34.6004610  31.6699410  23.3885410  35.1103080
  31.5793790  20.4298770  20.7244880  31.8596080  19.5866670  21.0804300
  30.8059520  20.6621880  21.2383630  22.8988280  22.7191160  18.1835880
  23.2014180  22.7258590  17.2755030  23.6382870  22.3689020  18.6803540
  27.7336920  37.4848020  33.1652320  27.6595620  38.3883160  33.4724690
  26.8315760  37.1659920  33.1374390  26.1173210  21.6625780  19.1692080
  25.7695210  20.9849770  18.5894530  26.3185980  21.2015290  19.9835470
  28.2822250  36.6506530  20.7878680  29.1773040  36.9891500  20.8097440
  28.3139880  35.9285940  20.1602960  21.9218410  32.0233580  19.0165680
  22.3593280  32.5663250  19.6723260  22.4066140  31.1980530  19.0262020
  19.1364210  34.8122610  26.4685940  19.4667220  33.9443670  26.2364580
  19.5655210  35.0181130  27.2990900  23.7326130  33.1431620  24.1287910
  23.4321670  33.0196590  25.0291820  23.6263620  32.2840210  23.7203640
  19.6254420  35.6793200  29.2067570  19.1885410  35.8594000  30.0391720
  20.1932100  36.4367820  29.0649290  36.5018050  32.9228020  18.8314590
  35.6711010  32.9904670  19.3021820  36.6789880  33.8132140  18.5281450
  35.9574510  29.6675500  21.3348790  36.7193420  30.2372150  21.4408480
  35.9728880  29.1002700  22.1057100  19.4578850  28.1913430  25.5656450
  18.8027690  27.9225070  24.9216150  20.2956800  28.0817910  25.1158430
  36.9634480  30.5225600  26.1790720  37.3343310  29.7392920  25.7726690
  37.6036410  31.2114700  26.0008020  33.9468240  31.9062180  31.5921040
  33.1328080  32.3359340  31.8546830  34.3542440  32.5180590  30.9790090
  36.0093680  29.9609870  18.4921310  36.2842520  30.8688750  18.3640530
  35.8204420  29.8972400  19.4283300  32.4069290  22.9854720  19.7874940
  32.8254170  22.7985700  18.9471600  32.1005350  22.1333770  20.0977870
  35.9059020  27.8978860  23.4850740  35.5302620  27.1306790  23.0532030
  35.1762140  28.2801560  23.9725670  20.4954780  28.5766000  30.1059790
  20.8627820  28.4893400  30.9855810  19.9265600  27.8132550  30.0066650
  35.2958640  27.0450380  33.1190260  35.0644730  26.8163130  32.2188210
  35.5563190  27.9649930  33.0735150  20.0470780  25.4875090  34.0118210
  19.1526830  25.4541850  34.3511920  20.5868330  25.6861880  34.7769460
  33.7346710  22.2706810  35.8969960  34.6116890  22.2790210  36.2803960
  33.7467550  21.5337650  35.2862310  18.6716930  25.4012360  21.5081780
  17.7681010  25.6642560  21.3333440  19.1557550  25.6723530  20.7281740
  35.1809980  26.1236350  26.7857980  35.7047460  25.6299000  26.1548150
  35.7669400  26.2586710  27.5305550  35.3599700  26.2076220  30.3077530
  34.4102410  26.1739760  30.4222520  35.5412710  27.1176330  30.0727300
  21.2144140  24.4577900  19.4176160  21.9235840  24.0361120  18.9323440
  20.4984080  24.5253130  18.7859510  20.8618300  20.5117230  18.4578810
  21.5846430  21.0526170  18.7760030  21.1342820  20.2380650  17.5820350
  34.6709950  25.3809700  22.7250390  35.1669070  25.1480570  23.5099270
  34.4726020  24.5421540  22.3088030  20.5510490  19.7623420  28.3601430
  21.1986680  19.2120800  27.9196590  20.9712330  20.0166570  29.1817240
  36.0997110  24.0170650  25.2588070  35.9896390  23.8626690  26.1970340
  36.8604700  23.4891590  25.0163480  34.4462830  19.9564780  31.7171070
  35.0835050  20.5698920  32.0830260  34.5937720  19.9925440  30.7720300
  36.9887380  21.8478570  18.4994210  37.9136690  21.7159750  18.2912500
  36.9663170  21.9271390  19.4530660  37.0625870  22.6189230  21.1250920
  36.2677370  22.5534350  21.6543830  37.2669150  23.5539870  21.1136270
  34.0044290  36.6580780  25.1189310  34.6003360  36.3365350  24.4423730
  34.2622440  36.1852600  25.9102580  20.3042490  19.9179090  31.1026750
  19.9557310  20.3742910  31.8684930  19.9730190  19.0236220  31.1849180
  21.9106860  33.0898690  35.2679940  21.8676490  32.7191600  36.1494400
  22.0417870  34.0276260  35.4081760  25.6112890  34.6458280  30.8689660
  25.3704250  34.9132840  29.9820180  26.5515530  34.8164010  30.9240520
  27.8167310  21.1090970  34.6246170  27.7556200  21.7012800  35.3741580
  28.7567690  21.0016930  34.4796430  30.4541870  20.7661030  34.2638460
  31.0682280  21.0840320  33.6019540  30.9991430  20.2809620  34.8834320
  20.9763130  19.4455290  34.3777520  21.5246120  19.2643340  33.6143630
  21.0418440  18.6549400  34.9133830  21.7494890  36.0360940  32.3877720
  21.1555210  35.9045640  33.1267760  21.7418730  35.1999080  31.9219820
  31.1949910  19.3293170  30.5907750  30.3209750  19.6628280  30.3880680
  31.0860660  18.8566350  31.4159620  32.1021890  21.5364040  31.9749470
  31.7735250  20.7215800  31.5951200  33.0504190  21.4933850  31.8515160
  34.5556500  37.3076080  28.9487040  34.0959470  38.0591890  28.5745060
  33.9268960  36.5882550  28.8901840  21.3807120  33.4019320  31.3385760
  20.6541180  32.7824610  31.2711710  21.4416270  33.7959930  30.4683840
  24.9852220  35.6164320  28.1235170  25.5017240  35.0051680  27.5983430
  25.6349600  36.1193100  28.6146180  27.7247720  36.5072810  28.9504150
  28.0125530  36.2527110  28.0737160  28.2370940  35.9550170  29.5409720
  28.9424730  20.2463010  29.5300660  28.1596520  20.7208510  29.8097420
  28.6487660  19.3417840  29.4213840  33.4945800  20.9486110  27.5749750
  33.9353890  20.8931210  26.7271350  33.2253390  21.8644120  27.6459930
  35.3584370  20.5801350  25.5858570  35.2972770  19.6362570  25.4389590
  36.1376400  20.6881440  26.1312030  19.6637120  36.7193710  24.5482520
  19.4959160  36.0864390  25.2464410  18.7971630  36.9253110  24.1976710
  20.2865140  20.5510490  22.0514380  21.0444500  20.6639370  21.4778410
  19.8242310  21.3879690  22.0057810  26.8278950  22.6649760  25.0416690
  26.0153460  22.2906650  24.7012570  27.3320590  21.9094840  25.3437880
  31.3303930  19.3292210  26.2799760  31.9333300  19.9012420  26.7548280
  30.5896920  19.8931650  26.0573660  34.4738530  19.7313770  21.5540040
  34.6689160  20.6297220  21.8207470  33.6868400  19.5000850  22.0472990
  21.2699820  35.4126940  21.9932660  20.7447440  35.7934970  21.2894620
  21.1944400  36.0377710  22.7142370  22.6590290  21.0774540  20.5916350
  23.1883050  20.2904340  20.4624300  23.2918610  21.7565730  20.8251880
  24.8528130  20.8149680  23.6461740  24.2230870  20.1136990  23.8131870
  24.3133270  21.5753810  23.4294900  27.7920080  37.4288910  36.3172350
  28.7187390  37.1933180  36.3608310  27.7770510  38.2560910  35.8358380
  36.0265140  36.9714480  23.3146600  36.2017330  36.2852220  22.6707520
  35.3286710  37.4961530  22.9223270  24.9783690  20.0933660  36.0814230
  24.6967960  20.5967260  35.3175050  25.3603390  19.2955410  35.7156360
  23.8692790  37.3609320  20.8681910  24.6011610  37.0768600  20.3205800
  24.1286460  37.1222600  21.7581290  23.0307580  33.4774050  20.8728240
  22.4016460  33.9459150  21.4214070  23.1455410  32.6323270  21.3074430
  31.5799150  19.5087240  36.6594700  31.4664600  19.8281850  37.5546220
  32.3968890  19.9099750  36.3631980  30.4857300  27.5279710   7.0229440
  30.4051350  26.6134320   6.7521150  30.0721720  28.0246780   6.3169150
  28.6175340  29.3058730   8.9038710  27.8417440  28.8259170   9.1937280
  29.2688270  28.6264380   8.7294870  22.6341170  29.6178540   9.7814470
  21.8026050  29.3627250  10.1810980  23.2422150  29.6889310  10.5172390
  32.6382770  33.7118920   7.6837840  32.1764300  32.9406160   8.0125010
  33.4508320  33.7384990   8.1890290  22.6142430  33.6518630   9.9772490
  22.9170470  32.7616370   9.7982710  23.3586020  34.2088850   9.7494740
  21.0433120  24.5780430   3.5656860  20.1549820  24.9196400   3.4636740
  21.3274310  24.3780750   2.6737690  19.0066130  27.1786080   9.4496560
  19.5782240  26.4108280   9.4500200  19.0067670  27.4774840   8.5403170
  28.8646080  35.9976930   7.3041830  28.2457520  36.4534430   6.7336270
  29.7197860  36.1528390   6.9031530  28.0584330  31.9815920   8.9108870
  27.9892610  31.0405860   8.7498000  28.8204190  32.0717330   9.4831440
  20.2491000  22.5870440  11.2365490  20.0693840  21.6896190  11.5168250
  19.8471080  23.1342310  11.9112440  29.0889500  24.7886300   9.1377800
  29.4654320  23.9158180   9.0251470  28.9909010  25.1245000   8.2468240
  23.2194510  23.1611930   4.5995240  23.3261260  24.0615660   4.9064000
  22.3086870  23.1129900   4.3089890  32.8713620  22.2836740   6.0706140
  33.6923240  21.7933310   6.1131620  32.9047700  22.8734400   6.8237980
  20.8677670  25.0830940   9.8447830  21.5487780  25.3469310  10.4635230
  20.5525720  24.2431810  10.1785840  25.0602240  26.1298300   8.9320420
  25.5680460  26.6279270   9.5725440  25.5915480  25.3533500   8.7559780
  37.1613170  24.3003490  12.6349770  36.4565340  24.6885200  12.1164880
  37.4271090  24.9953780  13.2370700  23.3438340  20.7696860  13.1983840
  23.3456780  21.2869250  12.3929740  22.5142650  20.2927040  13.1753770
  29.7309430  30.8816170   4.6973740  29.1126700  31.3465620   4.1336460
  30.2432680  31.5743650   5.1143250  24.5941190  30.4092040  11.3757340
  24.2610570  31.0360960  12.0178410  24.7707870  30.9353920  10.5959010
  33.1075100  24.2237120   8.8433680  32.4030670  24.5122010   9.4236790
  33.4687260  25.0337230   8.4833240  23.0253670  22.4806820  11.2054290
  23.3670480  23.3248870  10.9108160  22.0869480  22.6290560  11.3219630
  23.8060290  32.3772840  13.1906520  24.4234290  33.0523920  12.9090970
  22.9453410  32.7860820  13.0994020  19.0992630  31.5672700   2.0713370
  18.7220610  32.0559800   1.3398270  19.3565700  32.2397980   2.7019900
  34.7237880  33.8412250  11.1061160  34.0401400  34.5111360  11.0977830
  35.2632170  34.0392900  10.3406020  36.1762020  23.6691910   9.2342890
  35.2286930  23.7030890   9.3658320  36.5012010  24.4830860   9.6192250
  26.7081560  19.9689090   7.5298880  27.0156540  19.4135980   6.8134380
  25.7782260  20.1033550   7.3471870  32.2596620  35.6856380   9.8206340
  32.2723780  35.2818670   8.9528600  31.7071840  36.4603670   9.7167770
  33.5542040  32.4072600   4.9096510  33.4438370  31.4646930   5.0345930
  33.5510290  32.7688240   5.7959270  31.6582060  30.5886220  11.1488950
  32.0750850  30.3746330  10.3142410  32.3821880  30.8459010  11.7197570
  29.0962320  28.0337920   4.2659000  28.1691600  27.9675300   4.4947470
  29.2487140  28.9718050   4.1514240  35.6044160  28.9873440  11.2405190
  34.7762790  29.0566530  10.7655320  36.1994640  29.5727750  10.7721020
  33.1259610  29.5958220   4.7694250  32.5072030  29.2577770   4.1220550
  33.1084060  28.9517980   5.4773440  32.5686170  25.7742760  12.1860060
  32.1557350  26.5996470  12.4400050  31.8362120  25.1887800  11.9936420
  24.7018960  28.5602660   7.0478730  24.2975960  27.8479910   6.5524630
  24.7882080  28.2155900   7.9366770  25.1700660  32.2470220   9.2117940
  24.8728950  31.6415690   8.5325720  26.1200480  32.2847530   9.1007300
  23.4147580  25.3345870  10.8277770  23.9662170  25.4441210  10.0531020
  23.9291090  25.7083470  11.5433000  33.2586270  35.8202090  12.8741040
  32.7816830  36.6274280  12.6813650  32.5748060  35.1680420  13.0267250
  24.2619090  31.9851910  15.8625740  23.3647620  32.2091880  16.1099140
  24.2871960  32.1086850  14.9137140  31.3024310  28.8345030   1.7767000
  31.7417590  27.9967460   1.6304820  32.0152730  29.4674430   1.8631140
  23.0890310  28.8565230  14.4383110  22.9498080  29.7288030  14.8070510
  22.2071670  28.5138040  14.2931050  29.4119690  33.7741100   5.7448240
  29.8515600  34.5165430   5.3303630  29.3506580  34.0167670   6.6687200
  24.8870660  34.7986930  16.6468260  24.8586090  35.2029880  15.7796690
  24.7235630  33.8697290  16.4839860  21.4023590  27.4547640   4.5485380
  21.2821190  28.1809730   3.9366650  21.0924480  26.6850550   4.0713290
  36.8385480  35.5814030  17.9432430  37.3145200  36.0596920  18.6221510
  37.4592640  35.5131520  17.2177930  19.0408960  30.6262780  10.3554020
  19.1189380  30.7611550   9.4109740  19.6550640  29.9178670  10.5482140
  20.2856590  32.3262970   6.7660200  19.8784670  32.4677560   5.9113800
  21.1769600  32.0423130   6.5631410  36.2418730  32.7726880  15.1032440
  36.3681790  32.5338760  14.1849620  36.2840110  31.9411420  15.5754520
  30.1035470  36.4754880  13.6727250  30.6180140  36.3862890  14.4749680
  29.2604550  36.8214580  13.9655160  32.0789870  36.7610220   3.1011250
  31.9191010  36.4713160   3.9993080  31.9136580  35.9850350   2.5656480
  24.5578250  36.5408750   4.8782870  24.3820730  35.6244290   4.6650670
  23.7033990  36.8996040   5.1180670  31.3465930  35.8960490   5.7357740
  31.8022880  35.1149870   6.0496360  31.6858450  36.6067310   6.2798920
  36.0942740  24.8259340  16.0682180  35.4787010  25.3339010  15.5397640
  35.7739160  23.9257670  16.0108120  19.0968480  31.6676950  12.8948480
  19.2599520  31.1982310  12.0767850  19.5620930  31.1600510  13.5597320
  23.8687250  20.7982710   7.9309050  23.4255400  21.5792250   7.5993570
  24.4272240  21.1212600   8.6379990  28.1557060  23.6651230  13.5344370
  27.6936430  23.8734250  14.3464310  27.7535170  22.8510580  13.2315040
  33.1561570  24.8860180  14.6641030  32.3055160  24.5865930  14.9850100
  32.9963360  25.1302190  13.7524850  30.2511280  26.3861930  16.7639820
  30.5764690  25.5525680  16.4242050  31.0391610  26.9090450  16.9118150
  26.9846070  20.4193410   2.8114880  26.3600250  20.4153280   3.5368190
  26.8976190  19.5524370   2.4150850  25.9063150  21.3430040   9.7898650
  26.2035480  22.2492870   9.7090670  26.4548710  20.8548820   9.1758220
  23.6601470  25.9216280   5.6590300  23.4342390  25.7053450   6.5636920
  22.8794000  26.3544740   5.3136270  30.8899230  25.9279650   4.2580950
  30.2908120  26.6515450   4.0744570  31.4378840  25.8656430   3.4757400
  26.1000680  26.8201860  16.3250570  26.0044280  25.8796590  16.1750970
  26.9432660  27.0416930  15.9298640  29.4964100  24.5643190   6.2884230
  29.8893670  24.8815390   5.4752920  29.8580950  23.6855070   6.4028750
  21.2311220  23.2315530  14.4784350  20.8374610  24.0790740  14.6857130
  20.5429620  22.5941900  14.6692990  27.8056270  23.3150500  17.5481090
  27.1154590  23.1222700  18.1827180  28.5488570  23.5985140  18.0805390
  18.5328270  21.1543990   8.5114430  18.2441320  21.7246850   9.2239410
  19.2774030  20.6748440   8.8745660  30.0819240  27.1548940  10.3835010
  29.3500360  27.6635750  10.7325110  29.6843580  26.3378920  10.0823790
  26.5196630  23.8303140   8.7887500  26.5232690  23.3893090   7.9392040
  27.4147750  24.1520470   8.8959320  22.3699010  23.7129630   7.7481710
  22.0299060  24.1904860   8.5048760  21.6076330  23.2594750   7.3882810
  26.5816780  24.8315220   1.7794260  26.7029600  24.7901700   2.7280080
  26.1965290  25.6939370   1.6240990  30.5445150  22.6082620   9.7957950
  30.5617890  23.0591270  10.6399800  30.2960730  21.7088260  10.0091390
  33.9715900  20.0214800  15.6344330  34.2961670  19.2904460  16.1602310
  34.0072410  19.7028440  14.7325320  20.6707460  31.0428380  15.0544290
  20.2862250  30.4022050  15.6527250  20.9819650  31.7464500  15.6239020
  26.8204600  27.8904920  10.5352910  27.1874730  27.4163490  11.2814250
  26.6309660  28.7646490  10.8761250  19.6845090  22.6348610   6.6646380
  19.3992010  22.2704280   7.5025000  19.6223950  21.9029070   6.0509520
  24.6103970  26.9313560  12.8537120  24.3061040  27.8105540  13.0787480
  25.5650430  26.9913350  12.8894560  23.1385760  31.1374550   3.4503970
  22.3648020  30.5972170   3.2902690  23.8680390  30.6181160   3.1121730
  33.8973740  30.1339910   9.2430360  34.6172860  30.6295200   8.8526470
  33.6955560  29.4557800   8.5984230  29.3583680  21.5277870   3.3859750
  28.5448290  21.0291040   3.3105060  29.1645630  22.3676120   2.9696100
  29.2792540  30.2048970  15.1299360  29.2129850  29.2844640  14.8756950
  28.6497680  30.3024410  15.8444000  23.1823160  30.8054930   7.0882780
  23.7001830  30.0023190   7.0339670  22.7307180  30.7434070   7.9299610
  28.0692660  32.0721210   2.3610080  28.4108360  32.8163440   1.8653400
  27.2405370  32.3852330   2.7234910  20.6667700  27.7716300  14.0008480
  20.3082640  28.4370150  14.5881820  20.3722260  26.9399850  14.3721100
  23.8680820  28.2300540  16.8848030  23.5680960  28.3757720  15.9875850
  24.6392060  27.6705830  16.7921420  29.2109270  33.0269540  14.8803160
  29.2253810  32.0950500  14.6622070  28.5034370  33.1129300  15.5192930
  35.4220480  29.6676880  14.2271740  34.6968670  30.2605660  14.0301130
  35.9495940  29.6600420  13.4285110  35.3733590  34.0651620   3.8783900
  34.7309750  33.4107240   4.1527620  34.9864250  34.4706710   3.1024570
  30.9520070  31.3937050   7.7255590  31.3043890  30.7965180   7.0656960
  30.0682400  31.0681280   7.8963840  27.0383350  32.1534740   5.1326000
  27.7254480  32.7003950   5.5133590  26.2515770  32.6975470   5.1675610
  26.3410560  29.1580770   4.7451360  26.7973340  29.9686020   4.9711550
  25.9898770  28.8403910   5.5769850  28.6443170  34.6687110  11.9743660
  29.2885390  34.8746490  12.6517080  29.0072610  33.9075510  11.5214510
  22.2422340  19.5018420   5.2173880  22.1136970  19.4936320   6.1658800
  21.4184360  19.8401510   4.8664890  29.9175250  32.6719460  10.6921110
  30.5597480  31.9712620  10.8053280  30.4424600  33.4517900  10.5118000
  31.6912870  33.4714360  13.8957170  32.0269110  34.0581050  14.5735090
  30.7713210  33.3407070  14.1254960  19.2416270  21.2609540  14.6780580
  18.5274790  21.4606460  15.2833190  19.6611310  20.4849110  15.0495380
  33.3447220  30.8740020   2.0774410  33.0568920  31.3352710   2.8652290
  34.1399390  30.4137790   2.3458630  19.5288860  35.2489800  15.6647110
  19.6379980  34.3084540  15.5242500  18.8769420  35.5144550  15.0160840
  27.5201450  33.5205690  17.0645230  27.1998320  32.8014930  17.6090920
  26.8459810  34.1960760  17.1381290  25.5615620  34.3666140   2.0078380
  25.5525720  35.0995830   1.3922890  24.6413980  34.1197720   2.1005340
  21.1622260  29.5881030   2.7525140  20.5550210  30.3279930   2.7620440
  21.6371610  29.6780390   1.9263340  30.7355050  23.7531850  12.4282030
  31.1035870  22.9327060  12.7561600  29.8753250  23.8133740  12.8437680
  34.1017080  22.7088790   3.2369590  33.4730240  22.8134460   2.5227820
  33.6069000  22.9285570   4.0263470  26.0701110  24.9874740   4.6527470
  25.3617260  25.4561080   5.0941080  26.3545590  24.3296750   5.2872660
  27.6957040  26.4071440  12.6520000  28.1942290  26.8817260  13.3171850
  27.8379990  25.4834960  12.8590030  30.1016540  21.7125400   6.0923260
  29.9784320  21.7311530   5.1432770  31.0501100  21.7604340   6.2121660
  27.1893330  36.9480700   5.3651240  27.4434830  36.9102090   4.4430610
  26.2405810  36.8214030   5.3579490  24.2736130  23.2959820   2.0278180
  25.1226660  23.7329970   1.9618370  23.9067400  23.6080080   2.8550240
  34.9023900  22.6239400  13.4948390  34.3997500  23.3644800  13.8342200
  35.7180560  23.0123400  13.1785180  33.1945910  27.8672580   6.9409750
  32.2536050  27.8822810   7.1157440  33.5089980  27.0808540   7.3870050
  35.1971490  35.0381430   8.6164010  35.3218910  35.8612600   9.0887820
  36.0637050  34.8272160   8.2688160  22.6689020  37.1312640   8.2881140
  23.4051500  36.5828100   8.5589710  23.0529940  37.9968650   8.1487130
  19.5534500  33.1986210   4.1622650  18.6274280  33.4407350   4.1528060
  20.0190930  34.0260470   4.0407400  21.6747300  36.3158710  17.4766720
  22.4760030  36.6370760  17.8902120  21.1599120  35.9554290  18.1986630
  30.5111930  32.4238580  17.4242130  29.9050090  32.4470180  16.6837880
  30.2066040  31.6921620  17.9609380  31.9412300  36.1518870  16.0351540
  32.8934050  36.0676890  15.9851780  31.7940520  36.8160580  16.7085330
  19.3945110  28.8032170  16.4202770  19.8984130  28.2239450  16.9919000
  18.6552530  29.0872400  16.9579140  26.4483050  30.2103160  15.9538290
  25.6828720  30.7788160  15.8692960  26.6299010  29.9179370  15.0606520
  33.5906400  31.9408490  16.5113310  34.3315870  32.2784250  16.0080770
  32.8279080  32.1100550  15.9583080  21.4268190  26.9461760  17.3152840
  21.4673530  26.6475630  18.2238070  22.2813690  27.3469370  17.1560360
  25.2046580  29.5457310   2.4756350  25.6263000  29.3797180   3.3187740
  25.3297420  28.7357540   1.9811490  23.3674000  25.5253860  15.2827330
  22.8370460  25.0344810  14.6550670  24.0362070  25.9538060  14.7485260
  32.2652060  29.9923320  15.0468520  32.6793080  30.1468400  15.8958940
  31.3303060  30.1178540  15.2094300  32.7374230  27.3319480  17.0507670
  33.3195000  26.5771800  16.9628150  32.9136000  27.8626920  16.2739150
  23.8546300  22.4916230  15.3624620  23.7603170  21.8736980  14.6375490
  23.2743690  23.2182520  15.1354530  26.6207740  21.0489470  12.3952010
  26.1725040  21.0713730  11.5497560  25.9872940  20.6508490  12.9922310
  27.0267290  29.9443800  13.0164450  27.4455400  30.7876530  12.8440690
  26.1075920  30.0815840  12.7871230  29.3631190  27.6759980  14.4002290
  29.4827400  27.0801120  15.1397130  30.2225190  27.7129670  13.9803590
  31.7019090  28.2297170  12.9764800  31.1754310  28.7539790  12.3729940
  32.0450430  28.8624560  13.6074530  24.8774710  36.2496810  14.1322180
  24.3395800  36.9742870  13.8130880  25.1308670  35.7727150  13.3419520
  26.1299960  24.2181330  15.6578110  26.7199650  23.9097180  16.3455930
  25.3120200  23.7461080  15.8138010  30.9493390  23.8347140  15.8911130
  30.2608910  23.1728680  15.8261120  31.6699410  23.3885410  16.3359590
  31.5793790  20.4298770   1.9501390  31.8596080  19.5866670   2.3060810
  30.8059520  20.6621880   2.4640140  27.7336920  37.4848020  14.3908830
  27.6595620  38.3883160  14.6981200  26.8315760  37.1659920  14.3630900
  28.2822250  36.6506530   2.0135190  29.1773040  36.9891500   2.0353950
  28.3139880  35.9285940   1.3859470  19.1364210  34.8122610   7.6942450
  19.4667220  33.9443670   7.4621090  19.5655210  35.0181130   8.5247410
  23.7326130  33.1431620   5.3544420  23.4321670  33.0196590   6.2548330
  23.6263620  32.2840210   4.9460150  19.6254420  35.6793200  10.4324080
  19.1885410  35.8594000  11.2648230  20.1932100  36.4367820  10.2905800
  35.2616600  35.1810200  14.7201390  34.6618590  35.2402760  13.9765310
  35.3910500  34.2415180  14.8498240  35.9574510  29.6675500   2.5605300
  36.7193420  30.2372150   2.6664990  35.9728880  29.1002700   3.3313610
  19.4578850  28.1913430   6.7912960  18.8027690  27.9225070   6.1472660
  20.2956800  28.0817910   6.3414940  36.9634480  30.5225600   7.4047230
  37.3343310  29.7392920   6.9983200  37.6036410  31.2114700   7.2264530
  33.9468240  31.9062180  12.8177550  33.1328080  32.3359340  13.0803340
  34.3542440  32.5180590  12.2046600  35.9059020  27.8978860   4.7107250
  35.5302620  27.1306790   4.2788540  35.1762140  28.2801560   5.1982180
  20.4954780  28.5766000  11.3316300  20.8627820  28.4893400  12.2112320
  19.9265600  27.8132550  11.2323160  35.2958640  27.0450380  14.3446770
  35.0644730  26.8163130  13.4444720  35.5563190  27.9649930  14.2991660
  20.0470780  25.4875090  15.2374720  19.1526830  25.4541850  15.5768430
  20.5868330  25.6861880  16.0025970  33.7346710  22.2706810  17.1226470
  34.6116890  22.2790210  17.5060470  33.7467550  21.5337650  16.5118820
  18.6716930  25.4012360   2.7338290  17.7681010  25.6642560   2.5589950
  19.1557550  25.6723530   1.9538250  35.1809980  26.1236350   8.0114490
  35.7047460  25.6299000   7.3804660  35.7669400  26.2586710   8.7562060
  35.3599700  26.2076220  11.5334040  34.4102410  26.1739760  11.6479030
  35.5412710  27.1176330  11.2983810  34.6709950  25.3809700   3.9506900
  35.1669070  25.1480570   4.7355780  34.4726020  24.5421540   3.5344540
  20.5510490  19.7623420   9.5857940  21.1986680  19.2120800   9.1453100
  20.9712330  20.0166570  10.4073750  36.0997110  24.0170650   6.4844580
  35.9896390  23.8626690   7.4226850  36.8604700  23.4891590   6.2419990
  34.4462830  19.9564780  12.9427580  35.0835050  20.5698920  13.3086770
  34.5937720  19.9925440  11.9976810  37.0625870  22.6189230   2.3507430
  36.2677370  22.5534350   2.8800340  37.2669150  23.5539870   2.3392780
  34.0044290  36.6580780   6.3445820  34.6003360  36.3365350   5.6680240
  34.2622440  36.1852600   7.1359090  20.3042490  19.9179090  12.3283260
  19.9557310  20.3742910  13.0941440  19.9730190  19.0236220  12.4105690
  21.9106860  33.0898690  16.4936450  21.8676490  32.7191600  17.3750910
  22.0417870  34.0276260  16.6338270  25.6112890  34.6458280  12.0946170
  25.3704250  34.9132840  11.2076690  26.5515530  34.8164010  12.1497030
  27.8167310  21.1090970  15.8502680  27.7556200  21.7012800  16.5998090
  28.7567690  21.0016930  15.7052940  30.4541870  20.7661030  15.4894970
  31.0682280  21.0840320  14.8276050  30.9991430  20.2809620  16.1090830
  36.8717050  36.6652660  12.8956810  36.3775330  37.0621530  12.1783940
  36.2630340  36.0401870  13.2894090  20.9763130  19.4455290  15.6034030
  21.5246120  19.2643340  14.8400140  21.0418440  18.6549400  16.1390340
  21.7494890  36.0360940  13.6134230  21.1555210  35.9045640  14.3524270
  21.7418730  35.1999080  13.1476330  31.1949910  19.3293170  11.8164260
  30.3209750  19.6628280  11.6137190  31.0860660  18.8566350  12.6416130
  32.1021890  21.5364040  13.2005980  31.7735250  20.7215800  12.8207710
  33.0504190  21.4933850  13.0771670  34.5556500  37.3076080  10.1743550
  34.0959470  38.0591890   9.8001570  33.9268960  36.5882550  10.1158350
  21.3807120  33.4019320  12.5642270  20.6541180  32.7824610  12.4968220
  21.4416270  33.7959930  11.6940350  24.9852220  35.6164320   9.3491680
  25.5017240  35.0051680   8.8239940  25.6349600  36.1193100   9.8402690
  27.7247720  36.5072810  10.1760660  28.0125530  36.2527110   9.2993670
  28.2370940  35.9550170  10.7666230  28.9424730  20.2463010  10.7557170
  28.1596520  20.7208510  11.0353930  28.6487660  19.3417840  10.6470350
  33.4945800  20.9486110   8.8006260  33.9353890  20.8931210   7.9527860
  33.2253390  21.8644120   8.8716440  35.3584370  20.5801350   6.8115080
  35.2972770  19.6362570   6.6646100  36.1376400  20.6881440   7.3568540
  19.6637120  36.7193710   5.7739030  19.4959160  36.0864390   6.4720920
  18.7971630  36.9253110   5.4233220  20.2865140  20.5510490   3.2770890
  21.0444500  20.6639370   2.7034920  19.8242310  21.3879690   3.2314320
  26.8278950  22.6649760   6.2673200  26.0153460  22.2906650   5.9269080
  27.3320590  21.9094840   6.5694390  31.3303930  19.3292210   7.5056270
  31.9333300  19.9012420   7.9804790  30.5896920  19.8931650   7.2830170
  34.4738530  19.7313770   2.7796550  34.6689160  20.6297220   3.0463980
  33.6868400  19.5000850   3.2729500  21.2699820  35.4126940   3.2189170
  20.7447440  35.7934970   2.5151130  21.1944400  36.0377710   3.9398880
  22.6590290  21.0774540   1.8172860  23.1883050  20.2904340   1.6880810
  23.2918610  21.7565730   2.0508390  24.8528130  20.8149680   4.8718250
  24.2230870  20.1136990   5.0388380  24.3133270  21.5753810   4.6551410
  27.7920080  37.4288910  17.5428860  28.7187390  37.1933180  17.5864820
  27.7770510  38.2560910  17.0614890  36.0265140  36.9714480   4.5403110
  36.2017330  36.2852220   3.8964030  35.3286710  37.4961530   4.1479780
  24.9783690  20.0933660  17.3070740  24.6967960  20.5967260  16.5431560
  25.3603390  19.2955410  16.9412870  23.8692790  37.3609320   2.0938420
  24.6011610  37.0768600   1.5462310  24.1286460  37.1222600   2.9837800
  23.0307580  33.4774050   2.0984750  22.4016460  33.9459150   2.6470580
  23.1455410  32.6323270   2.5330940  31.5799150  19.5087240  17.8851210
  31.4664600  19.8281850  18.7802730  32.3968890  19.9099750  17.5888490
  34.3597640  36.6558770  17.3669900  35.1522960  36.1608000  17.1595860
  34.6530790  37.3348910  17.9745510  30.4857300   8.7536220  63.3459910
  30.4051350   7.8390830  63.0751620  30.0721720   9.2503290  62.6399620
  28.6175340  10.5315240  65.2269180  27.8417440  10.0515680  65.5167750
  29.2688270   9.8520890  65.0525340  22.6341170  10.8435050  66.1044940
  21.8026050  10.5883760  66.5041450  23.2422150  10.9145820  66.8402860
  32.6382770  14.9375430  64.0068310  32.1764300  14.1662670  64.3355480
  33.4508320  14.9641500  64.5120760  22.6142430  14.8775140  66.3002960
  22.9170470  13.9872880  66.1213180  23.3586020  15.4345360  66.0725210
  21.0433120   5.8036940  59.8887330  20.1549820   6.1452910  59.7867210
  21.3274310   5.6037260  58.9968160  19.0066130   8.4042590  65.7727030
  19.5782240   7.6364790  65.7730670  19.0067670   8.7031350  64.8633640
  28.8646080  17.2233440  63.6272300  28.2457520  17.6790940  63.0566740
  29.7197860  17.3784900  63.2262000  28.0584330  13.2072430  65.2339340
  27.9892610  12.2662370  65.0728470  28.8204190  13.2973840  65.8061910
  20.2491000   3.8126950  67.5595960  20.0693840   2.9152700  67.8398720
  19.8471080   4.3598820  68.2342910  29.0889500   6.0142810  65.4608270
  29.4654320   5.1414690  65.3481940  28.9909010   6.3501510  64.5698710
  23.2194510   4.3868440  60.9225710  23.3261260   5.2872170  61.2294470
  22.3086870   4.3386410  60.6320360  32.8713620   3.5093250  62.3936610
  33.6923240   3.0189820  62.4362090  32.9047700   4.0990910  63.1468450
  20.8677670   6.3087450  66.1678300  21.5487780   6.5725820  66.7865700
  20.5525720   5.4688320  66.5016310  25.0602240   7.3554810  65.2550890
  25.5680460   7.8535780  65.8955910  25.5915480   6.5790010  65.0790250
  37.1613170   5.5260000  68.9580240  36.4565340   5.9141710  68.4395350
  37.4271090   6.2210290  69.5601170  29.7309430  12.1072680  61.0204210
  29.1126700  12.5722130  60.4566930  30.2432680  12.8000160  61.4373720
  24.5941190  11.6348550  67.6987810  24.2610570  12.2617470  68.3408880
  24.7707870  12.1610430  66.9189480  33.1075100   5.4493630  65.1664150
  32.4030670   5.7378520  65.7467260  33.4687260   6.2593740  64.8063710
  23.0253670   3.7063330  67.5284760  23.3670480   4.5505380  67.2338630
  22.0869480   3.8547070  67.6450100  23.8060290  13.6029350  69.5136990
  24.4234290  14.2780430  69.2321440  22.9453410  14.0117330  69.4224490
  19.0992630  12.7929210  58.3943840  18.7220610  13.2816310  57.6628740
  19.3565700  13.4654490  59.0250370  34.7237880  15.0668760  67.4291630
  34.0401400  15.7367870  67.4208300  35.2632170  15.2649410  66.6636490
  36.1762020   4.8948420  65.5573360  35.2286930   4.9287400  65.6888790
  36.5012010   5.7087370  65.9422720  32.2596620  16.9112890  66.1436810
  32.2723780  16.5075180  65.2759070  31.7071840  17.6860180  66.0398240
  33.5542040  13.6329110  61.2326980  33.4438370  12.6903440  61.3576400
  33.5510290  13.9944750  62.1189740  31.6582060  11.8142730  67.4719420
  32.0750850  11.6002840  66.6372880  32.3821880  12.0715520  68.0428040
  29.0962320   9.2594430  60.5889470  28.1691600   9.1931810  60.8177940
  29.2487140  10.1974560  60.4744710  29.0831400   5.5311430  57.5856630
  28.1435070   5.6925390  57.6709090  29.4014660   6.2497110  57.0392620
  35.6044160  10.2129950  67.5635660  34.7762790  10.2823040  67.0885790
  36.1994640  10.7984260  67.0951490  33.1259610  10.8214730  61.0924720
  32.5072030  10.4834280  60.4451020  33.1084060  10.1774490  61.8003910
  32.5686170   6.9999270  68.5090530  32.1557350   7.8252980  68.7630520
  31.8362120   6.4144310  68.3166890  24.7018960   9.7859170  63.3709200
  24.2975960   9.0736420  62.8755100  24.7882080   9.4412410  64.2597240
  25.1700660  13.4726730  65.5348410  24.8728950  12.8672200  64.8556190
  26.1200480  13.5104040  65.4237770  23.4147580   6.5602380  67.1508240
  23.9662170   6.6697720  66.3761490  23.9291090   6.9339980  67.8663470
  33.2586270  17.0458600  69.1971510  32.7816830  17.8530790  69.0044120
  32.5748060  16.3936930  69.3497720  31.3024310  10.0601540  58.0997470
  31.7417590   9.2223970  57.9535290  32.0152730  10.6930940  58.1861610
  23.0890310  10.0821740  70.7613580  22.9498080  10.9544540  71.1300980
  22.2071670   9.7394550  70.6161520  29.4119690  14.9997610  62.0678710
  29.8515600  15.7421940  61.6534100  29.3506580  15.2424180  62.9917670
  21.4023590   8.6804150  60.8715850  21.2821190   9.4066240  60.2597120
  21.0924480   7.9107060  60.3943760  19.0408960  11.8519290  66.6784490
  19.1189380  11.9868060  65.7340210  19.6550640  11.1435180  66.8712610
  20.2856590  13.5519480  63.0890670  19.8784670  13.6934070  62.2344270
  21.1769600  13.2679640  62.8861880  36.2418730  13.9983390  71.4262910
  36.3681790  13.7595270  70.5080090  36.2840110  13.1667930  71.8984990
  30.1035470  17.7011390  69.9957720  30.6180140  17.6119400  70.7980150
  29.2604550  18.0471090  70.2885630  32.0789870  17.9866730  59.4241720
  31.9191010  17.6969670  60.3223550  31.9136580  17.2106860  58.8886950
  24.5578250  17.7665260  61.2013340  24.3820730  16.8500800  60.9881140
  23.7033990  18.1252550  61.4411140  31.7816000  15.4954290  57.9839720
  31.0881160  15.4931580  57.3242000  32.5238860  15.0713610  57.5533890
  31.3465930  17.1217000  62.0588210  31.8022880  16.3406380  62.3726830
  31.6858450  17.8323820  62.6029390  19.0968480  12.8933460  69.2178950
  19.2599520  12.4238820  68.3998320  19.5620930  12.3857020  69.8827790
  23.8687250   2.0239220  64.2539520  23.4255400   2.8048760  63.9224040
  24.4272240   2.3469110  64.9610460  28.1557060   4.8907740  69.8574840
  27.6936430   5.0990760  70.6694780  27.7535170   4.0767090  69.5545510
  33.1561570   6.1116690  70.9871500  32.3055160   5.8122440  71.3080570
  32.9963360   6.3558700  70.0755320  25.9063150   2.5686550  66.1129120
  26.2035480   3.4749380  66.0321140  26.4548710   2.0805330  65.4988690
  23.6601470   7.1472790  61.9820770  23.4342390   6.9309960  62.8867390
  22.8794000   7.5801250  61.6366740  30.8899230   7.1536160  60.5811420
  30.2908120   7.8771960  60.3975040  31.4378840   7.0912940  59.7987870
  29.4964100   5.7899700  62.6114700  29.8893670   6.1071900  61.7983390
  29.8580950   4.9111580  62.7259220  21.2311220   4.4572040  70.8014820
  20.8374610   5.3047250  71.0087600  20.5429620   3.8198410  70.9923460
  18.5328270   2.3800500  64.8344900  18.2441320   2.9503360  65.5469880
  19.2774030   1.9004950  65.1976130  18.7198500   6.3220620  56.0447620
  18.6373170   7.2651380  56.1862610  18.3681560   6.1795530  55.1659970
  30.0819240   8.3805450  66.7065480  29.3500360   8.8892260  67.0555580
  29.6843580   7.5635430  66.4054260  26.5196630   5.0559650  65.1117970
  26.5232690   4.6149600  64.2622510  27.4147750   5.3776980  65.2189790
  22.3699010   4.9386140  64.0712180  22.0299060   5.4161370  64.8279230
  21.6076330   4.4851260  63.7113280  26.5816780   6.0571730  58.1024730
  26.7029600   6.0158210  59.0510550  26.1965290   6.9195880  57.9471460
  30.5445150   3.8339130  66.1188420  30.5617890   4.2847780  66.9630270
  30.2960730   2.9344770  66.3321860  25.5938280   8.3672870  57.5008030
  25.0255180   7.9191120  56.8743940  26.3027280   8.7265650  56.9673180
  20.6707460  12.2684890  71.3774760  20.2862250  11.6278560  71.9757720
  20.9819650  12.9721010  71.9469490  26.8204600   9.1161430  66.8583380
  27.1874730   8.6420000  67.6044720  26.6309660   9.9903000  67.1991720
  19.6845090   3.8605120  62.9876850  19.3992010   3.4960790  63.8255470
  19.6223950   3.1285580  62.3739990  24.6103970   8.1570070  69.1767590
  24.3061040   9.0362050  69.4017950  25.5650430   8.2169860  69.2125030
  23.1385760  12.3631060  59.7734440  22.3648020  11.8228680  59.6133160
  23.8680390  11.8437670  59.4352200  33.8973740  11.3596420  65.5660830
  34.6172860  11.8551710  65.1756940  33.6955560  10.6814310  64.9214700
  29.3583680   2.7534380  59.7090220  28.5448290   2.2547550  59.6335530
  29.1645630   3.5932630  59.2926570  29.2792540  11.4305480  71.4529830
  29.2129850  10.5101150  71.1987420  28.6497680  11.5280920  72.1674470
  32.0732070   7.1254030  58.0052380  32.9611690   7.4371260  57.8303720
  32.0437160   6.2526280  57.6132960  23.1823160  12.0311440  63.4113250
  23.7001830  11.2279700  63.3570140  22.7307180  11.9690580  64.2530080
  28.0692660  13.2977720  58.6840550  28.4108360  14.0419950  58.1883870
  27.2405370  13.6108840  59.0465380  20.6667700   8.9972810  70.3238950
  20.3082640   9.6626660  70.9112290  20.3722260   8.1656360  70.6951570
  29.2109270  14.2526050  71.2033630  29.2253810  13.3207010  70.9852540
  28.5034370  14.3385810  71.8423400  34.3446340   8.4365870  57.4732240
  34.2610060   8.8680090  56.6228680  35.0640530   8.8964220  57.9059060
  35.4220480  10.8933390  70.5502210  34.6968670  11.4862170  70.3531600
  35.9495940  10.8856930  69.7515580  35.3733590  15.2908130  60.2014370
  34.7309750  14.6363750  60.4758090  34.9864250  15.6963220  59.4255040
  30.9520070  12.6193560  64.0486060  31.3043890  12.0221690  63.3887430
  30.0682400  12.2937790  64.2194310  27.0383350  13.3791250  61.4556470
  27.7254480  13.9260460  61.8364060  26.2515770  13.9231980  61.4906080
  19.1775750   8.9964070  56.9473550  20.0470600   9.2788870  57.2309470
  18.6866070   9.8099940  56.8322360  26.3410560  10.3837280  61.0681830
  26.7973340  11.1942530  61.2942020  25.9898770  10.0660420  61.9000320
  28.6443170  15.8943620  68.2974130  29.2885390  16.1003000  68.9747550
  29.0072610  15.1332020  67.8444980  29.9175250  13.8975970  67.0151580
  30.5597480  13.1969130  67.1283750  30.4424600  14.6774410  66.8348470
  33.7630970  14.1824590  56.7390720  33.5368550  13.4655030  57.3315360
  33.3727170  13.9337030  55.9012470  31.6912870  14.6970870  70.2187640
  32.0269110  15.2837560  70.8965560  30.7713210  14.5663580  70.4485430
  19.5447000  18.2091450  57.5135180  19.9044640  18.8080790  56.8592450
  19.4039340  18.7551340  58.2870210  19.2416270   2.4866050  71.0011050
  18.5274790   2.6862970  71.6063660  19.6611310   1.7105620  71.3725850
  33.3447220  12.0996530  58.4004880  33.0568920  12.5609220  59.1882760
  34.1399390  11.6394300  58.6689100  19.5288860  16.4746310  71.9877580
  19.6379980  15.5341050  71.8472970  18.8769420  16.7401060  71.3391310
  25.5615620  15.5922650  58.3308850  25.5525720  16.3252340  57.7153360
  24.6413980  15.3454230  58.4235810  21.1622260  10.8137540  59.0755610
  20.5550210  11.5536440  59.0850910  21.6371610  10.9036900  58.2493810
  30.7355050   4.9788360  68.7512500  31.1035870   4.1583570  69.0792070
  29.8753250   5.0390250  69.1668150  34.1017080   3.9345300  59.5600060
  33.4730240   4.0390970  58.8458290  33.6069000   4.1542080  60.3493940
  28.5475220  15.6550890  56.9934040  28.6487200  15.4514880  56.0636020
  27.6476960  15.4009170  57.1981820  26.0701110   6.2131250  60.9757940
  25.3617260   6.6817590  61.4171550  26.3545590   5.5553260  61.6103130
  27.6957040   7.6327950  68.9750470  28.1942290   8.1073770  69.6402320
  27.8379990   6.7091470  69.1820500  30.1016540   2.9381910  62.4153730
  29.9784320   2.9568040  61.4663240  31.0501100   2.9860850  62.5352130
  27.1893330  18.1737210  61.6881710  27.4434830  18.1358600  60.7661080
  26.2405810  18.0470540  61.6809960  24.2736130   4.5216330  58.3508650
  25.1226660   4.9586480  58.2848840  23.9067400   4.8336590  59.1780710
  34.9023900   3.8495910  69.8178860  34.3997500   4.5901310  70.1572670
  35.7180560   4.2379910  69.5015650  33.1945910   9.0929090  63.2640220
  32.2536050   9.1079320  63.4387910  33.5089980   8.3065050  63.7100520
  23.1727550  10.7748690  56.8244180  23.9390820  10.6630050  57.3869610
  23.2502240  10.0786660  56.1720950  21.8674310   8.2073760  57.5077070
  21.9477900   7.2601270  57.6194470  22.7594060   8.5380640  57.6137730
  35.1971490  16.2637940  64.9394480  35.3218910  17.0869110  65.4118290
  36.0637050  16.0528670  64.5918630  22.6689020  18.3569150  64.6111610
  23.4051500  17.8084610  64.8820180  23.0529940  19.2225160  64.4717600
  19.5534500  14.4242720  60.4853120  18.6274280  14.6663860  60.4758530
  20.0190930  15.2516980  60.3637870  25.7791330  17.5299460  56.4337180
  26.5719940  17.8188290  55.9818970  25.2595680  17.0991630  55.7549660
  34.8321500  16.7569590  57.8573920  34.5463010  16.3434730  57.0428100
  34.6341050  17.6857300  57.7374440  26.2968730  12.7502870  56.2979530
  26.1919370  12.1355220  57.0240910  26.1292950  12.2268760  55.5142540
  29.5371460  11.8122900  56.9021520  28.9881560  12.2592200  57.5464260
  30.1590720  11.3072150  57.4259190  25.2046580  10.7713820  58.7986820
  25.6263000  10.6053690  59.6418210  25.3297420   9.9614050  58.3041960
  23.3674000   6.7510370  71.6057800  22.8370460   6.2601320  70.9781140
  24.0362070   7.1794570  71.0715730  27.7174220   9.7951430  56.0463920
  28.2379880   9.0800450  55.6805070  28.3642620  10.4337300  56.3464430
  32.2652060  11.2179830  71.3698990  32.6793080  11.3724910  72.2189410
  31.3303060  11.3435050  71.5324770  23.8546300   3.7172740  71.6855090
  23.7603170   3.0993490  70.9605960  23.2743690   4.4439030  71.4585000
  26.6207740   2.2745980  68.7182480  26.1725040   2.2970240  67.8728030
  25.9872940   1.8765000  69.3152780  27.0267290  11.1700310  69.3394920
  27.4455400  12.0133040  69.1671160  26.1075920  11.3072350  69.1101700
  29.3631190   8.9016490  70.7232760  29.4827400   8.3057630  71.4627600
  30.2225190   8.9386180  70.3034060  31.7019090   9.4553680  69.2995270
  31.1754310   9.9796300  68.6960410  32.0450430  10.0881070  69.9305000
  24.1005480   6.8447050  55.7444980  23.8994540   5.9814410  56.1058320
  23.9297530   6.7580410  54.8066580  24.8774710  17.4753320  70.4552650
  24.3395800  18.1999380  70.1361350  25.1308670  16.9983660  69.6649990
  22.8988280   3.9447670  55.7322860  23.2014180   3.9515100  54.8242010
  23.6382870   3.5945530  56.2290520  27.7336920  18.7104530  70.7139300
  27.6595620  19.6139670  71.0211670  26.8315760  18.3916430  70.6861370
  26.1173210   2.8882290  56.7179060  25.7695210   2.2106280  56.1381510
  26.3185980   2.4271800  57.5322450  28.2822250  17.8763040  58.3365660
  29.1773040  18.2148010  58.3584420  28.3139880  17.1542450  57.7089940
  21.9218410  13.2490090  56.5652660  22.3593280  13.7919760  57.2210240
  22.4066140  12.4237040  56.5749000  19.1364210  16.0379120  64.0172920
  19.4667220  15.1700180  63.7851560  19.5655210  16.2437640  64.8477880
  23.7326130  14.3688130  61.6774890  23.4321670  14.2453100  62.5778800
  23.6263620  13.5096720  61.2690620  19.6254420  16.9049710  66.7554550
  19.1885410  17.0850510  67.5878700  20.1932100  17.6624330  66.6136270
  35.2616600  16.4066710  71.0431860  34.6618590  16.4659270  70.2995780
  35.3910500  15.4671690  71.1728710  36.5018050  14.1484530  56.3801570
  35.6711010  14.2161180  56.8508800  36.6789880  15.0388650  56.0768430
  35.9574510  10.8932010  58.8835770  36.7193420  11.4628660  58.9895460
  35.9728880  10.3259210  59.6544080  19.4578850   9.4169940  63.1143430
  18.8027690   9.1481580  62.4703130  20.2956800   9.3074420  62.6645410
  36.9634480  11.7482110  63.7277700  37.3343310  10.9649430  63.3213670
  37.6036410  12.4371210  63.5495000  33.9468240  13.1318690  69.1408020
  33.1328080  13.5615850  69.4033810  34.3542440  13.7437100  68.5277070
  36.0093680  11.1866380  56.0408290  36.2842520  12.0945260  55.9127510
  35.8204420  11.1228910  56.9770280  32.4069290   4.2111230  57.3361920
  32.8254170   4.0242210  56.4958580  32.1005350   3.3590280  57.6464850
  35.9059020   9.1235370  61.0337720  35.5302620   8.3563300  60.6019010
  35.1762140   9.5058070  61.5212650  20.4954780   9.8022510  67.6546770
  20.8627820   9.7149910  68.5342790  19.9265600   9.0389060  67.5553630
  35.2958640   8.2706890  70.6677240  35.0644730   8.0419640  69.7675190
  35.5563190   9.1906440  70.6222130  18.6716930   6.6268870  59.0568760
  17.7681010   6.8899070  58.8820420  19.1557550   6.8980040  58.2768720
  35.1809980   7.3492860  64.3344960  35.7047460   6.8555510  63.7035130
  35.7669400   7.4843220  65.0792530  35.3599700   7.4332730  67.8564510
  34.4102410   7.3996270  67.9709500  35.5412710   8.3432840  67.6214280
  21.2144140   5.6834410  56.9663140  21.9235840   5.2617630  56.4810420
  20.4984080   5.7509640  56.3346490  34.6709950   6.6066210  60.2737370
  35.1669070   6.3737080  61.0586250  34.4726020   5.7678050  59.8575010
  36.0997110   5.2427160  62.8075050  35.9896390   5.0883200  63.7457320
  36.8604700   4.7148100  62.5650460  36.9887380   3.0735080  56.0481190
  37.9136690   2.9416260  55.8399480  36.9663170   3.1527900  57.0017640
  37.0625870   3.8445740  58.6737900  36.2677370   3.7790860  59.2030810
  37.2669150   4.7796380  58.6623250  34.0044290  17.8837290  62.6676290
  34.6003360  17.5621860  61.9910710  34.2622440  17.4109110  63.4589560
  25.6112890  15.8714790  68.4176640  25.3704250  16.1389350  67.5307160
  26.5515530  16.0420520  68.4727500  36.8717050  17.8909170  69.2187280
  36.3775330  18.2878040  68.5014410  36.2630340  17.2658380  69.6124560
  21.7494890  17.2617450  69.9364700  21.1555210  17.1302150  70.6754740
  21.7418730  16.4255590  69.4706800  32.1021890   2.7620550  69.5236450
  31.7735250   1.9472310  69.1438180  33.0504190   2.7190360  69.4002140
  34.5556500  18.5332590  66.4974020  34.0959470  19.2848400  66.1232040
  33.9268960  17.8139060  66.4388820  21.3807120  14.6275830  68.8872740
  20.6541180  14.0081120  68.8198690  21.4416270  15.0216440  68.0170820
  24.9852220  16.8420830  65.6722150  25.5017240  16.2308190  65.1470410
  25.6349600  17.3449610  66.1633160  27.7247720  17.7329320  66.4991130
  28.0125530  17.4783620  65.6224140  28.2370940  17.1806680  67.0896700
  33.4945800   2.1742620  65.1236730  33.9353890   2.1187720  64.2758330
  33.2253390   3.0900630  65.1946910  19.6637120  17.9450220  62.0969500
  19.4959160  17.3120900  62.7951390  18.7971630  18.1509620  61.7463690
  20.2865140   1.7767000  59.6001360  21.0444500   1.8895880  59.0265390
  19.8242310   2.6136200  59.5544790  26.8278950   3.8906270  62.5903670
  26.0153460   3.5163160  62.2499550  27.3320590   3.1351350  62.8924860
  21.2699820  16.6383450  59.5419640  20.7447440  17.0191480  58.8381600
  21.1944400  17.2634220  60.2629350  36.0265140  18.1970990  60.8633580
  36.2017330  17.5108730  60.2194500  35.3286710  18.7218040  60.4710250
  23.8692790  18.5865830  58.4168890  24.6011610  18.3025110  57.8692780
  24.1286460  18.3479110  59.3068270  23.0307580  14.7030560  58.4215220
  22.4016460  15.1715660  58.9701050  23.1455410  13.8579780  58.8561410
  30.4857300   8.7536220  44.5716420  30.4051350   7.8390830  44.3008130
  30.0721720   9.2503290  43.8656130  28.6175340  10.5315240  46.4525690
  27.8417440  10.0515680  46.7424260  29.2688270   9.8520890  46.2781850
  22.6341170  10.8435050  47.3301450  21.8026050  10.5883760  47.7297960
  23.2422150  10.9145820  48.0659370  32.6382770  14.9375430  45.2324820
  32.1764300  14.1662670  45.5611990  33.4508320  14.9641500  45.7377270
  22.6142430  14.8775140  47.5259470  22.9170470  13.9872880  47.3469690
  23.3586020  15.4345360  47.2981720  21.0433120   5.8036940  41.1143840
  20.1549820   6.1452910  41.0123720  21.3274310   5.6037260  40.2224670
  19.0066130   8.4042590  46.9983540  19.5782240   7.6364790  46.9987180
  19.0067670   8.7031350  46.0890150  28.8646080  17.2233440  44.8528810
  28.2457520  17.6790940  44.2823250  29.7197860  17.3784900  44.4518510
  28.0584330  13.2072430  46.4595850  27.9892610  12.2662370  46.2984980
  28.8204190  13.2973840  47.0318420  20.2491000   3.8126950  48.7852470
  20.0693840   2.9152700  49.0655230  19.8471080   4.3598820  49.4599420
  29.0889500   6.0142810  46.6864780  29.4654320   5.1414690  46.5738450
  28.9909010   6.3501510  45.7955220  23.2194510   4.3868440  42.1482220
  23.3261260   5.2872170  42.4550980  22.3086870   4.3386410  41.8576870
  32.8713620   3.5093250  43.6193120  33.6923240   3.0189820  43.6618600
  32.9047700   4.0990910  44.3724960  20.8677670   6.3087450  47.3934810
  21.5487780   6.5725820  48.0122210  20.5525720   5.4688320  47.7272820
  25.0602240   7.3554810  46.4807400  25.5680460   7.8535780  47.1212420
  25.5915480   6.5790010  46.3046760  37.1613170   5.5260000  50.1836750
  36.4565340   5.9141710  49.6651860  37.4271090   6.2210290  50.7857680
  29.7309430  12.1072680  42.2460720  29.1126700  12.5722130  41.6823440
  30.2432680  12.8000160  42.6630230  24.5941190  11.6348550  48.9244320
  24.2610570  12.2617470  49.5665390  24.7707870  12.1610430  48.1445990
  33.1075100   5.4493630  46.3920660  32.4030670   5.7378520  46.9723770
  33.4687260   6.2593740  46.0320220  23.0253670   3.7063330  48.7541270
  23.3670480   4.5505380  48.4595140  22.0869480   3.8547070  48.8706610
  23.8060290  13.6029350  50.7393500  24.4234290  14.2780430  50.4577950
  22.9453410  14.0117330  50.6481000  19.0992630  12.7929210  39.6200350
  18.7220610  13.2816310  38.8885250  19.3565700  13.4654490  40.2506880
  34.7237880  15.0668760  48.6548140  34.0401400  15.7367870  48.6464810
  35.2632170  15.2649410  47.8893000  36.1762020   4.8948420  46.7829870
  35.2286930   4.9287400  46.9145300  36.5012010   5.7087370  47.1679230
  32.2596620  16.9112890  47.3693320  32.2723780  16.5075180  46.5015580
  31.7071840  17.6860180  47.2654750  33.5542040  13.6329110  42.4583490
  33.4438370  12.6903440  42.5832910  33.5510290  13.9944750  43.3446250
  31.6582060  11.8142730  48.6975930  32.0750850  11.6002840  47.8629390
  32.3821880  12.0715520  49.2684550  29.0962320   9.2594430  41.8145980
  28.1691600   9.1931810  42.0434450  29.2487140  10.1974560  41.7001220
  29.0831400   5.5311430  38.8113140  28.1435070   5.6925390  38.8965600
  29.4014660   6.2497110  38.2649130  35.6044160  10.2129950  48.7892170
  34.7762790  10.2823040  48.3142300  36.1994640  10.7984260  48.3208000
  33.1259610  10.8214730  42.3181230  32.5072030  10.4834280  41.6707530
  33.1084060  10.1774490  43.0260420  32.5686170   6.9999270  49.7347040
  32.1557350   7.8252980  49.9887030  31.8362120   6.4144310  49.5423400
  24.7018960   9.7859170  44.5965710  24.2975960   9.0736420  44.1011610
  24.7882080   9.4412410  45.4853750  25.1700660  13.4726730  46.7604920
  24.8728950  12.8672200  46.0812700  26.1200480  13.5104040  46.6494280
  23.4147580   6.5602380  48.3764750  23.9662170   6.6697720  47.6018000
  23.9291090   6.9339980  49.0919980  33.2586270  17.0458600  50.4228020
  32.7816830  17.8530790  50.2300630  32.5748060  16.3936930  50.5754230
  24.2619090  13.2108420  53.4112720  23.3647620  13.4348390  53.6586120
  24.2871960  13.3343360  52.4624120  31.3024310  10.0601540  39.3253980
  31.7417590   9.2223970  39.1791800  32.0152730  10.6930940  39.4118120
  23.0890310  10.0821740  51.9870090  22.9498080  10.9544540  52.3557490
  22.2071670   9.7394550  51.8418030  29.4119690  14.9997610  43.2935220
  29.8515600  15.7421940  42.8790610  29.3506580  15.2424180  44.2174180
  24.8870660  16.0243440  54.1955240  24.8586090  16.4286390  53.3283670
  24.7235630  15.0953800  54.0326840  21.4023590   8.6804150  42.0972360
  21.2821190   9.4066240  41.4853630  21.0924480   7.9107060  41.6200270
  36.8385480  16.8070540  55.4919410  37.3145200  17.2853430  56.1708490
  37.4592640  16.7388030  54.7664910  19.0408960  11.8519290  47.9041000
  19.1189380  11.9868060  46.9596720  19.6550640  11.1435180  48.0969120
  20.2856590  13.5519480  44.3147180  19.8784670  13.6934070  43.4600780
  21.1769600  13.2679640  44.1118390  36.2418730  13.9983390  52.6519420
  36.3681790  13.7595270  51.7336600  36.2840110  13.1667930  53.1241500
  30.1035470  17.7011390  51.2214230  30.6180140  17.6119400  52.0236660
  29.2604550  18.0471090  51.5142140  32.0789870  17.9866730  40.6498230
  31.9191010  17.6969670  41.5480060  31.9136580  17.2106860  40.1143460
  24.5578250  17.7665260  42.4269850  24.3820730  16.8500800  42.2137650
  23.7033990  18.1252550  42.6667650  31.7816000  15.4954290  39.2096230
  31.0881160  15.4931580  38.5498510  32.5238860  15.0713610  38.7790400
  31.3465930  17.1217000  43.2844720  31.8022880  16.3406380  43.5983340
  31.6858450  17.8323820  43.8285900  36.0942740   6.0515850  53.6169160
  35.4787010   6.5595520  53.0884620  35.7739160   5.1514180  53.5595100
  19.0968480  12.8933460  50.4435460  19.2599520  12.4238820  49.6254830
  19.5620930  12.3857020  51.1084300  23.8687250   2.0239220  45.4796030
  23.4255400   2.8048760  45.1480550  24.4272240   2.3469110  46.1866970
  28.1557060   4.8907740  51.0831350  27.6936430   5.0990760  51.8951290
  27.7535170   4.0767090  50.7802020  33.1561570   6.1116690  52.2128010
  32.3055160   5.8122440  52.5337080  32.9963360   6.3558700  51.3011830
  30.2511280   7.6118440  54.3126800  30.5764690   6.7782190  53.9729030
  31.0391610   8.1346960  54.4605130  25.9063150   2.5686550  47.3385630
  26.2035480   3.4749380  47.2577650  26.4548710   2.0805330  46.7245200
  23.6601470   7.1472790  43.2077280  23.4342390   6.9309960  44.1123900
  22.8794000   7.5801250  42.8623250  30.8899230   7.1536160  41.8067930
  30.2908120   7.8771960  41.6231550  31.4378840   7.0912940  41.0244380
  26.1000680   8.0458370  53.8737550  26.0044280   7.1053100  53.7237950
  26.9432660   8.2673440  53.4785620  29.4964100   5.7899700  43.8371210
  29.8893670   6.1071900  43.0239900  29.8580950   4.9111580  43.9515730
  21.2311220   4.4572040  52.0271330  20.8374610   5.3047250  52.2344110
  20.5429620   3.8198410  52.2179970  27.8056270   4.5407010  55.0968070
  27.1154590   4.3479210  55.7314160  28.5488570   4.8241650  55.6292370
  18.5328270   2.3800500  46.0601410  18.2441320   2.9503360  46.7726390
  19.2774030   1.9004950  46.4232640  18.7198500   6.3220620  37.2704130
  18.6373170   7.2651380  37.4119120  18.3681560   6.1795530  36.3916480
  30.0819240   8.3805450  47.9321990  29.3500360   8.8892260  48.2812090
  29.6843580   7.5635430  47.6310770  26.5196630   5.0559650  46.3374480
  26.5232690   4.6149600  45.4879020  27.4147750   5.3776980  46.4446300
  22.3699010   4.9386140  45.2968690  22.0299060   5.4161370  46.0535740
  21.6076330   4.4851260  44.9369790  26.5816780   6.0571730  39.3281240
  26.7029600   6.0158210  40.2767060  26.1965290   6.9195880  39.1727970
  30.5445150   3.8339130  47.3444930  30.5617890   4.2847780  48.1886780
  30.2960730   2.9344770  47.5578370  25.5938280   8.3672870  38.7264540
  25.0255180   7.9191120  38.1000450  26.3027280   8.7265650  38.1929690
  20.6707460  12.2684890  52.6031270  20.2862250  11.6278560  53.2014230
  20.9819650  12.9721010  53.1726000  26.8204600   9.1161430  48.0839890
  27.1874730   8.6420000  48.8301230  26.6309660   9.9903000  48.4248230
  19.6845090   3.8605120  44.2133360  19.3992010   3.4960790  45.0511980
  19.6223950   3.1285580  43.5996500  24.6103970   8.1570070  50.4024100
  24.3061040   9.0362050  50.6274460  25.5650430   8.2169860  50.4381540
  23.1385760  12.3631060  40.9990950  22.3648020  11.8228680  40.8389670
  23.8680390  11.8437670  40.6608710  33.8973740  11.3596420  46.7917340
  34.6172860  11.8551710  46.4013450  33.6955560  10.6814310  46.1471210
  29.3583680   2.7534380  40.9346730  28.5448290   2.2547550  40.8592040
  29.1645630   3.5932630  40.5183080  29.2792540  11.4305480  52.6786340
  29.2129850  10.5101150  52.4243930  28.6497680  11.5280920  53.3930980
  32.0732070   7.1254030  39.2308890  32.9611690   7.4371260  39.0560230
  32.0437160   6.2526280  38.8389470  23.1823160  12.0311440  44.6369760
  23.7001830  11.2279700  44.5826650  22.7307180  11.9690580  45.4786590
  28.0692660  13.2977720  39.9097060  28.4108360  14.0419950  39.4140380
  27.2405370  13.6108840  40.2721890  20.6667700   8.9972810  51.5495460
  20.3082640   9.6626660  52.1368800  20.3722260   8.1656360  51.9208080
  23.8680820   9.4557050  54.4335010  23.5680960   9.6014230  53.5362830
  24.6392060   8.8962340  54.3408400  29.2109270  14.2526050  52.4290140
  29.2253810  13.3207010  52.2109050  28.5034370  14.3385810  53.0679910
  34.3446340   8.4365870  38.6988750  34.2610060   8.8680090  37.8485190
  35.0640530   8.8964220  39.1315570  35.4220480  10.8933390  51.7758720
  34.6968670  11.4862170  51.5788110  35.9495940  10.8856930  50.9772090
  35.3733590  15.2908130  41.4270880  34.7309750  14.6363750  41.7014600
  34.9864250  15.6963220  40.6511550  30.9520070  12.6193560  45.2742570
  31.3043890  12.0221690  44.6143940  30.0682400  12.2937790  45.4450820
  27.0383350  13.3791250  42.6812980  27.7254480  13.9260460  43.0620570
  26.2515770  13.9231980  42.7162590  19.1775750   8.9964070  38.1730060
  20.0470600   9.2788870  38.4565980  18.6866070   9.8099940  38.0578870
  26.3410560  10.3837280  42.2938340  26.7973340  11.1942530  42.5198530
  25.9898770  10.0660420  43.1256830  28.6443170  15.8943620  49.5230640
  29.2885390  16.1003000  50.2004060  29.0072610  15.1332020  49.0701490
  29.9175250  13.8975970  48.2408090  30.5597480  13.1969130  48.3540260
  30.4424600  14.6774410  48.0604980  33.7630970  14.1824590  37.9647230
  33.5368550  13.4655030  38.5571870  33.3727170  13.9337030  37.1268980
  31.6912870  14.6970870  51.4444150  32.0269110  15.2837560  52.1222070
  30.7713210  14.5663580  51.6741940  19.5447000  18.2091450  38.7391690
  19.9044640  18.8080790  38.0848960  19.4039340  18.7551340  39.5126720
  19.2416270   2.4866050  52.2267560  18.5274790   2.6862970  52.8320170
  19.6611310   1.7105620  52.5982360  33.3447220  12.0996530  39.6261390
  33.0568920  12.5609220  40.4139270  34.1399390  11.6394300  39.8945610
  19.5288860  16.4746310  53.2134090  19.6379980  15.5341050  53.0729480
  18.8769420  16.7401060  52.5647820  27.5201450  14.7462200  54.6132210
  27.1998320  14.0271440  55.1577900  26.8459810  15.4217270  54.6868270
  25.5615620  15.5922650  39.5565360  25.5525720  16.3252340  38.9409870
  24.6413980  15.3454230  39.6492320  21.1622260  10.8137540  40.3012120
  20.5550210  11.5536440  40.3107420  21.6371610  10.9036900  39.4750320
  30.7355050   4.9788360  49.9769010  31.1035870   4.1583570  50.3048580
  29.8753250   5.0390250  50.3924660  34.1017080   3.9345300  40.7856570
  33.4730240   4.0390970  40.0714800  33.6069000   4.1542080  41.5750450
  28.5475220  15.6550890  38.2190550  28.6487200  15.4514880  37.2892530
  27.6476960  15.4009170  38.4238330  26.0701110   6.2131250  42.2014450
  25.3617260   6.6817590  42.6428060  26.3545590   5.5553260  42.8359640
  27.6957040   7.6327950  50.2006980  28.1942290   8.1073770  50.8658830
  27.8379990   6.7091470  50.4077010  30.1016540   2.9381910  43.6410240
  29.9784320   2.9568040  42.6919750  31.0501100   2.9860850  43.7608640
  27.1893330  18.1737210  42.9138220  27.4434830  18.1358600  41.9917590
  26.2405810  18.0470540  42.9066470  24.2736130   4.5216330  39.5765160
  25.1226660   4.9586480  39.5105350  23.9067400   4.8336590  40.4037220
  34.9023900   3.8495910  51.0435370  34.3997500   4.5901310  51.3829180
  35.7180560   4.2379910  50.7272160  33.1945910   9.0929090  44.4896730
  32.2536050   9.1079320  44.6644420  33.5089980   8.3065050  44.9357030
  23.1727550  10.7748690  38.0500690  23.9390820  10.6630050  38.6126120
  23.2502240  10.0786660  37.3977460  21.8674310   8.2073760  38.7333580
  21.9477900   7.2601270  38.8450980  22.7594060   8.5380640  38.8394240
  35.1971490  16.2637940  46.1650990  35.3218910  17.0869110  46.6374800
  36.0637050  16.0528670  45.8175140  22.6689020  18.3569150  45.8368120
  23.4051500  17.8084610  46.1076690  23.0529940  19.2225160  45.6974110
  19.5534500  14.4242720  41.7109630  18.6274280  14.6663860  41.7015040
  20.0190930  15.2516980  41.5894380  21.6747300  17.5415220  55.0253700
  22.4760030  17.8627270  55.4389100  21.1599120  17.1810800  55.7473610
  25.7791330  17.5299460  37.6593690  26.5719940  17.8188290  37.2075480
  25.2595680  17.0991630  36.9806170  30.5111930  13.6495090  54.9729110
  29.9050090  13.6726690  54.2324860  30.2066040  12.9178130  55.5096360
  31.9412300  17.3775380  53.5838520  32.8934050  17.2933400  53.5338760
  31.7940520  18.0417090  54.2572310  34.8321500  16.7569590  39.0830430
  34.5463010  16.3434730  38.2684610  34.6341050  17.6857300  38.9630950
  19.3945110  10.0288680  53.9689750  19.8984130   9.4495960  54.5405980
  18.6552530  10.3128910  54.5066120  26.2968730  12.7502870  37.5236040
  26.1919370  12.1355220  38.2497420  26.1292950  12.2268760  36.7399050
  26.4483050  11.4359670  53.5025270  25.6828720  12.0044670  53.4179940
  26.6299010  11.1435880  52.6093500  29.5371460  11.8122900  38.1278030
  28.9881560  12.2592200  38.7720770  30.1590720  11.3072150  38.6515700
  33.5906400  13.1665000  54.0600290  34.3315870  13.5040760  53.5567750
  32.8279080  13.3357060  53.5070060  21.4268190   8.1718270  54.8639820
  21.4673530   7.8732140  55.7725050  22.2813690   8.5725880  54.7047340
  25.2046580  10.7713820  40.0243330  25.6263000  10.6053690  40.8674720
  25.3297420   9.9614050  39.5298470  23.3674000   6.7510370  52.8314310
  22.8370460   6.2601320  52.2037650  24.0362070   7.1794570  52.2972240
  27.7174220   9.7951430  37.2720430  28.2379880   9.0800450  36.9061580
  28.3642620  10.4337300  37.5720940  32.2652060  11.2179830  52.5955500
  32.6793080  11.3724910  53.4445920  31.3303060  11.3435050  52.7581280
  32.7374230   8.5575990  54.5994650  33.3195000   7.8028310  54.5115130
  32.9136000   9.0883430  53.8226130  23.8546300   3.7172740  52.9111600
  23.7603170   3.0993490  52.1862470  23.2743690   4.4439030  52.6841510
  26.6207740   2.2745980  49.9438990  26.1725040   2.2970240  49.0984540
  25.9872940   1.8765000  50.5409290  27.0267290  11.1700310  50.5651430
  27.4455400  12.0133040  50.3927670  26.1075920  11.3072350  50.3358210
  29.3631190   8.9016490  51.9489270  29.4827400   8.3057630  52.6884110
  30.2225190   8.9386180  51.5290570  31.7019090   9.4553680  50.5251780
  31.1754310   9.9796300  49.9216920  32.0450430  10.0881070  51.1561510
  24.1005480   6.8447050  36.9701490  23.8994540   5.9814410  37.3314830
  23.9297530   6.7580410  36.0323090  24.8774710  17.4753320  51.6809160
  24.3395800  18.1999380  51.3617860  25.1308670  16.9983660  50.8906500
  26.1299960   5.4437840  53.2065090  26.7199650   5.1353690  53.8942910
  25.3120200   4.9717590  53.3624990  30.9493390   5.0603650  53.4398110
  30.2608910   4.3985190  53.3748100  31.6699410   4.6141920  53.8846570
  22.8988280   3.9447670  36.9579370  23.2014180   3.9515100  36.0498520
  23.6382870   3.5945530  37.4547030  27.7336920  18.7104530  51.9395810
  27.6595620  19.6139670  52.2468180  26.8315760  18.3916430  51.9117880
  26.1173210   2.8882290  37.9435570  25.7695210   2.2106280  37.3638020
  26.3185980   2.4271800  38.7578960  28.2822250  17.8763040  39.5622170
  29.1773040  18.2148010  39.5840930  28.3139880  17.1542450  38.9346450
  21.9218410  13.2490090  37.7909170  22.3593280  13.7919760  38.4466750
  22.4066140  12.4237040  37.8005510  19.1364210  16.0379120  45.2429430
  19.4667220  15.1700180  45.0108070  19.5655210  16.2437640  46.0734390
  23.7326130  14.3688130  42.9031400  23.4321670  14.2453100  43.8035310
  23.6263620  13.5096720  42.4947130  19.6254420  16.9049710  47.9811060
  19.1885410  17.0850510  48.8135210  20.1932100  17.6624330  47.8392780
  35.2616600  16.4066710  52.2688370  34.6618590  16.4659270  51.5252290
  35.3910500  15.4671690  52.3985220  36.5018050  14.1484530  37.6058080
  35.6711010  14.2161180  38.0765310  36.6789880  15.0388650  37.3024940
  35.9574510  10.8932010  40.1092280  36.7193420  11.4628660  40.2151970
  35.9728880  10.3259210  40.8800590  19.4578850   9.4169940  44.3399940
  18.8027690   9.1481580  43.6959640  20.2956800   9.3074420  43.8901920
  36.9634480  11.7482110  44.9534210  37.3343310  10.9649430  44.5470180
  37.6036410  12.4371210  44.7751510  33.9468240  13.1318690  50.3664530
  33.1328080  13.5615850  50.6290320  34.3542440  13.7437100  49.7533580
  36.0093680  11.1866380  37.2664800  36.2842520  12.0945260  37.1384020
  35.8204420  11.1228910  38.2026790  32.4069290   4.2111230  38.5618430
  32.8254170   4.0242210  37.7215090  32.1005350   3.3590280  38.8721360
  35.9059020   9.1235370  42.2594230  35.5302620   8.3563300  41.8275520
  35.1762140   9.5058070  42.7469160  20.4954780   9.8022510  48.8803280
  20.8627820   9.7149910  49.7599300  19.9265600   9.0389060  48.7810140
  35.2958640   8.2706890  51.8933750  35.0644730   8.0419640  50.9931700
  35.5563190   9.1906440  51.8478640  20.0470780   6.7131600  52.7861700
  19.1526830   6.6798360  53.1255410  20.5868330   6.9118390  53.5512950
  33.7346710   3.4963320  54.6713450  34.6116890   3.5046720  55.0547450
  33.7467550   2.7594160  54.0605800  18.6716930   6.6268870  40.2825270
  17.7681010   6.8899070  40.1076930  19.1557550   6.8980040  39.5025230
  35.1809980   7.3492860  45.5601470  35.7047460   6.8555510  44.9291640
  35.7669400   7.4843220  46.3049040  35.3599700   7.4332730  49.0821020
  34.4102410   7.3996270  49.1966010  35.5412710   8.3432840  48.8470790
  21.2144140   5.6834410  38.1919650  21.9235840   5.2617630  37.7066930
  20.4984080   5.7509640  37.5603000  34.6709950   6.6066210  41.4993880
  35.1669070   6.3737080  42.2842760  34.4726020   5.7678050  41.0831520
  36.0997110   5.2427160  44.0331560  35.9896390   5.0883200  44.9713830
  36.8604700   4.7148100  43.7906970  36.9887380   3.0735080  37.2737700
  37.9136690   2.9416260  37.0655990  36.9663170   3.1527900  38.2274150
  37.0625870   3.8445740  39.8994410  36.2677370   3.7790860  40.4287320
  37.2669150   4.7796380  39.8879760  34.0044290  17.8837290  43.8932800
  34.6003360  17.5621860  43.2167220  34.2622440  17.4109110  44.6846070
  21.9106860  14.3155200  54.0423430  21.8676490  13.9448110  54.9237890
  22.0417870  15.2532770  54.1825250  25.6112890  15.8714790  49.6433150
  25.3704250  16.1389350  48.7563670  26.5515530  16.0420520  49.6984010
  27.8167310   2.3347480  53.3989660  27.7556200   2.9269310  54.1485070
  28.7567690   2.2273440  53.2539920  36.8717050  17.8909170  50.4443790
  36.3775330  18.2878040  49.7270920  36.2630340  17.2658380  50.8381070
  21.7494890  17.2617450  51.1621210  21.1555210  17.1302150  51.9011250
  21.7418730  16.4255590  50.6963310  32.1021890   2.7620550  50.7492960
  31.7735250   1.9472310  50.3694690  33.0504190   2.7190360  50.6258650
  34.5556500  18.5332590  47.7230530  34.0959470  19.2848400  47.3488550
  33.9268960  17.8139060  47.6645330  21.3807120  14.6275830  50.1129250
  20.6541180  14.0081120  50.0455200  21.4416270  15.0216440  49.2427330
  24.9852220  16.8420830  46.8978660  25.5017240  16.2308190  46.3726920
  25.6349600  17.3449610  47.3889670  27.7247720  17.7329320  47.7247640
  28.0125530  17.4783620  46.8480650  28.2370940  17.1806680  48.3153210
  33.4945800   2.1742620  46.3493240  33.9353890   2.1187720  45.5014840
  33.2253390   3.0900630  46.4203420  19.6637120  17.9450220  43.3226010
  19.4959160  17.3120900  44.0207900  18.7971630  18.1509620  42.9720200
  20.2865140   1.7767000  40.8257870  21.0444500   1.8895880  40.2521900
  19.8242310   2.6136200  40.7801300  26.8278950   3.8906270  43.8160180
  26.0153460   3.5163160  43.4756060  27.3320590   3.1351350  44.1181370
  21.2699820  16.6383450  40.7676150  20.7447440  17.0191480  40.0638110
  21.1944400  17.2634220  41.4885860  27.7920080  18.6545420  55.0915840
  28.7187390  18.4189690  55.1351800  27.7770510  19.4817420  54.6101870
  36.0265140  18.1970990  42.0890090  36.2017330  17.5108730  41.4451010
  35.3286710  18.7218040  41.6966760  23.8692790  18.5865830  39.6425400
  24.6011610  18.3025110  39.0949290  24.1286460  18.3479110  40.5324780
  23.0307580  14.7030560  39.6471730  22.4016460  15.1715660  40.1957560
  23.1455410  13.8579780  40.0817920  34.3597640  17.8815280  54.9156880
  35.1522960  17.3864510  54.7082840  34.6530790  18.5605420  55.5232490
  30.4857300   8.7536220  25.7972930  30.4051350   7.8390830  25.5264640
  30.0721720   9.2503290  25.0912640  28.6175340  10.5315240  27.6782200
  27.8417440  10.0515680  27.9680770  29.2688270   9.8520890  27.5038360
  22.6341170  10.8435050  28.5557960  21.8026050  10.5883760  28.9554470
  23.2422150  10.9145820  29.2915880  32.6382770  14.9375430  26.4581330
  32.1764300  14.1662670  26.7868500  33.4508320  14.9641500  26.9633780
  22.6142430  14.8775140  28.7515980  22.9170470  13.9872880  28.5726200
  23.3586020  15.4345360  28.5238230  21.0433120   5.8036940  22.3400350
  20.1549820   6.1452910  22.2380230  21.3274310   5.6037260  21.4481180
  19.0066130   8.4042590  28.2240050  19.5782240   7.6364790  28.2243690
  19.0067670   8.7031350  27.3146660  28.8646080  17.2233440  26.0785320
  28.2457520  17.6790940  25.5079760  29.7197860  17.3784900  25.6775020
  28.0584330  13.2072430  27.6852360  27.9892610  12.2662370  27.5241490
  28.8204190  13.2973840  28.2574930  20.2491000   3.8126950  30.0108980
  20.0693840   2.9152700  30.2911740  19.8471080   4.3598820  30.6855930
  29.0889500   6.0142810  27.9121290  29.4654320   5.1414690  27.7994960
  28.9909010   6.3501510  27.0211730  23.2194510   4.3868440  23.3738730
  23.3261260   5.2872170  23.6807490  22.3086870   4.3386410  23.0833380
  32.8713620   3.5093250  24.8449630  33.6923240   3.0189820  24.8875110
  32.9047700   4.0990910  25.5981470  20.8677670   6.3087450  28.6191320
  21.5487780   6.5725820  29.2378720  20.5525720   5.4688320  28.9529330
  25.0602240   7.3554810  27.7063910  25.5680460   7.8535780  28.3468930
  25.5915480   6.5790010  27.5303270  37.1613170   5.5260000  31.4093260
  36.4565340   5.9141710  30.8908370  37.4271090   6.2210290  32.0114190
  29.7309430  12.1072680  23.4717230  29.1126700  12.5722130  22.9079950
  30.2432680  12.8000160  23.8886740  24.5941190  11.6348550  30.1500830
  24.2610570  12.2617470  30.7921900  24.7707870  12.1610430  29.3702500
  33.1075100   5.4493630  27.6177170  32.4030670   5.7378520  28.1980280
  33.4687260   6.2593740  27.2576730  23.0253670   3.7063330  29.9797780
  23.3670480   4.5505380  29.6851650  22.0869480   3.8547070  30.0963120
  23.8060290  13.6029350  31.9650010  24.4234290  14.2780430  31.6834460
  22.9453410  14.0117330  31.8737510  19.0992630  12.7929210  20.8456860
  18.7220610  13.2816310  20.1141760  19.3565700  13.4654490  21.4763390
  34.7237880  15.0668760  29.8804650  34.0401400  15.7367870  29.8721320
  35.2632170  15.2649410  29.1149510  36.1762020   4.8948420  28.0086380
  35.2286930   4.9287400  28.1401810  36.5012010   5.7087370  28.3935740
  32.2596620  16.9112890  28.5949830  32.2723780  16.5075180  27.7272090
  31.7071840  17.6860180  28.4911260  33.5542040  13.6329110  23.6840000
  33.4438370  12.6903440  23.8089420  33.5510290  13.9944750  24.5702760
  31.6582060  11.8142730  29.9232440  32.0750850  11.6002840  29.0885900
  32.3821880  12.0715520  30.4941060  29.0962320   9.2594430  23.0402490
  28.1691600   9.1931810  23.2690960  29.2487140  10.1974560  22.9257730
  29.0831400   5.5311430  20.0369650  28.1435070   5.6925390  20.1222110
  29.4014660   6.2497110  19.4905640  35.6044160  10.2129950  30.0148680
  34.7762790  10.2823040  29.5398810  36.1994640  10.7984260  29.5464510
  33.1259610  10.8214730  23.5437740  32.5072030  10.4834280  22.8964040
  33.1084060  10.1774490  24.2516930  32.5686170   6.9999270  30.9603550
  32.1557350   7.8252980  31.2143540  31.8362120   6.4144310  30.7679910
  24.7018960   9.7859170  25.8222220  24.2975960   9.0736420  25.3268120
  24.7882080   9.4412410  26.7110260  25.1700660  13.4726730  27.9861430
  24.8728950  12.8672200  27.3069210  26.1200480  13.5104040  27.8750790
  23.4147580   6.5602380  29.6021260  23.9662170   6.6697720  28.8274510
  23.9291090   6.9339980  30.3176490  33.2586270  17.0458600  31.6484530
  32.7816830  17.8530790  31.4557140  32.5748060  16.3936930  31.8010740
  24.2619090  13.2108420  34.6369230  23.3647620  13.4348390  34.8842630
  24.2871960  13.3343360  33.6880630  31.3024310  10.0601540  20.5510490
  31.7417590   9.2223970  20.4048310  32.0152730  10.6930940  20.6374630
  23.0890310  10.0821740  33.2126600  22.9498080  10.9544540  33.5814000
  22.2071670   9.7394550  33.0674540  29.4119690  14.9997610  24.5191730
  29.8515600  15.7421940  24.1047120  29.3506580  15.2424180  25.4430690
  24.8870660  16.0243440  35.4211750  24.8586090  16.4286390  34.5540180
  24.7235630  15.0953800  35.2583350  21.4023590   8.6804150  23.3228870
  21.2821190   9.4066240  22.7110140  21.0924480   7.9107060  22.8456780
  36.8385480  16.8070540  36.7175920  37.3145200  17.2853430  37.3965000
  37.4592640  16.7388030  35.9921420  19.0408960  11.8519290  29.1297510
  19.1189380  11.9868060  28.1853230  19.6550640  11.1435180  29.3225630
  20.2856590  13.5519480  25.5403690  19.8784670  13.6934070  24.6857290
  21.1769600  13.2679640  25.3374900  36.2418730  13.9983390  33.8775930
  36.3681790  13.7595270  32.9593110  36.2840110  13.1667930  34.3498010
  30.1035470  17.7011390  32.4470740  30.6180140  17.6119400  33.2493170
  29.2604550  18.0471090  32.7398650  32.0789870  17.9866730  21.8754740
  31.9191010  17.6969670  22.7736570  31.9136580  17.2106860  21.3399970
  24.5578250  17.7665260  23.6526360  24.3820730  16.8500800  23.4394160
  23.7033990  18.1252550  23.8924160  31.7816000  15.4954290  20.4352740
  31.0881160  15.4931580  19.7755020  32.5238860  15.0713610  20.0046910
  31.3465930  17.1217000  24.5101230  31.8022880  16.3406380  24.8239850
  31.6858450  17.8323820  25.0542410  36.0942740   6.0515850  34.8425670
  35.4787010   6.5595520  34.3141130  35.7739160   5.1514180  34.7851610
  19.0968480  12.8933460  31.6691970  19.2599520  12.4238820  30.8511340
  19.5620930  12.3857020  32.3340810  23.8687250   2.0239220  26.7052540
  23.4255400   2.8048760  26.3737060  24.4272240   2.3469110  27.4123480
  28.1557060   4.8907740  32.3087860  27.6936430   5.0990760  33.1207800
  27.7535170   4.0767090  32.0058530  33.1561570   6.1116690  33.4384520
  32.3055160   5.8122440  33.7593590  32.9963360   6.3558700  32.5268340
  30.2511280   7.6118440  35.5383310  30.5764690   6.7782190  35.1985540
  31.0391610   8.1346960  35.6861640  25.9063150   2.5686550  28.5642140
  26.2035480   3.4749380  28.4834160  26.4548710   2.0805330  27.9501710
  23.6601470   7.1472790  24.4333790  23.4342390   6.9309960  25.3380410
  22.8794000   7.5801250  24.0879760  30.8899230   7.1536160  23.0324440
  30.2908120   7.8771960  22.8488060  31.4378840   7.0912940  22.2500890
  26.1000680   8.0458370  35.0994060  26.0044280   7.1053100  34.9494460
  26.9432660   8.2673440  34.7042130  29.4964100   5.7899700  25.0627720
  29.8893670   6.1071900  24.2496410  29.8580950   4.9111580  25.1772240
  21.2311220   4.4572040  33.2527840  20.8374610   5.3047250  33.4600620
  20.5429620   3.8198410  33.4436480  27.8056270   4.5407010  36.3224580
  27.1154590   4.3479210  36.9570670  28.5488570   4.8241650  36.8548880
  18.5328270   2.3800500  27.2857920  18.2441320   2.9503360  27.9982900
  19.2774030   1.9004950  27.6489150  18.7198500   6.3220620  18.4960640
  18.6373170   7.2651380  18.6375630  18.3681560   6.1795530  17.6172990
  30.0819240   8.3805450  29.1578500  29.3500360   8.8892260  29.5068600
  29.6843580   7.5635430  28.8567280  26.5196630   5.0559650  27.5630990
  26.5232690   4.6149600  26.7135530  27.4147750   5.3776980  27.6702810
  22.3699010   4.9386140  26.5225200  22.0299060   5.4161370  27.2792250
  21.6076330   4.4851260  26.1626300  26.5816780   6.0571730  20.5537750
  26.7029600   6.0158210  21.5023570  26.1965290   6.9195880  20.3984480
  30.5445150   3.8339130  28.5701440  30.5617890   4.2847780  29.4143290
  30.2960730   2.9344770  28.7834880  25.5938280   8.3672870  19.9521050
  25.0255180   7.9191120  19.3256960  26.3027280   8.7265650  19.4186200
  20.6707460  12.2684890  33.8287780  20.2862250  11.6278560  34.4270740
  20.9819650  12.9721010  34.3982510  26.8204600   9.1161430  29.3096400
  27.1874730   8.6420000  30.0557740  26.6309660   9.9903000  29.6504740
  19.6845090   3.8605120  25.4389870  19.3992010   3.4960790  26.2768490
  19.6223950   3.1285580  24.8253010  24.6103970   8.1570070  31.6280610
  24.3061040   9.0362050  31.8530970  25.5650430   8.2169860  31.6638050
  23.1385760  12.3631060  22.2247460  22.3648020  11.8228680  22.0646180
  23.8680390  11.8437670  21.8865220  33.8973740  11.3596420  28.0173850
  34.6172860  11.8551710  27.6269960  33.6955560  10.6814310  27.3727720
  29.3583680   2.7534380  22.1603240  28.5448290   2.2547550  22.0848550
  29.1645630   3.5932630  21.7439590  29.2792540  11.4305480  33.9042850
  29.2129850  10.5101150  33.6500440  28.6497680  11.5280920  34.6187490
  32.0732070   7.1254030  20.4565400  32.9611690   7.4371260  20.2816740
  32.0437160   6.2526280  20.0645980  23.1823160  12.0311440  25.8626270
  23.7001830  11.2279700  25.8083160  22.7307180  11.9690580  26.7043100
  28.0692660  13.2977720  21.1353570  28.4108360  14.0419950  20.6396890
  27.2405370  13.6108840  21.4978400  20.6667700   8.9972810  32.7751970
  20.3082640   9.6626660  33.3625310  20.3722260   8.1656360  33.1464590
  23.8680820   9.4557050  35.6591520  23.5680960   9.6014230  34.7619340
  24.6392060   8.8962340  35.5664910  29.2109270  14.2526050  33.6546650
  29.2253810  13.3207010  33.4365560  28.5034370  14.3385810  34.2936420
  34.3446340   8.4365870  19.9245260  34.2610060   8.8680090  19.0741700
  35.0640530   8.8964220  20.3572080  35.4220480  10.8933390  33.0015230
  34.6968670  11.4862170  32.8044620  35.9495940  10.8856930  32.2028600
  35.3733590  15.2908130  22.6527390  34.7309750  14.6363750  22.9271110
  34.9864250  15.6963220  21.8768060  30.9520070  12.6193560  26.4999080
  31.3043890  12.0221690  25.8400450  30.0682400  12.2937790  26.6707330
  27.0383350  13.3791250  23.9069490  27.7254480  13.9260460  24.2877080
  26.2515770  13.9231980  23.9419100  19.1775750   8.9964070  19.3986570
  20.0470600   9.2788870  19.6822490  18.6866070   9.8099940  19.2835380
  26.3410560  10.3837280  23.5194850  26.7973340  11.1942530  23.7455040
  25.9898770  10.0660420  24.3513340  28.6443170  15.8943620  30.7487150
  29.2885390  16.1003000  31.4260570  29.0072610  15.1332020  30.2958000
  29.9175250  13.8975970  29.4664600  30.5597480  13.1969130  29.5796770
  30.4424600  14.6774410  29.2861490  33.7630970  14.1824590  19.1903740
  33.5368550  13.4655030  19.7828380  33.3727170  13.9337030  18.3525490
  31.6912870  14.6970870  32.6700660  32.0269110  15.2837560  33.3478580
  30.7713210  14.5663580  32.8998450  19.5447000  18.2091450  19.9648200
  19.9044640  18.8080790  19.3105470  19.4039340  18.7551340  20.7383230
  19.2416270   2.4866050  33.4524070  18.5274790   2.6862970  34.0576680
  19.6611310   1.7105620  33.8238870  33.3447220  12.0996530  20.8517900
  33.0568920  12.5609220  21.6395780  34.1399390  11.6394300  21.1202120
  19.5288860  16.4746310  34.4390600  19.6379980  15.5341050  34.2985990
  18.8769420  16.7401060  33.7904330  27.5201450  14.7462200  35.8388720
  27.1998320  14.0271440  36.3834410  26.8459810  15.4217270  35.9124780
  25.5615620  15.5922650  20.7821870  25.5525720  16.3252340  20.1666380
  24.6413980  15.3454230  20.8748830  21.1622260  10.8137540  21.5268630
  20.5550210  11.5536440  21.5363930  21.6371610  10.9036900  20.7006830
  30.7355050   4.9788360  31.2025520  31.1035870   4.1583570  31.5305090
  29.8753250   5.0390250  31.6181170  34.1017080   3.9345300  22.0113080
  33.4730240   4.0390970  21.2971310  33.6069000   4.1542080  22.8006960
  28.5475220  15.6550890  19.4447060  28.6487200  15.4514880  18.5149040
  27.6476960  15.4009170  19.6494840  26.0701110   6.2131250  23.4270960
  25.3617260   6.6817590  23.8684570  26.3545590   5.5553260  24.0616150
  27.6957040   7.6327950  31.4263490  28.1942290   8.1073770  32.0915340
  27.8379990   6.7091470  31.6333520  30.1016540   2.9381910  24.8666750
  29.9784320   2.9568040  23.9176260  31.0501100   2.9860850  24.9865150
  27.1893330  18.1737210  24.1394730  27.4434830  18.1358600  23.2174100
  26.2405810  18.0470540  24.1322980  24.2736130   4.5216330  20.8021670
  25.1226660   4.9586480  20.7361860  23.9067400   4.8336590  21.6293730
  34.9023900   3.8495910  32.2691880  34.3997500   4.5901310  32.6085690
  35.7180560   4.2379910  31.9528670  33.1945910   9.0929090  25.7153240
  32.2536050   9.1079320  25.8900930  33.5089980   8.3065050  26.1613540
  23.1727550  10.7748690  19.2757200  23.9390820  10.6630050  19.8382630
  23.2502240  10.0786660  18.6233970  21.8674310   8.2073760  19.9590090
  21.9477900   7.2601270  20.0707490  22.7594060   8.5380640  20.0650750
  35.1971490  16.2637940  27.3907500  35.3218910  17.0869110  27.8631310
  36.0637050  16.0528670  27.0431650  22.6689020  18.3569150  27.0624630
  23.4051500  17.8084610  27.3333200  23.0529940  19.2225160  26.9230620
  19.5534500  14.4242720  22.9366140  18.6274280  14.6663860  22.9271550
  20.0190930  15.2516980  22.8150890  21.6747300  17.5415220  36.2510210
  22.4760030  17.8627270  36.6645610  21.1599120  17.1810800  36.9730120
  25.7791330  17.5299460  18.8850200  26.5719940  17.8188290  18.4331990
  25.2595680  17.0991630  18.2062680  30.5111930  13.6495090  36.1985620
  29.9050090  13.6726690  35.4581370  30.2066040  12.9178130  36.7352870
  31.9412300  17.3775380  34.8095030  32.8934050  17.2933400  34.7595270
  31.7940520  18.0417090  35.4828820  34.8321500  16.7569590  20.3086940
  34.5463010  16.3434730  19.4941120  34.6341050  17.6857300  20.1887460
  19.3945110  10.0288680  35.1946260  19.8984130   9.4495960  35.7662490
  18.6552530  10.3128910  35.7322630  26.2968730  12.7502870  18.7492550
  26.1919370  12.1355220  19.4753930  26.1292950  12.2268760  17.9655560
  26.4483050  11.4359670  34.7281780  25.6828720  12.0044670  34.6436450
  26.6299010  11.1435880  33.8350010  29.5371460  11.8122900  19.3534540
  28.9881560  12.2592200  19.9977280  30.1590720  11.3072150  19.8772210
  33.5906400  13.1665000  35.2856800  34.3315870  13.5040760  34.7824260
  32.8279080  13.3357060  34.7326570  21.4268190   8.1718270  36.0896330
  21.4673530   7.8732140  36.9981560  22.2813690   8.5725880  35.9303850
  25.2046580  10.7713820  21.2499840  25.6263000  10.6053690  22.0931230
  25.3297420   9.9614050  20.7554980  23.3674000   6.7510370  34.0570820
  22.8370460   6.2601320  33.4294160  24.0362070   7.1794570  33.5228750
  27.7174220   9.7951430  18.4976940  28.2379880   9.0800450  18.1318090
  28.3642620  10.4337300  18.7977450  32.2652060  11.2179830  33.8212010
  32.6793080  11.3724910  34.6702430  31.3303060  11.3435050  33.9837790
  32.7374230   8.5575990  35.8251160  33.3195000   7.8028310  35.7371640
  32.9136000   9.0883430  35.0482640  23.8546300   3.7172740  34.1368110
  23.7603170   3.0993490  33.4118980  23.2743690   4.4439030  33.9098020
  26.6207740   2.2745980  31.1695500  26.1725040   2.2970240  30.3241050
  25.9872940   1.8765000  31.7665800  27.0267290  11.1700310  31.7907940
  27.4455400  12.0133040  31.6184180  26.1075920  11.3072350  31.5614720
  29.3631190   8.9016490  33.1745780  29.4827400   8.3057630  33.9140620
  30.2225190   8.9386180  32.7547080  31.7019090   9.4553680  31.7508290
  31.1754310   9.9796300  31.1473430  32.0450430  10.0881070  32.3818020
  24.1005480   6.8447050  18.1958000  23.8994540   5.9814410  18.5571340
  23.9297530   6.7580410  17.2579600  24.8774710  17.4753320  32.9065670
  24.3395800  18.1999380  32.5874370  25.1308670  16.9983660  32.1163010
  26.1299960   5.4437840  34.4321600  26.7199650   5.1353690  35.1199420
  25.3120200   4.9717590  34.5881500  30.9493390   5.0603650  34.6654620
  30.2608910   4.3985190  34.6004610  31.6699410   4.6141920  35.1103080
  22.8988280   3.9447670  18.1835880  23.2014180   3.9515100  17.2755030
  23.6382870   3.5945530  18.6803540  27.7336920  18.7104530  33.1652320
  27.6595620  19.6139670  33.4724690  26.8315760  18.3916430  33.1374390
  26.1173210   2.8882290  19.1692080  25.7695210   2.2106280  18.5894530
  26.3185980   2.4271800  19.9835470  28.2822250  17.8763040  20.7878680
  29.1773040  18.2148010  20.8097440  28.3139880  17.1542450  20.1602960
  21.9218410  13.2490090  19.0165680  22.3593280  13.7919760  19.6723260
  22.4066140  12.4237040  19.0262020  19.1364210  16.0379120  26.4685940
  19.4667220  15.1700180  26.2364580  19.5655210  16.2437640  27.2990900
  23.7326130  14.3688130  24.1287910  23.4321670  14.2453100  25.0291820
  23.6263620  13.5096720  23.7203640  19.6254420  16.9049710  29.2067570
  19.1885410  17.0850510  30.0391720  20.1932100  17.6624330  29.0649290
  35.2616600  16.4066710  33.4944880  34.6618590  16.4659270  32.7508800
  35.3910500  15.4671690  33.6241730  36.5018050  14.1484530  18.8314590
  35.6711010  14.2161180  19.3021820  36.6789880  15.0388650  18.5281450
  35.9574510  10.8932010  21.3348790  36.7193420  11.4628660  21.4408480
  35.9728880  10.3259210  22.1057100  19.4578850   9.4169940  25.5656450
  18.8027690   9.1481580  24.9216150  20.2956800   9.3074420  25.1158430
  36.9634480  11.7482110  26.1790720  37.3343310  10.9649430  25.7726690
  37.6036410  12.4371210  26.0008020  33.9468240  13.1318690  31.5921040
  33.1328080  13.5615850  31.8546830  34.3542440  13.7437100  30.9790090
  36.0093680  11.1866380  18.4921310  36.2842520  12.0945260  18.3640530
  35.8204420  11.1228910  19.4283300  32.4069290   4.2111230  19.7874940
  32.8254170   4.0242210  18.9471600  32.1005350   3.3590280  20.0977870
  35.9059020   9.1235370  23.4850740  35.5302620   8.3563300  23.0532030
  35.1762140   9.5058070  23.9725670  20.4954780   9.8022510  30.1059790
  20.8627820   9.7149910  30.9855810  19.9265600   9.0389060  30.0066650
  35.2958640   8.2706890  33.1190260  35.0644730   8.0419640  32.2188210
  35.5563190   9.1906440  33.0735150  20.0470780   6.7131600  34.0118210
  19.1526830   6.6798360  34.3511920  20.5868330   6.9118390  34.7769460
  33.7346710   3.4963320  35.8969960  34.6116890   3.5046720  36.2803960
  33.7467550   2.7594160  35.2862310  18.6716930   6.6268870  21.5081780
  17.7681010   6.8899070  21.3333440  19.1557550   6.8980040  20.7281740
  35.1809980   7.3492860  26.7857980  35.7047460   6.8555510  26.1548150
  35.7669400   7.4843220  27.5305550  35.3599700   7.4332730  30.3077530
  34.4102410   7.3996270  30.4222520  35.5412710   8.3432840  30.0727300
  21.2144140   5.6834410  19.4176160  21.9235840   5.2617630  18.9323440
  20.4984080   5.7509640  18.7859510  34.6709950   6.6066210  22.7250390
  35.1669070   6.3737080  23.5099270  34.4726020   5.7678050  22.3088030
  36.0997110   5.2427160  25.2588070  35.9896390   5.0883200  26.1970340
  36.8604700   4.7148100  25.0163480  36.9887380   3.0735080  18.4994210
  37.9136690   2.9416260  18.2912500  36.9663170   3.1527900  19.4530660
  37.0625870   3.8445740  21.1250920  36.2677370   3.7790860  21.6543830
  37.2669150   4.7796380  21.1136270  34.0044290  17.8837290  25.1189310
  34.6003360  17.5621860  24.4423730  34.2622440  17.4109110  25.9102580
  21.9106860  14.3155200  35.2679940  21.8676490  13.9448110  36.1494400
  22.0417870  15.2532770  35.4081760  25.6112890  15.8714790  30.8689660
  25.3704250  16.1389350  29.9820180  26.5515530  16.0420520  30.9240520
  27.8167310   2.3347480  34.6246170  27.7556200   2.9269310  35.3741580
  28.7567690   2.2273440  34.4796430  36.8717050  17.8909170  31.6700300
  36.3775330  18.2878040  30.9527430  36.2630340  17.2658380  32.0637580
  21.7494890  17.2617450  32.3877720  21.1555210  17.1302150  33.1267760
  21.7418730  16.4255590  31.9219820  32.1021890   2.7620550  31.9749470
  31.7735250   1.9472310  31.5951200  33.0504190   2.7190360  31.8515160
  34.5556500  18.5332590  28.9487040  34.0959470  19.2848400  28.5745060
  33.9268960  17.8139060  28.8901840  21.3807120  14.6275830  31.3385760
  20.6541180  14.0081120  31.2711710  21.4416270  15.0216440  30.4683840
  24.9852220  16.8420830  28.1235170  25.5017240  16.2308190  27.5983430
  25.6349600  17.3449610  28.6146180  27.7247720  17.7329320  28.9504150
  28.0125530  17.4783620  28.0737160  28.2370940  17.1806680  29.5409720
  33.4945800   2.1742620  27.5749750  33.9353890   2.1187720  26.7271350
  33.2253390   3.0900630  27.6459930  19.6637120  17.9450220  24.5482520
  19.4959160  17.3120900  25.2464410  18.7971630  18.1509620  24.1976710
  20.2865140   1.7767000  22.0514380  21.0444500   1.8895880  21.4778410
  19.8242310   2.6136200  22.0057810  26.8278950   3.8906270  25.0416690
  26.0153460   3.5163160  24.7012570  27.3320590   3.1351350  25.3437880
  21.2699820  16.6383450  21.9932660  20.7447440  17.0191480  21.2894620
  21.1944400  17.2634220  22.7142370  27.7920080  18.6545420  36.3172350
  28.7187390  18.4189690  36.3608310  27.7770510  19.4817420  35.8358380
  36.0265140  18.1970990  23.3146600  36.2017330  17.5108730  22.6707520
  35.3286710  18.7218040  22.9223270  23.8692790  18.5865830  20.8681910
  24.6011610  18.3025110  20.3205800  24.1286460  18.3479110  21.7581290
  23.0307580  14.7030560  20.8728240  22.4016460  15.1715660  21.4214070
  23.1455410  13.8579780  21.3074430  34.3597640  17.8815280  36.1413390
  35.1522960  17.3864510  35.9339350  34.6530790  18.5605420  36.7489000
  30.4857300   8.7536220   7.0229440  30.4051350   7.8390830   6.7521150
  30.0721720   9.2503290   6.3169150  28.6175340  10.5315240   8.9038710
  27.8417440  10.0515680   9.1937280  29.2688270   9.8520890   8.7294870
  22.6341170  10.8435050   9.7814470  21.8026050  10.5883760  10.1810980
  23.2422150  10.9145820  10.5172390  32.6382770  14.9375430   7.6837840
  32.1764300  14.1662670   8.0125010  33.4508320  14.9641500   8.1890290
  22.6142430  14.8775140   9.9772490  22.9170470  13.9872880   9.7982710
  23.3586020  15.4345360   9.7494740  21.0433120   5.8036940   3.5656860
  20.1549820   6.1452910   3.4636740  21.3274310   5.6037260   2.6737690
  19.0066130   8.4042590   9.4496560  19.5782240   7.6364790   9.4500200
  19.0067670   8.7031350   8.5403170  28.8646080  17.2233440   7.3041830
  28.2457520  17.6790940   6.7336270  29.7197860  17.3784900   6.9031530
  28.0584330  13.2072430   8.9108870  27.9892610  12.2662370   8.7498000
  28.8204190  13.2973840   9.4831440  20.2491000   3.8126950  11.2365490
  20.0693840   2.9152700  11.5168250  19.8471080   4.3598820  11.9112440
  29.0889500   6.0142810   9.1377800  29.4654320   5.1414690   9.0251470
  28.9909010   6.3501510   8.2468240  23.2194510   4.3868440   4.5995240
  23.3261260   5.2872170   4.9064000  22.3086870   4.3386410   4.3089890
  32.8713620   3.5093250   6.0706140  33.6923240   3.0189820   6.1131620
  32.9047700   4.0990910   6.8237980  20.8677670   6.3087450   9.8447830
  21.5487780   6.5725820  10.4635230  20.5525720   5.4688320  10.1785840
  25.0602240   7.3554810   8.9320420  25.5680460   7.8535780   9.5725440
  25.5915480   6.5790010   8.7559780  37.1613170   5.5260000  12.6349770
  36.4565340   5.9141710  12.1164880  37.4271090   6.2210290  13.2370700
  29.7309430  12.1072680   4.6973740  29.1126700  12.5722130   4.1336460
  30.2432680  12.8000160   5.1143250  24.5941190  11.6348550  11.3757340
  24.2610570  12.2617470  12.0178410  24.7707870  12.1610430  10.5959010
  33.1075100   5.4493630   8.8433680  32.4030670   5.7378520   9.4236790
  33.4687260   6.2593740   8.4833240  23.0253670   3.7063330  11.2054290
  23.3670480   4.5505380  10.9108160  22.0869480   3.8547070  11.3219630
  23.8060290  13.6029350  13.1906520  24.4234290  14.2780430  12.9090970
  22.9453410  14.0117330  13.0994020  19.0992630  12.7929210   2.0713370
  18.7220610  13.2816310   1.3398270  19.3565700  13.4654490   2.7019900
  34.7237880  15.0668760  11.1061160  34.0401400  15.7367870  11.0977830
  35.2632170  15.2649410  10.3406020  36.1762020   4.8948420   9.2342890
  35.2286930   4.9287400   9.3658320  36.5012010   5.7087370   9.6192250
  32.2596620  16.9112890   9.8206340  32.2723780  16.5075180   8.9528600
  31.7071840  17.6860180   9.7167770  33.5542040  13.6329110   4.9096510
  33.4438370  12.6903440   5.0345930  33.5510290  13.9944750   5.7959270
  31.6582060  11.8142730  11.1488950  32.0750850  11.6002840  10.3142410
  32.3821880  12.0715520  11.7197570  29.0962320   9.2594430   4.2659000
  28.1691600   9.1931810   4.4947470  29.2487140  10.1974560   4.1514240
  35.6044160  10.2129950  11.2405190  34.7762790  10.2823040  10.7655320
  36.1994640  10.7984260  10.7721020  33.1259610  10.8214730   4.7694250
  32.5072030  10.4834280   4.1220550  33.1084060  10.1774490   5.4773440
  32.5686170   6.9999270  12.1860060  32.1557350   7.8252980  12.4400050
  31.8362120   6.4144310  11.9936420  24.7018960   9.7859170   7.0478730
  24.2975960   9.0736420   6.5524630  24.7882080   9.4412410   7.9366770
  25.1700660  13.4726730   9.2117940  24.8728950  12.8672200   8.5325720
  26.1200480  13.5104040   9.1007300  23.4147580   6.5602380  10.8277770
  23.9662170   6.6697720  10.0531020  23.9291090   6.9339980  11.5433000
  33.2586270  17.0458600  12.8741040  32.7816830  17.8530790  12.6813650
  32.5748060  16.3936930  13.0267250  24.2619090  13.2108420  15.8625740
  23.3647620  13.4348390  16.1099140  24.2871960  13.3343360  14.9137140
  31.3024310  10.0601540   1.7767000  31.7417590   9.2223970   1.6304820
  32.0152730  10.6930940   1.8631140  23.0890310  10.0821740  14.4383110
  22.9498080  10.9544540  14.8070510  22.2071670   9.7394550  14.2931050
  29.4119690  14.9997610   5.7448240  29.8515600  15.7421940   5.3303630
  29.3506580  15.2424180   6.6687200  24.8870660  16.0243440  16.6468260
  24.8586090  16.4286390  15.7796690  24.7235630  15.0953800  16.4839860
  21.4023590   8.6804150   4.5485380  21.2821190   9.4066240   3.9366650
  21.0924480   7.9107060   4.0713290  36.8385480  16.8070540  17.9432430
  37.3145200  17.2853430  18.6221510  37.4592640  16.7388030  17.2177930
  19.0408960  11.8519290  10.3554020  19.1189380  11.9868060   9.4109740
  19.6550640  11.1435180  10.5482140  20.2856590  13.5519480   6.7660200
  19.8784670  13.6934070   5.9113800  21.1769600  13.2679640   6.5631410
  36.2418730  13.9983390  15.1032440  36.3681790  13.7595270  14.1849620
  36.2840110  13.1667930  15.5754520  30.1035470  17.7011390  13.6727250
  30.6180140  17.6119400  14.4749680  29.2604550  18.0471090  13.9655160
  32.0789870  17.9866730   3.1011250  31.9191010  17.6969670   3.9993080
  31.9136580  17.2106860   2.5656480  24.5578250  17.7665260   4.8782870
  24.3820730  16.8500800   4.6650670  23.7033990  18.1252550   5.1180670
  31.3465930  17.1217000   5.7357740  31.8022880  16.3406380   6.0496360
  31.6858450  17.8323820   6.2798920  36.0942740   6.0515850  16.0682180
  35.4787010   6.5595520  15.5397640  35.7739160   5.1514180  16.0108120
  19.0968480  12.8933460  12.8948480  19.2599520  12.4238820  12.0767850
  19.5620930  12.3857020  13.5597320  23.8687250   2.0239220   7.9309050
  23.4255400   2.8048760   7.5993570  24.4272240   2.3469110   8.6379990
  28.1557060   4.8907740  13.5344370  27.6936430   5.0990760  14.3464310
  27.7535170   4.0767090  13.2315040  33.1561570   6.1116690  14.6641030
  32.3055160   5.8122440  14.9850100  32.9963360   6.3558700  13.7524850
  30.2511280   7.6118440  16.7639820  30.5764690   6.7782190  16.4242050
  31.0391610   8.1346960  16.9118150  25.9063150   2.5686550   9.7898650
  26.2035480   3.4749380   9.7090670  26.4548710   2.0805330   9.1758220
  23.6601470   7.1472790   5.6590300  23.4342390   6.9309960   6.5636920
  22.8794000   7.5801250   5.3136270  30.8899230   7.1536160   4.2580950
  30.2908120   7.8771960   4.0744570  31.4378840   7.0912940   3.4757400
  26.1000680   8.0458370  16.3250570  26.0044280   7.1053100  16.1750970
  26.9432660   8.2673440  15.9298640  29.4964100   5.7899700   6.2884230
  29.8893670   6.1071900   5.4752920  29.8580950   4.9111580   6.4028750
  21.2311220   4.4572040  14.4784350  20.8374610   5.3047250  14.6857130
  20.5429620   3.8198410  14.6692990  27.8056270   4.5407010  17.5481090
  27.1154590   4.3479210  18.1827180  28.5488570   4.8241650  18.0805390
  18.5328270   2.3800500   8.5114430  18.2441320   2.9503360   9.2239410
  19.2774030   1.9004950   8.8745660  30.0819240   8.3805450  10.3835010
  29.3500360   8.8892260  10.7325110  29.6843580   7.5635430  10.0823790
  26.5196630   5.0559650   8.7887500  26.5232690   4.6149600   7.9392040
  27.4147750   5.3776980   8.8959320  22.3699010   4.9386140   7.7481710
  22.0299060   5.4161370   8.5048760  21.6076330   4.4851260   7.3882810
  26.5816780   6.0571730   1.7794260  26.7029600   6.0158210   2.7280080
  26.1965290   6.9195880   1.6240990  30.5445150   3.8339130   9.7957950
  30.5617890   4.2847780  10.6399800  30.2960730   2.9344770  10.0091390
  20.6707460  12.2684890  15.0544290  20.2862250  11.6278560  15.6527250
  20.9819650  12.9721010  15.6239020  26.8204600   9.1161430  10.5352910
  27.1874730   8.6420000  11.2814250  26.6309660   9.9903000  10.8761250
  19.6845090   3.8605120   6.6646380  19.3992010   3.4960790   7.5025000
  19.6223950   3.1285580   6.0509520  24.6103970   8.1570070  12.8537120
  24.3061040   9.0362050  13.0787480  25.5650430   8.2169860  12.8894560
  23.1385760  12.3631060   3.4503970  22.3648020  11.8228680   3.2902690
  23.8680390  11.8437670   3.1121730  33.8973740  11.3596420   9.2430360
  34.6172860  11.8551710   8.8526470  33.6955560  10.6814310   8.5984230
  29.3583680   2.7534380   3.3859750  28.5448290   2.2547550   3.3105060
  29.1645630   3.5932630   2.9696100  29.2792540  11.4305480  15.1299360
  29.2129850  10.5101150  14.8756950  28.6497680  11.5280920  15.8444000
  23.1823160  12.0311440   7.0882780  23.7001830  11.2279700   7.0339670
  22.7307180  11.9690580   7.9299610  28.0692660  13.2977720   2.3610080
  28.4108360  14.0419950   1.8653400  27.2405370  13.6108840   2.7234910
  20.6667700   8.9972810  14.0008480  20.3082640   9.6626660  14.5881820
  20.3722260   8.1656360  14.3721100  23.8680820   9.4557050  16.8848030
  23.5680960   9.6014230  15.9875850  24.6392060   8.8962340  16.7921420
  29.2109270  14.2526050  14.8803160  29.2253810  13.3207010  14.6622070
  28.5034370  14.3385810  15.5192930  35.4220480  10.8933390  14.2271740
  34.6968670  11.4862170  14.0301130  35.9495940  10.8856930  13.4285110
  35.3733590  15.2908130   3.8783900  34.7309750  14.6363750   4.1527620
  34.9864250  15.6963220   3.1024570  30.9520070  12.6193560   7.7255590
  31.3043890  12.0221690   7.0656960  30.0682400  12.2937790   7.8963840
  27.0383350  13.3791250   5.1326000  27.7254480  13.9260460   5.5133590
  26.2515770  13.9231980   5.1675610  26.3410560  10.3837280   4.7451360
  26.7973340  11.1942530   4.9711550  25.9898770  10.0660420   5.5769850
  28.6443170  15.8943620  11.9743660  29.2885390  16.1003000  12.6517080
  29.0072610  15.1332020  11.5214510  29.9175250  13.8975970  10.6921110
  30.5597480  13.1969130  10.8053280  30.4424600  14.6774410  10.5118000
  31.6912870  14.6970870  13.8957170  32.0269110  15.2837560  14.5735090
  30.7713210  14.5663580  14.1254960  19.2416270   2.4866050  14.6780580
  18.5274790   2.6862970  15.2833190  19.6611310   1.7105620  15.0495380
  33.3447220  12.0996530   2.0774410  33.0568920  12.5609220   2.8652290
  34.1399390  11.6394300   2.3458630  19.5288860  16.4746310  15.6647110
  19.6379980  15.5341050  15.5242500  18.8769420  16.7401060  15.0160840
  27.5201450  14.7462200  17.0645230  27.1998320  14.0271440  17.6090920
  26.8459810  15.4217270  17.1381290  25.5615620  15.5922650   2.0078380
  25.5525720  16.3252340   1.3922890  24.6413980  15.3454230   2.1005340
  21.1622260  10.8137540   2.7525140  20.5550210  11.5536440   2.7620440
  21.6371610  10.9036900   1.9263340  30.7355050   4.9788360  12.4282030
  31.1035870   4.1583570  12.7561600  29.8753250   5.0390250  12.8437680
  34.1017080   3.9345300   3.2369590  33.4730240   4.0390970   2.5227820
  33.6069000   4.1542080   4.0263470  26.0701110   6.2131250   4.6527470
  25.3617260   6.6817590   5.0941080  26.3545590   5.5553260   5.2872660
  27.6957040   7.6327950  12.6520000  28.1942290   8.1073770  13.3171850
  27.8379990   6.7091470  12.8590030  30.1016540   2.9381910   6.0923260
  29.9784320   2.9568040   5.1432770  31.0501100   2.9860850   6.2121660
  27.1893330  18.1737210   5.3651240  27.4434830  18.1358600   4.4430610
  26.2405810  18.0470540   5.3579490  24.2736130   4.5216330   2.0278180
  25.1226660   4.9586480   1.9618370  23.9067400   4.8336590   2.8550240
  34.9023900   3.8495910  13.4948390  34.3997500   4.5901310  13.8342200
  35.7180560   4.2379910  13.1785180  33.1945910   9.0929090   6.9409750
  32.2536050   9.1079320   7.1157440  33.5089980   8.3065050   7.3870050
  35.1971490  16.2637940   8.6164010  35.3218910  17.0869110   9.0887820
  36.0637050  16.0528670   8.2688160  22.6689020  18.3569150   8.2881140
  23.4051500  17.8084610   8.5589710  23.0529940  19.2225160   8.1487130
  19.5534500  14.4242720   4.1622650  18.6274280  14.6663860   4.1528060
  20.0190930  15.2516980   4.0407400  21.6747300  17.5415220  17.4766720
  22.4760030  17.8627270  17.8902120  21.1599120  17.1810800  18.1986630
  30.5111930  13.6495090  17.4242130  29.9050090  13.6726690  16.6837880
  30.2066040  12.9178130  17.9609380  31.9412300  17.3775380  16.0351540
  32.8934050  17.2933400  15.9851780  31.7940520  18.0417090  16.7085330
  19.3945110  10.0288680  16.4202770  19.8984130   9.4495960  16.9919000
  18.6552530  10.3128910  16.9579140  26.4483050  11.4359670  15.9538290
  25.6828720  12.0044670  15.8692960  26.6299010  11.1435880  15.0606520
  33.5906400  13.1665000  16.5113310  34.3315870  13.5040760  16.0080770
  32.8279080  13.3357060  15.9583080  21.4268190   8.1718270  17.3152840
  21.4673530   7.8732140  18.2238070  22.2813690   8.5725880  17.1560360
  25.2046580  10.7713820   2.4756350  25.6263000  10.6053690   3.3187740
  25.3297420   9.9614050   1.9811490  23.3674000   6.7510370  15.2827330
  22.8370460   6.2601320  14.6550670  24.0362070   7.1794570  14.7485260
  32.2652060  11.2179830  15.0468520  32.6793080  11.3724910  15.8958940
  31.3303060  11.3435050  15.2094300  32.7374230   8.5575990  17.0507670
  33.3195000   7.8028310  16.9628150  32.9136000   9.0883430  16.2739150
  23.8546300   3.7172740  15.3624620  23.7603170   3.0993490  14.6375490
  23.2743690   4.4439030  15.1354530  26.6207740   2.2745980  12.3952010
  26.1725040   2.2970240  11.5497560  25.9872940   1.8765000  12.9922310
  27.0267290  11.1700310  13.0164450  27.4455400  12.0133040  12.8440690
  26.1075920  11.3072350  12.7871230  29.3631190   8.9016490  14.4002290
  29.4827400   8.3057630  15.1397130  30.2225190   8.9386180  13.9803590
  31.7019090   9.4553680  12.9764800  31.1754310   9.9796300  12.3729940
  32.0450430  10.0881070  13.6074530  24.8774710  17.4753320  14.1322180
  24.3395800  18.1999380  13.8130880  25.1308670  16.9983660  13.3419520
  26.1299960   5.4437840  15.6578110  26.7199650   5.1353690  16.3455930
  25.3120200   4.9717590  15.8138010  30.9493390   5.0603650  15.8911130
  30.2608910   4.3985190  15.8261120  31.6699410   4.6141920  16.3359590
  27.7336920  18.7104530  14.3908830  27.6595620  19.6139670  14.6981200
  26.8315760  18.3916430  14.3630900  28.2822250  17.8763040   2.0135190
  29.1773040  18.2148010   2.0353950  28.3139880  17.1542450   1.3859470
  19.1364210  16.0379120   7.6942450  19.4667220  15.1700180   7.4621090
  19.5655210  16.2437640   8.5247410  23.7326130  14.3688130   5.3544420
  23.4321670  14.2453100   6.2548330  23.6263620  13.5096720   4.9460150
  19.6254420  16.9049710  10.4324080  19.1885410  17.0850510  11.2648230
  20.1932100  17.6624330  10.2905800  35.2616600  16.4066710  14.7201390
  34.6618590  16.4659270  13.9765310  35.3910500  15.4671690  14.8498240
  35.9574510  10.8932010   2.5605300  36.7193420  11.4628660   2.6664990
  35.9728880  10.3259210   3.3313610  19.4578850   9.4169940   6.7912960
  18.8027690   9.1481580   6.1472660  20.2956800   9.3074420   6.3414940
  36.9634480  11.7482110   7.4047230  37.3343310  10.9649430   6.9983200
  37.6036410  12.4371210   7.2264530  33.9468240  13.1318690  12.8177550
  33.1328080  13.5615850  13.0803340  34.3542440  13.7437100  12.2046600
  35.9059020   9.1235370   4.7107250  35.5302620   8.3563300   4.2788540
  35.1762140   9.5058070   5.1982180  20.4954780   9.8022510  11.3316300
  20.8627820   9.7149910  12.2112320  19.9265600   9.0389060  11.2323160
  35.2958640   8.2706890  14.3446770  35.0644730   8.0419640  13.4444720
  35.5563190   9.1906440  14.2991660  20.0470780   6.7131600  15.2374720
  19.1526830   6.6798360  15.5768430  20.5868330   6.9118390  16.0025970
  33.7346710   3.4963320  17.1226470  34.6116890   3.5046720  17.5060470
  33.7467550   2.7594160  16.5118820  18.6716930   6.6268870   2.7338290
  17.7681010   6.8899070   2.5589950  19.1557550   6.8980040   1.9538250
  35.1809980   7.3492860   8.0114490  35.7047460   6.8555510   7.3804660
  35.7669400   7.4843220   8.7562060  35.3599700   7.4332730  11.5334040
  34.4102410   7.3996270  11.6479030  35.5412710   8.3432840  11.2983810
  34.6709950   6.6066210   3.9506900  35.1669070   6.3737080   4.7355780
  34.4726020   5.7678050   3.5344540  36.0997110   5.2427160   6.4844580
  35.9896390   5.0883200   7.4226850  36.8604700   4.7148100   6.2419990
  37.0625870   3.8445740   2.3507430  36.2677370   3.7790860   2.8800340
  37.2669150   4.7796380   2.3392780  34.0044290  17.8837290   6.3445820
  34.6003360  17.5621860   5.6680240  34.2622440  17.4109110   7.1359090
  21.9106860  14.3155200  16.4936450  21.8676490  13.9448110  17.3750910
  22.0417870  15.2532770  16.6338270  25.6112890  15.8714790  12.0946170
  25.3704250  16.1389350  11.2076690  26.5515530  16.0420520  12.1497030
  27.8167310   2.3347480  15.8502680  27.7556200   2.9269310  16.5998090
  28.7567690   2.2273440  15.7052940  36.8717050  17.8909170  12.8956810
  36.3775330  18.2878040  12.1783940  36.2630340  17.2658380  13.2894090
  21.7494890  17.2617450  13.6134230  21.1555210  17.1302150  14.3524270
  21.7418730  16.4255590  13.1476330  32.1021890   2.7620550  13.2005980
  31.7735250   1.9472310  12.8207710  33.0504190   2.7190360  13.0771670
  34.5556500  18.5332590  10.1743550  34.0959470  19.2848400   9.8001570
  33.9268960  17.8139060  10.1158350  21.3807120  14.6275830  12.5642270
  20.6541180  14.0081120  12.4968220  21.4416270  15.0216440  11.6940350
  24.9852220  16.8420830   9.3491680  25.5017240  16.2308190   8.8239940
  25.6349600  17.3449610   9.8402690  27.7247720  17.7329320  10.1760660
  28.0125530  17.4783620   9.2993670  28.2370940  17.1806680  10.7666230
  33.4945800   2.1742620   8.8006260  33.9353890   2.1187720   7.9527860
  33.2253390   3.0900630   8.8716440  19.6637120  17.9450220   5.7739030
  19.4959160  17.3120900   6.4720920  18.7971630  18.1509620   5.4233220
  20.2865140   1.7767000   3.2770890  21.0444500   1.8895880   2.7034920
  19.8242310   2.6136200   3.2314320  26.8278950   3.8906270   6.2673200
  26.0153460   3.5163160   5.9269080  27.3320590   3.1351350   6.5694390
  21.2699820  16.6383450   3.2189170  20.7447440  17.0191480   2.5151130
  21.1944400  17.2634220   3.9398880  27.7920080  18.6545420  17.5428860
  28.7187390  18.4189690  17.5864820  27.7770510  19.4817420  17.0614890
  36.0265140  18.1970990   4.5403110  36.2017330  17.5108730   3.8964030
  35.3286710  18.7218040   4.1479780  23.8692790  18.5865830   2.0938420
  24.6011610  18.3025110   1.5462310  24.1286460  18.3479110   2.9837800
  23.0307580  14.7030560   2.0984750  22.4016460  15.1715660   2.6470580
  23.1455410  13.8579780   2.5330940  34.3597640  17.8815280  17.3669900
  35.1522960  17.3864510  17.1595860  34.6530790  18.5605420  17.9745510
  11.7113810  65.0766690  63.3459910  11.6307860  64.1621300  63.0751620
  11.2978230  65.5733760  62.6399620   9.8431850  66.8545710  65.2269180
   9.0673950  66.3746150  65.5167750  10.4944780  66.1751360  65.0525340
   3.8597680  67.1665520  66.1044940   3.0282560  66.9114230  66.5041450
   4.4678660  67.2376290  66.8402860  13.8639280  71.2605900  64.0068310
  13.4020810  70.4893140  64.3355480  14.6764830  71.2871970  64.5120760
   3.8398940  71.2005610  66.3002960   4.1426980  70.3103350  66.1213180
   4.5842530  71.7575830  66.0725210   9.2840840  69.5302900  65.2339340
   9.2149120  68.5892840  65.0728470  10.0460700  69.6204310  65.8061910
  10.3146010  62.3373280  65.4608270  10.6910830  61.4645160  65.3481940
  10.2165520  62.6731980  64.5698710   4.4451020  60.7098910  60.9225710
   4.5517770  61.6102640  61.2294470   3.5343380  60.6616880  60.6320360
  14.0970130  59.8323720  62.3936610  14.9179750  59.3420290  62.4362090
  14.1304210  60.4221380  63.1468450   2.0934180  62.6317920  66.1678300
   2.7744290  62.8956290  66.7865700   1.7782230  61.7918790  66.5016310
   6.2858750  63.6785280  65.2550890   6.7936970  64.1766250  65.8955910
   6.8171990  62.9020480  65.0790250  18.3869680  61.8490470  68.9580240
  17.6821850  62.2372180  68.4395350  18.6527600  62.5440760  69.5601170
   4.5694850  58.3183840  69.5214310   4.5713290  58.8356230  68.7160210
   3.7399160  57.8414020  69.4984240  10.9565940  68.4303150  61.0204210
  10.3383210  68.8952600  60.4566930  11.4689190  69.1230630  61.4373720
   5.8197700  67.9579020  67.6987810   5.4867080  68.5847940  68.3408880
   5.9964380  68.4840900  66.9189480  14.3331610  61.7724100  65.1664150
  13.6287180  62.0608990  65.7467260  14.6943770  62.5824210  64.8063710
   4.2510180  60.0293800  67.5284760   4.5926990  60.8735850  67.2338630
   3.3125990  60.1777540  67.6450100   5.0316800  69.9259820  69.5136990
   5.6490800  70.6010900  69.2321440   4.1709920  70.3347800  69.4224490
  15.9494390  71.3899230  67.4291630  15.2657910  72.0598340  67.4208300
  16.4888680  71.5879880  66.6636490  17.4018530  61.2178890  65.5573360
  16.4543440  61.2517870  65.6888790  17.7268520  62.0317840  65.9422720
   7.9338070  57.5176070  63.8529350   8.2413050  56.9622960  63.1364850
   7.0038770  57.6520530  63.6702340  14.7798550  69.9559580  61.2326980
  14.6694880  69.0133910  61.3576400  14.7766800  70.3175220  62.1189740
  12.8838570  68.1373200  67.4719420  13.3007360  67.9233310  66.6372880
  13.6078390  68.3945990  68.0428040  10.3218830  65.5824900  60.5889470
   9.3948110  65.5162280  60.8177940  10.4743650  66.5205030  60.4744710
  10.3087910  61.8541900  57.5856630   9.3691580  62.0155860  57.6709090
  10.6271170  62.5727580  57.0392620  16.8300670  66.5360420  67.5635660
  16.0019300  66.6053510  67.0885790  17.4251150  67.1214730  67.0951490
  14.3516120  67.1445200  61.0924720  13.7328540  66.8064750  60.4451020
  14.3340570  66.5004960  61.8003910  13.7942680  63.3229740  68.5090530
  13.3813860  64.1483450  68.7630520  13.0618630  62.7374780  68.3166890
   5.9275470  66.1089640  63.3709200   5.5232470  65.3966890  62.8755100
   6.0138590  65.7642880  64.2597240   6.3957170  69.7957200  65.5348410
   6.0985460  69.1902670  64.8556190   7.3456990  69.8334510  65.4237770
   4.6404090  62.8832850  67.1508240   5.1918680  62.9928190  66.3761490
   5.1547600  63.2570450  67.8663470  12.5280820  66.3832010  58.0997470
  12.9674100  65.5454440  57.9535290  13.2409240  67.0161410  58.1861610
   4.3146820  66.4052210  70.7613580   4.1754590  67.2775010  71.1300980
   3.4328180  66.0625020  70.6161520  10.6376200  71.3228080  62.0678710
  11.0772110  72.0652410  61.6534100  10.5763090  71.5654650  62.9917670
  16.1097960  57.6374820  56.4138510  15.7970620  57.7301650  57.3137580
  16.8710430  58.2155850  56.3635940   2.6280100  65.0034620  60.8715850
   2.5077700  65.7296710  60.2597120   2.3180990  64.2337530  60.3943760
  17.4675240  70.3213860  71.4262910  17.5938300  70.0825740  70.5080090
  17.5096620  69.4898400  71.8984990  13.0072510  71.8184760  57.9839720
  12.3137670  71.8162050  57.3242000  13.7495370  71.3944080  57.5533890
   5.0943760  58.3469690  64.2539520   4.6511910  59.1279230  63.9224040
   5.6528750  58.6699580  64.9610460   9.3813570  61.2138210  69.8574840
   8.9192940  61.4221230  70.6694780   8.9791680  60.3997560  69.5545510
  14.3818080  62.4347160  70.9871500  13.5311670  62.1352910  71.3080570
  14.2219870  62.6789170  70.0755320   8.2102580  57.9680390  59.1345350
   7.5856760  57.9640260  59.8598660   8.1232700  57.1011350  58.7381320
   7.1319660  58.8917020  66.1129120   7.4291990  59.7979850  66.0321140
   7.6805220  58.4035800  65.4988690   4.8857980  63.4703260  61.9820770
   4.6598900  63.2540430  62.8867390   4.1050510  63.9031720  61.6366740
  12.1155740  63.4766630  60.5811420  11.5164630  64.2002430  60.3975040
  12.6635350  63.4143410  59.7987870  10.7220610  62.1130170  62.6114700
  11.1150180  62.4302370  61.7983390  11.0837460  61.2342050  62.7259220
   2.4567730  60.7802510  70.8014820   2.0631120  61.6277720  71.0087600
   1.7686130  60.1428880  70.9923460  11.3075750  64.7035920  66.7065480
  10.5756870  65.2122730  67.0555580  10.9100090  63.8865900  66.4054260
   7.7453140  61.3790120  65.1117970   7.7489200  60.9380070  64.2622510
   8.6404260  61.7007450  65.2189790   3.5955520  61.2616610  64.0712180
   3.2555570  61.7391840  64.8279230   2.8332840  60.8081730  63.7113280
   7.8073290  62.3802200  58.1024730   7.9286110  62.3388680  59.0510550
   7.4221800  63.2426350  57.9471460  11.7701660  60.1569600  66.1188420
  11.7874400  60.6078250  66.9630270  11.5217240  59.2575240  66.3321860
   6.8194790  64.6903340  57.5008030   6.2511690  64.2421590  56.8743940
   7.5283790  65.0496120  56.9673180   8.0461110  65.4391900  66.8583380
   8.4131240  64.9650470  67.6044720   7.8566170  66.3133470  67.1991720
   5.8360480  64.4800540  69.1767590   5.5317550  65.3592520  69.4017950
   6.7906940  64.5400330  69.2125030   4.3642270  68.6861530  59.7734440
   3.5904530  68.1459150  59.6133160   5.0936900  68.1668140  59.4352200
  15.1230250  67.6826890  65.5660830  15.8429370  68.1782180  65.1756940
  14.9212070  67.0044780  64.9214700  10.5840190  59.0764850  59.7090220
   9.7704800  58.5778020  59.6335530  10.3902140  59.9163100  59.2926570
  10.5049050  67.7535950  71.4529830  10.4386360  66.8331620  71.1987420
   9.8754190  67.8511390  72.1674470  13.2988580  63.4484500  58.0052380
  14.1868200  63.7601730  57.8303720  13.2693670  62.5756750  57.6132960
   4.4079670  68.3541910  63.4113250   4.9258340  67.5510170  63.3570140
   3.9563690  68.2921050  64.2530080   9.2949170  69.6208190  58.6840550
   9.6364870  70.3650420  58.1883870   8.4661880  69.9339310  59.0465380
  10.4365780  70.5756520  71.2033630  10.4510320  69.6437480  70.9852540
   9.7290880  70.6616280  71.8423400  15.5702850  64.7596340  57.4732240
  15.4866570  65.1910560  56.6228680  16.2897040  65.2194690  57.9059060
  16.6476990  67.2163860  70.5502210  15.9225180  67.8092640  70.3531600
  17.1752450  67.2087400  69.7515580  16.5990100  71.6138600  60.2014370
  15.9566260  70.9594220  60.4758090  16.2120760  72.0193690  59.4255040
  12.1776580  68.9424030  64.0486060  12.5300400  68.3452160  63.3887430
  11.2938910  68.6168260  64.2194310   8.2639860  69.7021720  61.4556470
   8.9510990  70.2490930  61.8364060   7.4772280  70.2462450  61.4906080
   7.5667070  66.7067750  61.0681830   8.0229850  67.5173000  61.2942020
   7.2155280  66.3890890  61.9000320   9.8699680  72.2174090  68.2974130
  10.5141900  72.4233470  68.9747550  10.2329120  71.4562490  67.8444980
   3.4678850  57.0505400  61.5404350   3.3393480  57.0423300  62.4889270
   2.6440870  57.3888490  61.1895360  11.1431760  70.2206440  67.0151580
  11.7853990  69.5199600  67.1283750  11.6681110  71.0004880  66.8348470
  14.9887480  70.5055060  56.7390720  14.7625060  69.7885500  57.3315360
  14.5983680  70.2567500  55.9012470  12.9169380  71.0201340  70.2187640
  13.2525620  71.6068030  70.8965560  11.9969720  70.8894050  70.4485430
  14.5703730  68.4227000  58.4004880  14.2825430  68.8839690  59.1882760
  15.3655900  67.9624770  58.6689100   6.7872130  71.9153120  58.3308850
   6.7782230  72.6482810  57.7153360   5.8670490  71.6684700  58.4235810
   2.3878770  67.1368010  59.0755610   1.7806720  67.8766910  59.0850910
   2.8628120  67.2267370  58.2493810  11.9611560  61.3018830  68.7512500
  12.3292380  60.4814040  69.0792070  11.1009760  61.3620720  69.1668150
  15.3273590  60.2575770  59.5600060  14.6986750  60.3621440  58.8458290
  14.8325510  60.4772550  60.3493940   9.7731730  71.9781360  56.9934040
   9.8743710  71.7745350  56.0636020   8.8733470  71.7239640  57.1981820
   7.2957620  62.5361720  60.9757940   6.5873770  63.0048060  61.4171550
   7.5802100  61.8783730  61.6103130   8.9213550  63.9558420  68.9750470
   9.4198800  64.4304240  69.6402320   9.0636500  63.0321940  69.1820500
  11.3273050  59.2612380  62.4153730  11.2040830  59.2798510  61.4663240
  12.2757610  59.3091320  62.5352130   5.4992640  60.8446800  58.3508650
   6.3483170  61.2816950  58.2848840   5.1323910  61.1567060  59.1780710
  16.1280410  60.1726380  69.8178860  15.6254010  60.9131780  70.1572670
  16.9437070  60.5610380  69.5015650  14.4202420  65.4159560  63.2640220
  13.4792560  65.4309790  63.4387910  14.7346490  64.6295520  63.7100520
   4.3984060  67.0979160  56.8244180   5.1647330  66.9860520  57.3869610
   4.4758750  66.4017130  56.1720950   3.0930820  64.5304230  57.5077070
   3.1734410  63.5831740  57.6194470   3.9850570  64.8611110  57.6137730
  16.4228000  72.5868410  64.9394480  16.5475420  73.4099580  65.4118290
  17.2893560  72.3759140  64.5918630   7.5225240  69.0733340  56.2979530
   7.4175880  68.4585690  57.0240910   7.3549460  68.5499230  55.5142540
  10.7627970  68.1353370  56.9021520  10.2138070  68.5822670  57.5464260
  11.3847230  67.6302620  57.4259190   6.4303090  67.0944290  58.7986820
   6.8519510  66.9284160  59.6418210   6.5553930  66.2844520  58.3041960
   4.5930510  63.0740840  71.6057800   4.0626970  62.5831790  70.9781140
   5.2618580  63.5025040  71.0715730   8.9430730  66.1181900  56.0463920
   9.4636390  65.4030920  55.6805070   9.5899130  66.7567770  56.3464430
  13.4908570  67.5410300  71.3698990  13.9049590  67.6955380  72.2189410
  12.5559570  67.6665520  71.5324770   5.0802810  60.0403210  71.6855090
   4.9859680  59.4223960  70.9605960   4.5000200  60.7669500  71.4585000
   7.8464250  58.5976450  68.7182480   7.3981550  58.6200710  67.8728030
   7.2129450  58.1995470  69.3152780   8.2523800  67.4930780  69.3394920
   8.6711910  68.3363510  69.1671160   7.3332430  67.6302820  69.1101700
  10.5887700  65.2246960  70.7232760  10.7083910  64.6288100  71.4627600
  11.4481700  65.2616650  70.3034060  12.9275600  65.7784150  69.2995270
  12.4010820  66.3026770  68.6960410  13.2706940  66.4111540  69.9305000
   5.3261990  63.1677520  55.7444980   5.1251050  62.3044880  56.1058320
   5.1554040  63.0810880  54.8066580  12.8050300  57.9785750  58.2731860
  13.0852590  57.1353650  58.6291280  12.0316030  58.2108860  58.7870610
   4.1244790  60.2678140  55.7322860   4.4270690  60.2745570  54.8242010
   4.8639380  59.9176000  56.2290520   7.3429720  59.2112760  56.7179060
   6.9951720  58.5336750  56.1381510   7.5442490  58.7502270  57.5322450
   3.1474920  69.5720560  56.5652660   3.5849790  70.1150230  57.2210240
   3.6322650  68.7467510  56.5749000   4.9582640  70.6918600  61.6774890
   4.6578180  70.5683570  62.5778800   4.8520130  69.8327190  61.2690620
  16.4873110  72.7297180  71.0431860  15.8875100  72.7889740  70.2995780
  16.6167010  71.7902160  71.1728710  17.7274560  70.4715000  56.3801570
  16.8967520  70.5391650  56.8508800  17.9046390  71.3619120  56.0768430
  17.1831020  67.2162480  58.8835770  17.9449930  67.7859130  58.9895460
  17.1985390  66.6489680  59.6544080  18.1890990  68.0712580  63.7277700
  18.5599820  67.2879900  63.3213670  18.8292920  68.7601680  63.5495000
  15.1724750  69.4549160  69.1408020  14.3584590  69.8846320  69.4033810
  15.5798950  70.0667570  68.5277070  17.2350190  67.5096850  56.0408290
  17.5099030  68.4175730  55.9127510  17.0460930  67.4459380  56.9770280
  13.6325800  60.5341700  57.3361920  14.0510680  60.3472680  56.4958580
  13.3261860  59.6820750  57.6464850  17.1315530  65.4465840  61.0337720
  16.7559130  64.6793770  60.6019010  16.4018650  65.8288540  61.5212650
  16.5215150  64.5937360  70.6677240  16.2901240  64.3650110  69.7675190
  16.7819700  65.5136910  70.6222130  16.4066490  63.6723330  64.3344960
  16.9303970  63.1785980  63.7035130  16.9925910  63.8073690  65.0792530
  16.5856210  63.7563200  67.8564510  15.6358920  63.7226740  67.9709500
  16.7669220  64.6663310  67.6214280   2.0874810  58.0604210  56.0065790
   2.8102940  58.6013150  56.3247010   2.3599330  57.7867630  55.1307330
  15.8966460  62.9296680  60.2737370  16.3925580  62.6967550  61.0586250
  15.6982530  62.0908520  59.8575010   1.7767000  57.3110400  65.9088410
   2.4243190  56.7607780  65.4683570   2.1968840  57.5653550  66.7304220
  17.3253620  61.5657630  62.8075050  17.2152900  61.4113670  63.7457320
  18.0861210  61.0378570  62.5650460  15.6719340  57.5051760  69.2658050
  16.3091560  58.1185900  69.6317240  15.8194230  57.5412420  68.3207280
  18.2143890  59.3965550  56.0481190  19.1393200  59.2646730  55.8399480
  18.1919680  59.4758370  57.0017640  18.2882380  60.1676210  58.6737900
  17.4933880  60.1021330  59.2030810  18.4925660  61.1026850  58.6623250
   6.8369400  72.1945260  68.4176640   6.5960760  72.4619820  67.5307160
   7.7772040  72.3650990  68.4727500   2.9751400  73.5847920  69.9364700
   2.3811720  73.4532620  70.6754740   2.9675240  72.7486060  69.4706800
  12.4206420  56.8780150  68.1394730  11.5466260  57.2115260  67.9367660
  12.3117170  56.4053330  68.9646600  13.3278400  59.0851020  69.5236450
  12.9991760  58.2702780  69.1438180  14.2760700  59.0420830  69.4002140
   2.6063630  70.9506300  68.8872740   1.8797690  70.3311590  68.8198690
   2.6672780  71.3446910  68.0170820   6.2108730  73.1651300  65.6722150
   6.7273750  72.5538660  65.1470410   6.8606110  73.6680080  66.1633160
  10.1681240  57.7949990  67.0787640   9.3853030  58.2695490  67.3584400
   9.8744170  56.8904820  66.9700820  14.7202310  58.4973090  65.1236730
  15.1610400  58.4418190  64.2758330  14.4509900  59.4131100  65.1946910
  16.5840880  58.1288330  63.1345550  16.5229280  57.1849550  62.9876570
  17.3632910  58.2368420  63.6799010   8.0535460  60.2136740  62.5903670
   7.2409970  59.8393630  62.2499550   8.5577100  59.4581820  62.8924860
  12.5560440  56.8779190  63.8286740  13.1589810  57.4499400  64.3035260
  11.8153430  57.4418630  63.6060640  15.6995040  57.2800750  59.1027020
  15.8945670  58.1784200  59.3694450  14.9124910  57.0487830  59.5959970
   2.4956330  72.9613920  59.5419640   1.9703950  73.3421950  58.8381600
   2.4200910  73.5864690  60.2629350   3.8846800  58.6261520  58.1403330
   4.4139560  57.8391320  58.0111280   4.5175120  59.3052710  58.3738860
   6.0784640  58.3636660  61.1948720   5.4487380  57.6623970  61.3618850
   5.5389780  59.1240790  60.9781880   4.2564090  71.0261030  58.4215220
   3.6272970  71.4946130  58.9701050   4.3711920  70.1810250  58.8561410
  11.7113810  65.0766690  44.5716420  11.6307860  64.1621300  44.3008130
  11.2978230  65.5733760  43.8656130   9.8431850  66.8545710  46.4525690
   9.0673950  66.3746150  46.7424260  10.4944780  66.1751360  46.2781850
   3.8597680  67.1665520  47.3301450   3.0282560  66.9114230  47.7297960
   4.4678660  67.2376290  48.0659370  13.8639280  71.2605900  45.2324820
  13.4020810  70.4893140  45.5611990  14.6764830  71.2871970  45.7377270
   3.8398940  71.2005610  47.5259470   4.1426980  70.3103350  47.3469690
   4.5842530  71.7575830  47.2981720   9.2840840  69.5302900  46.4595850
   9.2149120  68.5892840  46.2984980  10.0460700  69.6204310  47.0318420
  10.3146010  62.3373280  46.6864780  10.6910830  61.4645160  46.5738450
  10.2165520  62.6731980  45.7955220   4.4451020  60.7098910  42.1482220
   4.5517770  61.6102640  42.4550980   3.5343380  60.6616880  41.8576870
  14.0970130  59.8323720  43.6193120  14.9179750  59.3420290  43.6618600
  14.1304210  60.4221380  44.3724960   2.0934180  62.6317920  47.3934810
   2.7744290  62.8956290  48.0122210   1.7782230  61.7918790  47.7272820
   6.2858750  63.6785280  46.4807400   6.7936970  64.1766250  47.1212420
   6.8171990  62.9020480  46.3046760  18.3869680  61.8490470  50.1836750
  17.6821850  62.2372180  49.6651860  18.6527600  62.5440760  50.7857680
   4.5694850  58.3183840  50.7470820   4.5713290  58.8356230  49.9416720
   3.7399160  57.8414020  50.7240750  10.9565940  68.4303150  42.2460720
  10.3383210  68.8952600  41.6823440  11.4689190  69.1230630  42.6630230
   5.8197700  67.9579020  48.9244320   5.4867080  68.5847940  49.5665390
   5.9964380  68.4840900  48.1445990  14.3331610  61.7724100  46.3920660
  13.6287180  62.0608990  46.9723770  14.6943770  62.5824210  46.0320220
   4.2510180  60.0293800  48.7541270   4.5926990  60.8735850  48.4595140
   3.3125990  60.1777540  48.8706610   5.0316800  69.9259820  50.7393500
   5.6490800  70.6010900  50.4577950   4.1709920  70.3347800  50.6481000
  15.9494390  71.3899230  48.6548140  15.2657910  72.0598340  48.6464810
  16.4888680  71.5879880  47.8893000  17.4018530  61.2178890  46.7829870
  16.4543440  61.2517870  46.9145300  17.7268520  62.0317840  47.1679230
   7.9338070  57.5176070  45.0785860   8.2413050  56.9622960  44.3621360
   7.0038770  57.6520530  44.8958850  14.7798550  69.9559580  42.4583490
  14.6694880  69.0133910  42.5832910  14.7766800  70.3175220  43.3446250
  12.8838570  68.1373200  48.6975930  13.3007360  67.9233310  47.8629390
  13.6078390  68.3945990  49.2684550  10.3218830  65.5824900  41.8145980
   9.3948110  65.5162280  42.0434450  10.4743650  66.5205030  41.7001220
  10.3087910  61.8541900  38.8113140   9.3691580  62.0155860  38.8965600
  10.6271170  62.5727580  38.2649130  16.8300670  66.5360420  48.7892170
  16.0019300  66.6053510  48.3142300  17.4251150  67.1214730  48.3208000
  14.3516120  67.1445200  42.3181230  13.7328540  66.8064750  41.6707530
  14.3340570  66.5004960  43.0260420  13.7942680  63.3229740  49.7347040
  13.3813860  64.1483450  49.9887030  13.0618630  62.7374780  49.5423400
   5.9275470  66.1089640  44.5965710   5.5232470  65.3966890  44.1011610
   6.0138590  65.7642880  45.4853750   6.3957170  69.7957200  46.7604920
   6.0985460  69.1902670  46.0812700   7.3456990  69.8334510  46.6494280
   4.6404090  62.8832850  48.3764750   5.1918680  62.9928190  47.6018000
   5.1547600  63.2570450  49.0919980   5.4875600  69.5338890  53.4112720
   4.5904130  69.7578860  53.6586120   5.5128470  69.6573830  52.4624120
  12.5280820  66.3832010  39.3253980  12.9674100  65.5454440  39.1791800
  13.2409240  67.0161410  39.4118120   4.3146820  66.4052210  51.9870090
   4.1754590  67.2775010  52.3557490   3.4328180  66.0625020  51.8418030
  10.6376200  71.3228080  43.2935220  11.0772110  72.0652410  42.8790610
  10.5763090  71.5654650  44.2174180   6.1127170  72.3473910  54.1955240
   6.0842600  72.7516860  53.3283670   5.9492140  71.4184270  54.0326840
  16.1097960  57.6374820  37.6395020  15.7970620  57.7301650  38.5394090
  16.8710430  58.2155850  37.5892450   2.6280100  65.0034620  42.0972360
   2.5077700  65.7296710  41.4853630   2.3180990  64.2337530  41.6200270
  18.0641990  73.1301010  55.4919410  18.5401710  73.6083900  56.1708490
  18.6849150  73.0618500  54.7664910  17.4675240  70.3213860  52.6519420
  17.5938300  70.0825740  51.7336600  17.5096620  69.4898400  53.1241500
  13.0072510  71.8184760  39.2096230  12.3137670  71.8162050  38.5498510
  13.7495370  71.3944080  38.7790400  17.3199250  62.3746320  53.6169160
  16.7043520  62.8825990  53.0884620  16.9995670  61.4744650  53.5595100
   5.0943760  58.3469690  45.4796030   4.6511910  59.1279230  45.1480550
   5.6528750  58.6699580  46.1866970   9.3813570  61.2138210  51.0831350
   8.9192940  61.4221230  51.8951290   8.9791680  60.3997560  50.7802020
  14.3818080  62.4347160  52.2128010  13.5311670  62.1352910  52.5337080
  14.2219870  62.6789170  51.3011830  11.4767790  63.9348910  54.3126800
  11.8021200  63.1012660  53.9729030  12.2648120  64.4577430  54.4605130
   8.2102580  57.9680390  40.3601860   7.5856760  57.9640260  41.0855170
   8.1232700  57.1011350  39.9637830   7.1319660  58.8917020  47.3385630
   7.4291990  59.7979850  47.2577650   7.6805220  58.4035800  46.7245200
   4.8857980  63.4703260  43.2077280   4.6598900  63.2540430  44.1123900
   4.1050510  63.9031720  42.8623250  12.1155740  63.4766630  41.8067930
  11.5164630  64.2002430  41.6231550  12.6635350  63.4143410  41.0244380
   7.3257190  64.3688840  53.8737550   7.2300790  63.4283570  53.7237950
   8.1689170  64.5903910  53.4785620  10.7220610  62.1130170  43.8371210
  11.1150180  62.4302370  43.0239900  11.0837460  61.2342050  43.9515730
   2.4567730  60.7802510  52.0271330   2.0631120  61.6277720  52.2344110
   1.7686130  60.1428880  52.2179970   9.0312780  60.8637480  55.0968070
   8.3411100  60.6709680  55.7314160   9.7745080  61.1472120  55.6292370
  11.3075750  64.7035920  47.9321990  10.5756870  65.2122730  48.2812090
  10.9100090  63.8865900  47.6310770   7.7453140  61.3790120  46.3374480
   7.7489200  60.9380070  45.4879020   8.6404260  61.7007450  46.4446300
   3.5955520  61.2616610  45.2968690   3.2555570  61.7391840  46.0535740
   2.8332840  60.8081730  44.9369790   7.8073290  62.3802200  39.3281240
   7.9286110  62.3388680  40.2767060   7.4221800  63.2426350  39.1727970
  11.7701660  60.1569600  47.3444930  11.7874400  60.6078250  48.1886780
  11.5217240  59.2575240  47.5578370   6.8194790  64.6903340  38.7264540
   6.2511690  64.2421590  38.1000450   7.5283790  65.0496120  38.1929690
  15.1972410  57.5701780  53.1831310  15.5218180  56.8391440  53.7089290
  15.2328920  57.2515420  52.2812300   8.0461110  65.4391900  48.0839890
   8.4131240  64.9650470  48.8301230   7.8566170  66.3133470  48.4248230
   5.8360480  64.4800540  50.4024100   5.5317550  65.3592520  50.6274460
   6.7906940  64.5400330  50.4381540   4.3642270  68.6861530  40.9990950
   3.5904530  68.1459150  40.8389670   5.0936900  68.1668140  40.6608710
  15.1230250  67.6826890  46.7917340  15.8429370  68.1782180  46.4013450
  14.9212070  67.0044780  46.1471210  10.5840190  59.0764850  40.9346730
   9.7704800  58.5778020  40.8592040  10.3902140  59.9163100  40.5183080
  10.5049050  67.7535950  52.6786340  10.4386360  66.8331620  52.4243930
   9.8754190  67.8511390  53.3930980  13.2988580  63.4484500  39.2308890
  14.1868200  63.7601730  39.0560230  13.2693670  62.5756750  38.8389470
   4.4079670  68.3541910  44.6369760   4.9258340  67.5510170  44.5826650
   3.9563690  68.2921050  45.4786590   9.2949170  69.6208190  39.9097060
   9.6364870  70.3650420  39.4140380   8.4661880  69.9339310  40.2721890
   5.0937330  65.7787520  54.4335010   4.7937470  65.9244700  53.5362830
   5.8648570  65.2192810  54.3408400  10.4365780  70.5756520  52.4290140
  10.4510320  69.6437480  52.2109050   9.7290880  70.6616280  53.0679910
  15.5702850  64.7596340  38.6988750  15.4866570  65.1910560  37.8485190
  16.2897040  65.2194690  39.1315570  16.6476990  67.2163860  51.7758720
  15.9225180  67.8092640  51.5788110  17.1752450  67.2087400  50.9772090
  16.5990100  71.6138600  41.4270880  15.9566260  70.9594220  41.7014600
  16.2120760  72.0193690  40.6511550  12.1776580  68.9424030  45.2742570
  12.5300400  68.3452160  44.6143940  11.2938910  68.6168260  45.4450820
   8.2639860  69.7021720  42.6812980   8.9510990  70.2490930  43.0620570
   7.4772280  70.2462450  42.7162590   7.5667070  66.7067750  42.2938340
   8.0229850  67.5173000  42.5198530   7.2155280  66.3890890  43.1256830
   9.8699680  72.2174090  49.5230640  10.5141900  72.4233470  50.2004060
  10.2329120  71.4562490  49.0701490   3.4678850  57.0505400  42.7660860
   3.3393480  57.0423300  43.7145780   2.6440870  57.3888490  42.4151870
  11.1431760  70.2206440  48.2408090  11.7853990  69.5199600  48.3540260
  11.6681110  71.0004880  48.0604980  14.9887480  70.5055060  37.9647230
  14.7625060  69.7885500  38.5571870  14.5983680  70.2567500  37.1268980
  12.9169380  71.0201340  51.4444150  13.2525620  71.6068030  52.1222070
  11.9969720  70.8894050  51.6741940  14.5703730  68.4227000  39.6261390
  14.2825430  68.8839690  40.4139270  15.3655900  67.9624770  39.8945610
   8.7457960  71.0692670  54.6132210   8.4254830  70.3501910  55.1577900
   8.0716320  71.7447740  54.6868270   6.7872130  71.9153120  39.5565360
   6.7782230  72.6482810  38.9409870   5.8670490  71.6684700  39.6492320
   2.3878770  67.1368010  40.3012120   1.7806720  67.8766910  40.3107420
   2.8628120  67.2267370  39.4750320  11.9611560  61.3018830  49.9769010
  12.3292380  60.4814040  50.3048580  11.1009760  61.3620720  50.3924660
  15.3273590  60.2575770  40.7856570  14.6986750  60.3621440  40.0714800
  14.8325510  60.4772550  41.5750450   9.7731730  71.9781360  38.2190550
   9.8743710  71.7745350  37.2892530   8.8733470  71.7239640  38.4238330
   7.2957620  62.5361720  42.2014450   6.5873770  63.0048060  42.6428060
   7.5802100  61.8783730  42.8359640   8.9213550  63.9558420  50.2006980
   9.4198800  64.4304240  50.8658830   9.0636500  63.0321940  50.4077010
  11.3273050  59.2612380  43.6410240  11.2040830  59.2798510  42.6919750
  12.2757610  59.3091320  43.7608640   5.4992640  60.8446800  39.5765160
   6.3483170  61.2816950  39.5105350   5.1323910  61.1567060  40.4037220
  16.1280410  60.1726380  51.0435370  15.6254010  60.9131780  51.3829180
  16.9437070  60.5610380  50.7272160  14.4202420  65.4159560  44.4896730
  13.4792560  65.4309790  44.6644420  14.7346490  64.6295520  44.9357030
   4.3984060  67.0979160  38.0500690   5.1647330  66.9860520  38.6126120
   4.4758750  66.4017130  37.3977460   3.0930820  64.5304230  38.7333580
   3.1734410  63.5831740  38.8450980   3.9850570  64.8611110  38.8394240
  16.4228000  72.5868410  46.1650990  16.5475420  73.4099580  46.6374800
  17.2893560  72.3759140  45.8175140  11.7368440  69.9725560  54.9729110
  11.1306600  69.9957160  54.2324860  11.4322550  69.2408600  55.5096360
   7.5225240  69.0733340  37.5236040   7.4175880  68.4585690  38.2497420
   7.3549460  68.5499230  36.7399050   7.6739560  67.7590140  53.5025270
   6.9085230  68.3275140  53.4179940   7.8555520  67.4666350  52.6093500
  10.7627970  68.1353370  38.1278030  10.2138070  68.5822670  38.7720770
  11.3847230  67.6302620  38.6515700  14.8162910  69.4895470  54.0600290
  15.5572380  69.8271230  53.5567750  14.0535590  69.6587530  53.5070060
   2.6524700  64.4948740  54.8639820   2.6930040  64.1962610  55.7725050
   3.5070200  64.8956350  54.7047340   6.4303090  67.0944290  40.0243330
   6.8519510  66.9284160  40.8674720   6.5553930  66.2844520  39.5298470
   4.5930510  63.0740840  52.8314310   4.0626970  62.5831790  52.2037650
   5.2618580  63.5025040  52.2972240   8.9430730  66.1181900  37.2720430
   9.4636390  65.4030920  36.9061580   9.5899130  66.7567770  37.5720940
  13.4908570  67.5410300  52.5955500  13.9049590  67.6955380  53.4445920
  12.5559570  67.6665520  52.7581280  13.9630740  64.8806460  54.5994650
  14.5451510  64.1258780  54.5115130  14.1392510  65.4113900  53.8226130
   5.0802810  60.0403210  52.9111600   4.9859680  59.4223960  52.1862470
   4.5000200  60.7669500  52.6841510   7.8464250  58.5976450  49.9438990
   7.3981550  58.6200710  49.0984540   7.2129450  58.1995470  50.5409290
   8.2523800  67.4930780  50.5651430   8.6711910  68.3363510  50.3927670
   7.3332430  67.6302820  50.3358210  10.5887700  65.2246960  51.9489270
  10.7083910  64.6288100  52.6884110  11.4481700  65.2616650  51.5290570
  12.9275600  65.7784150  50.5251780  12.4010820  66.3026770  49.9216920
  13.2706940  66.4111540  51.1561510   5.3261990  63.1677520  36.9701490
   5.1251050  62.3044880  37.3314830   5.1554040  63.0810880  36.0323090
   7.3556470  61.7668310  53.2065090   7.9456160  61.4584160  53.8942910
   6.5376710  61.2948060  53.3624990  12.1749900  61.3834120  53.4398110
  11.4865420  60.7215660  53.3748100  12.8955920  60.9372390  53.8846570
  12.8050300  57.9785750  39.4988370  13.0852590  57.1353650  39.8547790
  12.0316030  58.2108860  40.0127120   4.1244790  60.2678140  36.9579370
   4.4270690  60.2745570  36.0498520   4.8639380  59.9176000  37.4547030
   7.3429720  59.2112760  37.9435570   6.9951720  58.5336750  37.3638020
   7.5442490  58.7502270  38.7578960   3.1474920  69.5720560  37.7909170
   3.5849790  70.1150230  38.4466750   3.6322650  68.7467510  37.8005510
   4.9582640  70.6918600  42.9031400   4.6578180  70.5683570  43.8035310
   4.8520130  69.8327190  42.4947130  16.4873110  72.7297180  52.2688370
  15.8875100  72.7889740  51.5252290  16.6167010  71.7902160  52.3985220
  17.7274560  70.4715000  37.6058080  16.8967520  70.5391650  38.0765310
  17.9046390  71.3619120  37.3024940  17.1831020  67.2162480  40.1092280
  17.9449930  67.7859130  40.2151970  17.1985390  66.6489680  40.8800590
  18.1890990  68.0712580  44.9534210  18.5599820  67.2879900  44.5470180
  18.8292920  68.7601680  44.7751510  15.1724750  69.4549160  50.3664530
  14.3584590  69.8846320  50.6290320  15.5798950  70.0667570  49.7533580
  17.2350190  67.5096850  37.2664800  17.5099030  68.4175730  37.1384020
  17.0460930  67.4459380  38.2026790  13.6325800  60.5341700  38.5618430
  14.0510680  60.3472680  37.7215090  13.3261860  59.6820750  38.8721360
  17.1315530  65.4465840  42.2594230  16.7559130  64.6793770  41.8275520
  16.4018650  65.8288540  42.7469160  16.5215150  64.5937360  51.8933750
  16.2901240  64.3650110  50.9931700  16.7819700  65.5136910  51.8478640
  14.9603220  59.8193790  54.6713450  15.8373400  59.8277190  55.0547450
  14.9724060  59.0824630  54.0605800  16.4066490  63.6723330  45.5601470
  16.9303970  63.1785980  44.9291640  16.9925910  63.8073690  46.3049040
  16.5856210  63.7563200  49.0821020  15.6358920  63.7226740  49.1966010
  16.7669220  64.6663310  48.8470790   2.0874810  58.0604210  37.2322300
   2.8102940  58.6013150  37.5503520   2.3599330  57.7867630  36.3563840
  15.8966460  62.9296680  41.4993880  16.3925580  62.6967550  42.2842760
  15.6982530  62.0908520  41.0831520   1.7767000  57.3110400  47.1344920
   2.4243190  56.7607780  46.6940080   2.1968840  57.5653550  47.9560730
  17.3253620  61.5657630  44.0331560  17.2152900  61.4113670  44.9713830
  18.0861210  61.0378570  43.7906970  15.6719340  57.5051760  50.4914560
  16.3091560  58.1185900  50.8573750  15.8194230  57.5412420  49.5463790
  18.2143890  59.3965550  37.2737700  19.1393200  59.2646730  37.0655990
  18.1919680  59.4758370  38.2274150  18.2882380  60.1676210  39.8994410
  17.4933880  60.1021330  40.4287320  18.4925660  61.1026850  39.8879760
   3.1363370  70.6385670  54.0423430   3.0933000  70.2678580  54.9237890
   3.2674380  71.5763240  54.1825250   6.8369400  72.1945260  49.6433150
   6.5960760  72.4619820  48.7563670   7.7772040  72.3650990  49.6984010
   9.0423820  58.6577950  53.3989660   8.9812710  59.2499780  54.1485070
   9.9824200  58.5503910  53.2539920  11.6798380  58.3148010  53.0381950
  12.2938790  58.6327300  52.3763030  12.2247940  57.8296600  53.6577810
   2.2019640  56.9942270  53.1521010   2.7502630  56.8130320  52.3887120
   2.2674950  56.2036380  53.6877320   2.9751400  73.5847920  51.1621210
   2.3811720  73.4532620  51.9011250   2.9675240  72.7486060  50.6963310
  12.4206420  56.8780150  49.3651240  11.5466260  57.2115260  49.1624170
  12.3117170  56.4053330  50.1903110  13.3278400  59.0851020  50.7492960
  12.9991760  58.2702780  50.3694690  14.2760700  59.0420830  50.6258650
   2.6063630  70.9506300  50.1129250   1.8797690  70.3311590  50.0455200
   2.6672780  71.3446910  49.2427330   6.2108730  73.1651300  46.8978660
   6.7273750  72.5538660  46.3726920   6.8606110  73.6680080  47.3889670
  10.1681240  57.7949990  48.3044150   9.3853030  58.2695490  48.5840910
   9.8744170  56.8904820  48.1957330  14.7202310  58.4973090  46.3493240
  15.1610400  58.4418190  45.5014840  14.4509900  59.4131100  46.4203420
  16.5840880  58.1288330  44.3602060  16.5229280  57.1849550  44.2133080
  17.3632910  58.2368420  44.9055520   8.0535460  60.2136740  43.8160180
   7.2409970  59.8393630  43.4756060   8.5577100  59.4581820  44.1181370
  12.5560440  56.8779190  45.0543250  13.1589810  57.4499400  45.5291770
  11.8153430  57.4418630  44.8317150  15.6995040  57.2800750  40.3283530
  15.8945670  58.1784200  40.5950960  14.9124910  57.0487830  40.8216480
   2.4956330  72.9613920  40.7676150   1.9703950  73.3421950  40.0638110
   2.4200910  73.5864690  41.4885860   3.8846800  58.6261520  39.3659840
   4.4139560  57.8391320  39.2367790   4.5175120  59.3052710  39.5995370
   6.0784640  58.3636660  42.4205230   5.4487380  57.6623970  42.5875360
   5.5389780  59.1240790  42.2038390   6.2040200  57.6420640  54.8557720
   5.9224470  58.1454240  54.0918540   6.5859900  56.8442390  54.4899850
   4.2564090  71.0261030  39.6471730   3.6272970  71.4946130  40.1957560
   4.3711920  70.1810250  40.0817920  12.8055660  57.0574220  55.4338190
  12.6921110  57.3768830  56.3289710  13.6225400  57.4586730  55.1375470
  11.7113810  65.0766690  25.7972930  11.6307860  64.1621300  25.5264640
  11.2978230  65.5733760  25.0912640   9.8431850  66.8545710  27.6782200
   9.0673950  66.3746150  27.9680770  10.4944780  66.1751360  27.5038360
   3.8597680  67.1665520  28.5557960   3.0282560  66.9114230  28.9554470
   4.4678660  67.2376290  29.2915880  13.8639280  71.2605900  26.4581330
  13.4020810  70.4893140  26.7868500  14.6764830  71.2871970  26.9633780
   3.8398940  71.2005610  28.7515980   4.1426980  70.3103350  28.5726200
   4.5842530  71.7575830  28.5238230   9.2840840  69.5302900  27.6852360
   9.2149120  68.5892840  27.5241490  10.0460700  69.6204310  28.2574930
  10.3146010  62.3373280  27.9121290  10.6910830  61.4645160  27.7994960
  10.2165520  62.6731980  27.0211730   4.4451020  60.7098910  23.3738730
   4.5517770  61.6102640  23.6807490   3.5343380  60.6616880  23.0833380
  14.0970130  59.8323720  24.8449630  14.9179750  59.3420290  24.8875110
  14.1304210  60.4221380  25.5981470   2.0934180  62.6317920  28.6191320
   2.7744290  62.8956290  29.2378720   1.7782230  61.7918790  28.9529330
   6.2858750  63.6785280  27.7063910   6.7936970  64.1766250  28.3468930
   6.8171990  62.9020480  27.5303270  18.3869680  61.8490470  31.4093260
  17.6821850  62.2372180  30.8908370  18.6527600  62.5440760  32.0114190
   4.5694850  58.3183840  31.9727330   4.5713290  58.8356230  31.1673230
   3.7399160  57.8414020  31.9497260  10.9565940  68.4303150  23.4717230
  10.3383210  68.8952600  22.9079950  11.4689190  69.1230630  23.8886740
   5.8197700  67.9579020  30.1500830   5.4867080  68.5847940  30.7921900
   5.9964380  68.4840900  29.3702500  14.3331610  61.7724100  27.6177170
  13.6287180  62.0608990  28.1980280  14.6943770  62.5824210  27.2576730
   4.2510180  60.0293800  29.9797780   4.5926990  60.8735850  29.6851650
   3.3125990  60.1777540  30.0963120   5.0316800  69.9259820  31.9650010
   5.6490800  70.6010900  31.6834460   4.1709920  70.3347800  31.8737510
  15.9494390  71.3899230  29.8804650  15.2657910  72.0598340  29.8721320
  16.4888680  71.5879880  29.1149510  17.4018530  61.2178890  28.0086380
  16.4543440  61.2517870  28.1401810  17.7268520  62.0317840  28.3935740
   7.9338070  57.5176070  26.3042370   8.2413050  56.9622960  25.5877870
   7.0038770  57.6520530  26.1215360  14.7798550  69.9559580  23.6840000
  14.6694880  69.0133910  23.8089420  14.7766800  70.3175220  24.5702760
  12.8838570  68.1373200  29.9232440  13.3007360  67.9233310  29.0885900
  13.6078390  68.3945990  30.4941060  10.3218830  65.5824900  23.0402490
   9.3948110  65.5162280  23.2690960  10.4743650  66.5205030  22.9257730
  10.3087910  61.8541900  20.0369650   9.3691580  62.0155860  20.1222110
  10.6271170  62.5727580  19.4905640  16.8300670  66.5360420  30.0148680
  16.0019300  66.6053510  29.5398810  17.4251150  67.1214730  29.5464510
  14.3516120  67.1445200  23.5437740  13.7328540  66.8064750  22.8964040
  14.3340570  66.5004960  24.2516930  13.7942680  63.3229740  30.9603550
  13.3813860  64.1483450  31.2143540  13.0618630  62.7374780  30.7679910
   5.9275470  66.1089640  25.8222220   5.5232470  65.3966890  25.3268120
   6.0138590  65.7642880  26.7110260   6.3957170  69.7957200  27.9861430
   6.0985460  69.1902670  27.3069210   7.3456990  69.8334510  27.8750790
   4.6404090  62.8832850  29.6021260   5.1918680  62.9928190  28.8274510
   5.1547600  63.2570450  30.3176490   5.4875600  69.5338890  34.6369230
   4.5904130  69.7578860  34.8842630   5.5128470  69.6573830  33.6880630
  12.5280820  66.3832010  20.5510490  12.9674100  65.5454440  20.4048310
  13.2409240  67.0161410  20.6374630   4.3146820  66.4052210  33.2126600
   4.1754590  67.2775010  33.5814000   3.4328180  66.0625020  33.0674540
  10.6376200  71.3228080  24.5191730  11.0772110  72.0652410  24.1047120
  10.5763090  71.5654650  25.4430690   6.1127170  72.3473910  35.4211750
   6.0842600  72.7516860  34.5540180   5.9492140  71.4184270  35.2583350
  16.1097960  57.6374820  18.8651530  15.7970620  57.7301650  19.7650600
  16.8710430  58.2155850  18.8148960   2.6280100  65.0034620  23.3228870
   2.5077700  65.7296710  22.7110140   2.3180990  64.2337530  22.8456780
  18.0641990  73.1301010  36.7175920  18.5401710  73.6083900  37.3965000
  18.6849150  73.0618500  35.9921420  17.4675240  70.3213860  33.8775930
  17.5938300  70.0825740  32.9593110  17.5096620  69.4898400  34.3498010
  13.0072510  71.8184760  20.4352740  12.3137670  71.8162050  19.7755020
  13.7495370  71.3944080  20.0046910  17.3199250  62.3746320  34.8425670
  16.7043520  62.8825990  34.3141130  16.9995670  61.4744650  34.7851610
   5.0943760  58.3469690  26.7052540   4.6511910  59.1279230  26.3737060
   5.6528750  58.6699580  27.4123480   9.3813570  61.2138210  32.3087860
   8.9192940  61.4221230  33.1207800   8.9791680  60.3997560  32.0058530
  14.3818080  62.4347160  33.4384520  13.5311670  62.1352910  33.7593590
  14.2219870  62.6789170  32.5268340  11.4767790  63.9348910  35.5383310
  11.8021200  63.1012660  35.1985540  12.2648120  64.4577430  35.6861640
   8.2102580  57.9680390  21.5858370   7.5856760  57.9640260  22.3111680
   8.1232700  57.1011350  21.1894340   7.1319660  58.8917020  28.5642140
   7.4291990  59.7979850  28.4834160   7.6805220  58.4035800  27.9501710
   4.8857980  63.4703260  24.4333790   4.6598900  63.2540430  25.3380410
   4.1050510  63.9031720  24.0879760  12.1155740  63.4766630  23.0324440
  11.5164630  64.2002430  22.8488060  12.6635350  63.4143410  22.2500890
   7.3257190  64.3688840  35.0994060   7.2300790  63.4283570  34.9494460
   8.1689170  64.5903910  34.7042130  10.7220610  62.1130170  25.0627720
  11.1150180  62.4302370  24.2496410  11.0837460  61.2342050  25.1772240
   2.4567730  60.7802510  33.2527840   2.0631120  61.6277720  33.4600620
   1.7686130  60.1428880  33.4436480   9.0312780  60.8637480  36.3224580
   8.3411100  60.6709680  36.9570670   9.7745080  61.1472120  36.8548880
  11.3075750  64.7035920  29.1578500  10.5756870  65.2122730  29.5068600
  10.9100090  63.8865900  28.8567280   7.7453140  61.3790120  27.5630990
   7.7489200  60.9380070  26.7135530   8.6404260  61.7007450  27.6702810
   3.5955520  61.2616610  26.5225200   3.2555570  61.7391840  27.2792250
   2.8332840  60.8081730  26.1626300   7.8073290  62.3802200  20.5537750
   7.9286110  62.3388680  21.5023570   7.4221800  63.2426350  20.3984480
  11.7701660  60.1569600  28.5701440  11.7874400  60.6078250  29.4143290
  11.5217240  59.2575240  28.7834880   6.8194790  64.6903340  19.9521050
   6.2511690  64.2421590  19.3256960   7.5283790  65.0496120  19.4186200
  15.1972410  57.5701780  34.4087820  15.5218180  56.8391440  34.9345800
  15.2328920  57.2515420  33.5068810   8.0461110  65.4391900  29.3096400
   8.4131240  64.9650470  30.0557740   7.8566170  66.3133470  29.6504740
   5.8360480  64.4800540  31.6280610   5.5317550  65.3592520  31.8530970
   6.7906940  64.5400330  31.6638050   4.3642270  68.6861530  22.2247460
   3.5904530  68.1459150  22.0646180   5.0936900  68.1668140  21.8865220
  15.1230250  67.6826890  28.0173850  15.8429370  68.1782180  27.6269960
  14.9212070  67.0044780  27.3727720  10.5840190  59.0764850  22.1603240
   9.7704800  58.5778020  22.0848550  10.3902140  59.9163100  21.7439590
  10.5049050  67.7535950  33.9042850  10.4386360  66.8331620  33.6500440
   9.8754190  67.8511390  34.6187490  13.2988580  63.4484500  20.4565400
  14.1868200  63.7601730  20.2816740  13.2693670  62.5756750  20.0645980
   4.4079670  68.3541910  25.8626270   4.9258340  67.5510170  25.8083160
   3.9563690  68.2921050  26.7043100   9.2949170  69.6208190  21.1353570
   9.6364870  70.3650420  20.6396890   8.4661880  69.9339310  21.4978400
   5.0937330  65.7787520  35.6591520   4.7937470  65.9244700  34.7619340
   5.8648570  65.2192810  35.5664910  10.4365780  70.5756520  33.6546650
  10.4510320  69.6437480  33.4365560   9.7290880  70.6616280  34.2936420
  15.5702850  64.7596340  19.9245260  15.4866570  65.1910560  19.0741700
  16.2897040  65.2194690  20.3572080  16.6476990  67.2163860  33.0015230
  15.9225180  67.8092640  32.8044620  17.1752450  67.2087400  32.2028600
  16.5990100  71.6138600  22.6527390  15.9566260  70.9594220  22.9271110
  16.2120760  72.0193690  21.8768060  12.1776580  68.9424030  26.4999080
  12.5300400  68.3452160  25.8400450  11.2938910  68.6168260  26.6707330
   8.2639860  69.7021720  23.9069490   8.9510990  70.2490930  24.2877080
   7.4772280  70.2462450  23.9419100   7.5667070  66.7067750  23.5194850
   8.0229850  67.5173000  23.7455040   7.2155280  66.3890890  24.3513340
   9.8699680  72.2174090  30.7487150  10.5141900  72.4233470  31.4260570
  10.2329120  71.4562490  30.2958000   3.4678850  57.0505400  23.9917370
   3.3393480  57.0423300  24.9402290   2.6440870  57.3888490  23.6408380
  11.1431760  70.2206440  29.4664600  11.7853990  69.5199600  29.5796770
  11.6681110  71.0004880  29.2861490  14.9887480  70.5055060  19.1903740
  14.7625060  69.7885500  19.7828380  14.5983680  70.2567500  18.3525490
  12.9169380  71.0201340  32.6700660  13.2525620  71.6068030  33.3478580
  11.9969720  70.8894050  32.8998450  14.5703730  68.4227000  20.8517900
  14.2825430  68.8839690  21.6395780  15.3655900  67.9624770  21.1202120
   8.7457960  71.0692670  35.8388720   8.4254830  70.3501910  36.3834410
   8.0716320  71.7447740  35.9124780   6.7872130  71.9153120  20.7821870
   6.7782230  72.6482810  20.1666380   5.8670490  71.6684700  20.8748830
   2.3878770  67.1368010  21.5268630   1.7806720  67.8766910  21.5363930
   2.8628120  67.2267370  20.7006830  11.9611560  61.3018830  31.2025520
  12.3292380  60.4814040  31.5305090  11.1009760  61.3620720  31.6181170
  15.3273590  60.2575770  22.0113080  14.6986750  60.3621440  21.2971310
  14.8325510  60.4772550  22.8006960   9.7731730  71.9781360  19.4447060
   9.8743710  71.7745350  18.5149040   8.8733470  71.7239640  19.6494840
   7.2957620  62.5361720  23.4270960   6.5873770  63.0048060  23.8684570
   7.5802100  61.8783730  24.0616150   8.9213550  63.9558420  31.4263490
   9.4198800  64.4304240  32.0915340   9.0636500  63.0321940  31.6333520
  11.3273050  59.2612380  24.8666750  11.2040830  59.2798510  23.9176260
  12.2757610  59.3091320  24.9865150   5.4992640  60.8446800  20.8021670
   6.3483170  61.2816950  20.7361860   5.1323910  61.1567060  21.6293730
  16.1280410  60.1726380  32.2691880  15.6254010  60.9131780  32.6085690
  16.9437070  60.5610380  31.9528670  14.4202420  65.4159560  25.7153240
  13.4792560  65.4309790  25.8900930  14.7346490  64.6295520  26.1613540
   4.3984060  67.0979160  19.2757200   5.1647330  66.9860520  19.8382630
   4.4758750  66.4017130  18.6233970   3.0930820  64.5304230  19.9590090
   3.1734410  63.5831740  20.0707490   3.9850570  64.8611110  20.0650750
  16.4228000  72.5868410  27.3907500  16.5475420  73.4099580  27.8631310
  17.2893560  72.3759140  27.0431650  11.7368440  69.9725560  36.1985620
  11.1306600  69.9957160  35.4581370  11.4322550  69.2408600  36.7352870
   7.5225240  69.0733340  18.7492550   7.4175880  68.4585690  19.4753930
   7.3549460  68.5499230  17.9655560   7.6739560  67.7590140  34.7281780
   6.9085230  68.3275140  34.6436450   7.8555520  67.4666350  33.8350010
  10.7627970  68.1353370  19.3534540  10.2138070  68.5822670  19.9977280
  11.3847230  67.6302620  19.8772210  14.8162910  69.4895470  35.2856800
  15.5572380  69.8271230  34.7824260  14.0535590  69.6587530  34.7326570
   2.6524700  64.4948740  36.0896330   2.6930040  64.1962610  36.9981560
   3.5070200  64.8956350  35.9303850   6.4303090  67.0944290  21.2499840
   6.8519510  66.9284160  22.0931230   6.5553930  66.2844520  20.7554980
   4.5930510  63.0740840  34.0570820   4.0626970  62.5831790  33.4294160
   5.2618580  63.5025040  33.5228750   8.9430730  66.1181900  18.4976940
   9.4636390  65.4030920  18.1318090   9.5899130  66.7567770  18.7977450
  13.4908570  67.5410300  33.8212010  13.9049590  67.6955380  34.6702430
  12.5559570  67.6665520  33.9837790  13.9630740  64.8806460  35.8251160
  14.5451510  64.1258780  35.7371640  14.1392510  65.4113900  35.0482640
   5.0802810  60.0403210  34.1368110   4.9859680  59.4223960  33.4118980
   4.5000200  60.7669500  33.9098020   7.8464250  58.5976450  31.1695500
   7.3981550  58.6200710  30.3241050   7.2129450  58.1995470  31.7665800
   8.2523800  67.4930780  31.7907940   8.6711910  68.3363510  31.6184180
   7.3332430  67.6302820  31.5614720  10.5887700  65.2246960  33.1745780
  10.7083910  64.6288100  33.9140620  11.4481700  65.2616650  32.7547080
  12.9275600  65.7784150  31.7508290  12.4010820  66.3026770  31.1473430
  13.2706940  66.4111540  32.3818020   5.3261990  63.1677520  18.1958000
   5.1251050  62.3044880  18.5571340   5.1554040  63.0810880  17.2579600
   7.3556470  61.7668310  34.4321600   7.9456160  61.4584160  35.1199420
   6.5376710  61.2948060  34.5881500  12.1749900  61.3834120  34.6654620
  11.4865420  60.7215660  34.6004610  12.8955920  60.9372390  35.1103080
  12.8050300  57.9785750  20.7244880  13.0852590  57.1353650  21.0804300
  12.0316030  58.2108860  21.2383630   4.1244790  60.2678140  18.1835880
   4.4270690  60.2745570  17.2755030   4.8639380  59.9176000  18.6803540
   7.3429720  59.2112760  19.1692080   6.9951720  58.5336750  18.5894530
   7.5442490  58.7502270  19.9835470   3.1474920  69.5720560  19.0165680
   3.5849790  70.1150230  19.6723260   3.6322650  68.7467510  19.0262020
   4.9582640  70.6918600  24.1287910   4.6578180  70.5683570  25.0291820
   4.8520130  69.8327190  23.7203640  16.4873110  72.7297180  33.4944880
  15.8875100  72.7889740  32.7508800  16.6167010  71.7902160  33.6241730
  17.7274560  70.4715000  18.8314590  16.8967520  70.5391650  19.3021820
  17.9046390  71.3619120  18.5281450  17.1831020  67.2162480  21.3348790
  17.9449930  67.7859130  21.4408480  17.1985390  66.6489680  22.1057100
  18.1890990  68.0712580  26.1790720  18.5599820  67.2879900  25.7726690
  18.8292920  68.7601680  26.0008020  15.1724750  69.4549160  31.5921040
  14.3584590  69.8846320  31.8546830  15.5798950  70.0667570  30.9790090
  17.2350190  67.5096850  18.4921310  17.5099030  68.4175730  18.3640530
  17.0460930  67.4459380  19.4283300  13.6325800  60.5341700  19.7874940
  14.0510680  60.3472680  18.9471600  13.3261860  59.6820750  20.0977870
  17.1315530  65.4465840  23.4850740  16.7559130  64.6793770  23.0532030
  16.4018650  65.8288540  23.9725670  16.5215150  64.5937360  33.1190260
  16.2901240  64.3650110  32.2188210  16.7819700  65.5136910  33.0735150
  14.9603220  59.8193790  35.8969960  15.8373400  59.8277190  36.2803960
  14.9724060  59.0824630  35.2862310  16.4066490  63.6723330  26.7857980
  16.9303970  63.1785980  26.1548150  16.9925910  63.8073690  27.5305550
  16.5856210  63.7563200  30.3077530  15.6358920  63.7226740  30.4222520
  16.7669220  64.6663310  30.0727300   2.0874810  58.0604210  18.4578810
   2.8102940  58.6013150  18.7760030   2.3599330  57.7867630  17.5820350
  15.8966460  62.9296680  22.7250390  16.3925580  62.6967550  23.5099270
  15.6982530  62.0908520  22.3088030   1.7767000  57.3110400  28.3601430
   2.4243190  56.7607780  27.9196590   2.1968840  57.5653550  29.1817240
  17.3253620  61.5657630  25.2588070  17.2152900  61.4113670  26.1970340
  18.0861210  61.0378570  25.0163480  15.6719340  57.5051760  31.7171070
  16.3091560  58.1185900  32.0830260  15.8194230  57.5412420  30.7720300
  18.2143890  59.3965550  18.4994210  19.1393200  59.2646730  18.2912500
  18.1919680  59.4758370  19.4530660  18.2882380  60.1676210  21.1250920
  17.4933880  60.1021330  21.6543830  18.4925660  61.1026850  21.1136270
   3.1363370  70.6385670  35.2679940   3.0933000  70.2678580  36.1494400
   3.2674380  71.5763240  35.4081760   6.8369400  72.1945260  30.8689660
   6.5960760  72.4619820  29.9820180   7.7772040  72.3650990  30.9240520
   9.0423820  58.6577950  34.6246170   8.9812710  59.2499780  35.3741580
   9.9824200  58.5503910  34.4796430  11.6798380  58.3148010  34.2638460
  12.2938790  58.6327300  33.6019540  12.2247940  57.8296600  34.8834320
   2.2019640  56.9942270  34.3777520   2.7502630  56.8130320  33.6143630
   2.2674950  56.2036380  34.9133830   2.9751400  73.5847920  32.3877720
   2.3811720  73.4532620  33.1267760   2.9675240  72.7486060  31.9219820
  12.4206420  56.8780150  30.5907750  11.5466260  57.2115260  30.3880680
  12.3117170  56.4053330  31.4159620  13.3278400  59.0851020  31.9749470
  12.9991760  58.2702780  31.5951200  14.2760700  59.0420830  31.8515160
   2.6063630  70.9506300  31.3385760   1.8797690  70.3311590  31.2711710
   2.6672780  71.3446910  30.4683840   6.2108730  73.1651300  28.1235170
   6.7273750  72.5538660  27.5983430   6.8606110  73.6680080  28.6146180
  10.1681240  57.7949990  29.5300660   9.3853030  58.2695490  29.8097420
   9.8744170  56.8904820  29.4213840  14.7202310  58.4973090  27.5749750
  15.1610400  58.4418190  26.7271350  14.4509900  59.4131100  27.6459930
  16.5840880  58.1288330  25.5858570  16.5229280  57.1849550  25.4389590
  17.3632910  58.2368420  26.1312030   8.0535460  60.2136740  25.0416690
   7.2409970  59.8393630  24.7012570   8.5577100  59.4581820  25.3437880
  12.5560440  56.8779190  26.2799760  13.1589810  57.4499400  26.7548280
  11.8153430  57.4418630  26.0573660  15.6995040  57.2800750  21.5540040
  15.8945670  58.1784200  21.8207470  14.9124910  57.0487830  22.0472990
   2.4956330  72.9613920  21.9932660   1.9703950  73.3421950  21.2894620
   2.4200910  73.5864690  22.7142370   3.8846800  58.6261520  20.5916350
   4.4139560  57.8391320  20.4624300   4.5175120  59.3052710  20.8251880
   6.0784640  58.3636660  23.6461740   5.4487380  57.6623970  23.8131870
   5.5389780  59.1240790  23.4294900   6.2040200  57.6420640  36.0814230
   5.9224470  58.1454240  35.3175050   6.5859900  56.8442390  35.7156360
   4.2564090  71.0261030  20.8728240   3.6272970  71.4946130  21.4214070
   4.3711920  70.1810250  21.3074430  12.8055660  57.0574220  36.6594700
  12.6921110  57.3768830  37.5546220  13.6225400  57.4586730  36.3631980
  11.7113810  65.0766690   7.0229440  11.6307860  64.1621300   6.7521150
  11.2978230  65.5733760   6.3169150   9.8431850  66.8545710   8.9038710
   9.0673950  66.3746150   9.1937280  10.4944780  66.1751360   8.7294870
   3.8597680  67.1665520   9.7814470   3.0282560  66.9114230  10.1810980
   4.4678660  67.2376290  10.5172390  13.8639280  71.2605900   7.6837840
  13.4020810  70.4893140   8.0125010  14.6764830  71.2871970   8.1890290
   3.8398940  71.2005610   9.9772490   4.1426980  70.3103350   9.7982710
   4.5842530  71.7575830   9.7494740   9.2840840  69.5302900   8.9108870
   9.2149120  68.5892840   8.7498000  10.0460700  69.6204310   9.4831440
  10.3146010  62.3373280   9.1377800  10.6910830  61.4645160   9.0251470
  10.2165520  62.6731980   8.2468240   4.4451020  60.7098910   4.5995240
   4.5517770  61.6102640   4.9064000   3.5343380  60.6616880   4.3089890
  14.0970130  59.8323720   6.0706140  14.9179750  59.3420290   6.1131620
  14.1304210  60.4221380   6.8237980   2.0934180  62.6317920   9.8447830
   2.7744290  62.8956290  10.4635230   1.7782230  61.7918790  10.1785840
   6.2858750  63.6785280   8.9320420   6.7936970  64.1766250   9.5725440
   6.8171990  62.9020480   8.7559780  18.3869680  61.8490470  12.6349770
  17.6821850  62.2372180  12.1164880  18.6527600  62.5440760  13.2370700
   4.5694850  58.3183840  13.1983840   4.5713290  58.8356230  12.3929740
   3.7399160  57.8414020  13.1753770  10.9565940  68.4303150   4.6973740
  10.3383210  68.8952600   4.1336460  11.4689190  69.1230630   5.1143250
   5.8197700  67.9579020  11.3757340   5.4867080  68.5847940  12.0178410
   5.9964380  68.4840900  10.5959010  14.3331610  61.7724100   8.8433680
  13.6287180  62.0608990   9.4236790  14.6943770  62.5824210   8.4833240
   4.2510180  60.0293800  11.2054290   4.5926990  60.8735850  10.9108160
   3.3125990  60.1777540  11.3219630   5.0316800  69.9259820  13.1906520
   5.6490800  70.6010900  12.9090970   4.1709920  70.3347800  13.0994020
  15.9494390  71.3899230  11.1061160  15.2657910  72.0598340  11.0977830
  16.4888680  71.5879880  10.3406020  17.4018530  61.2178890   9.2342890
  16.4543440  61.2517870   9.3658320  17.7268520  62.0317840   9.6192250
   7.9338070  57.5176070   7.5298880   8.2413050  56.9622960   6.8134380
   7.0038770  57.6520530   7.3471870  14.7798550  69.9559580   4.9096510
  14.6694880  69.0133910   5.0345930  14.7766800  70.3175220   5.7959270
  12.8838570  68.1373200  11.1488950  13.3007360  67.9233310  10.3142410
  13.6078390  68.3945990  11.7197570  10.3218830  65.5824900   4.2659000
   9.3948110  65.5162280   4.4947470  10.4743650  66.5205030   4.1514240
  16.8300670  66.5360420  11.2405190  16.0019300  66.6053510  10.7655320
  17.4251150  67.1214730  10.7721020  14.3516120  67.1445200   4.7694250
  13.7328540  66.8064750   4.1220550  14.3340570  66.5004960   5.4773440
  13.7942680  63.3229740  12.1860060  13.3813860  64.1483450  12.4400050
  13.0618630  62.7374780  11.9936420   5.9275470  66.1089640   7.0478730
   5.5232470  65.3966890   6.5524630   6.0138590  65.7642880   7.9366770
   6.3957170  69.7957200   9.2117940   6.0985460  69.1902670   8.5325720
   7.3456990  69.8334510   9.1007300   4.6404090  62.8832850  10.8277770
   5.1918680  62.9928190  10.0531020   5.1547600  63.2570450  11.5433000
   5.4875600  69.5338890  15.8625740   4.5904130  69.7578860  16.1099140
   5.5128470  69.6573830  14.9137140  12.5280820  66.3832010   1.7767000
  12.9674100  65.5454440   1.6304820  13.2409240  67.0161410   1.8631140
   4.3146820  66.4052210  14.4383110   4.1754590  67.2775010  14.8070510
   3.4328180  66.0625020  14.2931050  10.6376200  71.3228080   5.7448240
  11.0772110  72.0652410   5.3303630  10.5763090  71.5654650   6.6687200
   6.1127170  72.3473910  16.6468260   6.0842600  72.7516860  15.7796690
   5.9492140  71.4184270  16.4839860   2.6280100  65.0034620   4.5485380
   2.5077700  65.7296710   3.9366650   2.3180990  64.2337530   4.0713290
  18.0641990  73.1301010  17.9432430  18.5401710  73.6083900  18.6221510
  18.6849150  73.0618500  17.2177930  17.4675240  70.3213860  15.1032440
  17.5938300  70.0825740  14.1849620  17.5096620  69.4898400  15.5754520
  17.3199250  62.3746320  16.0682180  16.7043520  62.8825990  15.5397640
  16.9995670  61.4744650  16.0108120   5.0943760  58.3469690   7.9309050
   4.6511910  59.1279230   7.5993570   5.6528750  58.6699580   8.6379990
   9.3813570  61.2138210  13.5344370   8.9192940  61.4221230  14.3464310
   8.9791680  60.3997560  13.2315040  14.3818080  62.4347160  14.6641030
  13.5311670  62.1352910  14.9850100  14.2219870  62.6789170  13.7524850
  11.4767790  63.9348910  16.7639820  11.8021200  63.1012660  16.4242050
  12.2648120  64.4577430  16.9118150   8.2102580  57.9680390   2.8114880
   7.5856760  57.9640260   3.5368190   8.1232700  57.1011350   2.4150850
   7.1319660  58.8917020   9.7898650   7.4291990  59.7979850   9.7090670
   7.6805220  58.4035800   9.1758220   4.8857980  63.4703260   5.6590300
   4.6598900  63.2540430   6.5636920   4.1050510  63.9031720   5.3136270
  12.1155740  63.4766630   4.2580950  11.5164630  64.2002430   4.0744570
  12.6635350  63.4143410   3.4757400   7.3257190  64.3688840  16.3250570
   7.2300790  63.4283570  16.1750970   8.1689170  64.5903910  15.9298640
  10.7220610  62.1130170   6.2884230  11.1150180  62.4302370   5.4752920
  11.0837460  61.2342050   6.4028750   2.4567730  60.7802510  14.4784350
   2.0631120  61.6277720  14.6857130   1.7686130  60.1428880  14.6692990
   9.0312780  60.8637480  17.5481090   8.3411100  60.6709680  18.1827180
   9.7745080  61.1472120  18.0805390  11.3075750  64.7035920  10.3835010
  10.5756870  65.2122730  10.7325110  10.9100090  63.8865900  10.0823790
   7.7453140  61.3790120   8.7887500   7.7489200  60.9380070   7.9392040
   8.6404260  61.7007450   8.8959320   3.5955520  61.2616610   7.7481710
   3.2555570  61.7391840   8.5048760   2.8332840  60.8081730   7.3882810
   7.8073290  62.3802200   1.7794260   7.9286110  62.3388680   2.7280080
   7.4221800  63.2426350   1.6240990  11.7701660  60.1569600   9.7957950
  11.7874400  60.6078250  10.6399800  11.5217240  59.2575240  10.0091390
  15.1972410  57.5701780  15.6344330  15.5218180  56.8391440  16.1602310
  15.2328920  57.2515420  14.7325320   8.0461110  65.4391900  10.5352910
   8.4131240  64.9650470  11.2814250   7.8566170  66.3133470  10.8761250
   5.8360480  64.4800540  12.8537120   5.5317550  65.3592520  13.0787480
   6.7906940  64.5400330  12.8894560   4.3642270  68.6861530   3.4503970
   3.5904530  68.1459150   3.2902690   5.0936900  68.1668140   3.1121730
  15.1230250  67.6826890   9.2430360  15.8429370  68.1782180   8.8526470
  14.9212070  67.0044780   8.5984230  10.5840190  59.0764850   3.3859750
   9.7704800  58.5778020   3.3105060  10.3902140  59.9163100   2.9696100
  10.5049050  67.7535950  15.1299360  10.4386360  66.8331620  14.8756950
   9.8754190  67.8511390  15.8444000   4.4079670  68.3541910   7.0882780
   4.9258340  67.5510170   7.0339670   3.9563690  68.2921050   7.9299610
   9.2949170  69.6208190   2.3610080   9.6364870  70.3650420   1.8653400
   8.4661880  69.9339310   2.7234910   5.0937330  65.7787520  16.8848030
   4.7937470  65.9244700  15.9875850   5.8648570  65.2192810  16.7921420
  10.4365780  70.5756520  14.8803160  10.4510320  69.6437480  14.6622070
   9.7290880  70.6616280  15.5192930  16.6476990  67.2163860  14.2271740
  15.9225180  67.8092640  14.0301130  17.1752450  67.2087400  13.4285110
  16.5990100  71.6138600   3.8783900  15.9566260  70.9594220   4.1527620
  16.2120760  72.0193690   3.1024570  12.1776580  68.9424030   7.7255590
  12.5300400  68.3452160   7.0656960  11.2938910  68.6168260   7.8963840
   8.2639860  69.7021720   5.1326000   8.9510990  70.2490930   5.5133590
   7.4772280  70.2462450   5.1675610   7.5667070  66.7067750   4.7451360
   8.0229850  67.5173000   4.9711550   7.2155280  66.3890890   5.5769850
   9.8699680  72.2174090  11.9743660  10.5141900  72.4233470  12.6517080
  10.2329120  71.4562490  11.5214510   3.4678850  57.0505400   5.2173880
   3.3393480  57.0423300   6.1658800   2.6440870  57.3888490   4.8664890
  11.1431760  70.2206440  10.6921110  11.7853990  69.5199600  10.8053280
  11.6681110  71.0004880  10.5118000  12.9169380  71.0201340  13.8957170
  13.2525620  71.6068030  14.5735090  11.9969720  70.8894050  14.1254960
  14.5703730  68.4227000   2.0774410  14.2825430  68.8839690   2.8652290
  15.3655900  67.9624770   2.3458630   8.7457960  71.0692670  17.0645230
   8.4254830  70.3501910  17.6090920   8.0716320  71.7447740  17.1381290
   6.7872130  71.9153120   2.0078380   6.7782230  72.6482810   1.3922890
   5.8670490  71.6684700   2.1005340   2.3878770  67.1368010   2.7525140
   1.7806720  67.8766910   2.7620440   2.8628120  67.2267370   1.9263340
  11.9611560  61.3018830  12.4282030  12.3292380  60.4814040  12.7561600
  11.1009760  61.3620720  12.8437680  15.3273590  60.2575770   3.2369590
  14.6986750  60.3621440   2.5227820  14.8325510  60.4772550   4.0263470
   7.2957620  62.5361720   4.6527470   6.5873770  63.0048060   5.0941080
   7.5802100  61.8783730   5.2872660   8.9213550  63.9558420  12.6520000
   9.4198800  64.4304240  13.3171850   9.0636500  63.0321940  12.8590030
  11.3273050  59.2612380   6.0923260  11.2040830  59.2798510   5.1432770
  12.2757610  59.3091320   6.2121660   5.4992640  60.8446800   2.0278180
   6.3483170  61.2816950   1.9618370   5.1323910  61.1567060   2.8550240
  16.1280410  60.1726380  13.4948390  15.6254010  60.9131780  13.8342200
  16.9437070  60.5610380  13.1785180  14.4202420  65.4159560   6.9409750
  13.4792560  65.4309790   7.1157440  14.7346490  64.6295520   7.3870050
  16.4228000  72.5868410   8.6164010  16.5475420  73.4099580   9.0887820
  17.2893560  72.3759140   8.2688160  11.7368440  69.9725560  17.4242130
  11.1306600  69.9957160  16.6837880  11.4322550  69.2408600  17.9609380
   7.6739560  67.7590140  15.9538290   6.9085230  68.3275140  15.8692960
   7.8555520  67.4666350  15.0606520  14.8162910  69.4895470  16.5113310
  15.5572380  69.8271230  16.0080770  14.0535590  69.6587530  15.9583080
   2.6524700  64.4948740  17.3152840   2.6930040  64.1962610  18.2238070
   3.5070200  64.8956350  17.1560360   6.4303090  67.0944290   2.4756350
   6.8519510  66.9284160   3.3187740   6.5553930  66.2844520   1.9811490
   4.5930510  63.0740840  15.2827330   4.0626970  62.5831790  14.6550670
   5.2618580  63.5025040  14.7485260  13.4908570  67.5410300  15.0468520
  13.9049590  67.6955380  15.8958940  12.5559570  67.6665520  15.2094300
  13.9630740  64.8806460  17.0507670  14.5451510  64.1258780  16.9628150
  14.1392510  65.4113900  16.2739150   5.0802810  60.0403210  15.3624620
   4.9859680  59.4223960  14.6375490   4.5000200  60.7669500  15.1354530
   7.8464250  58.5976450  12.3952010   7.3981550  58.6200710  11.5497560
   7.2129450  58.1995470  12.9922310   8.2523800  67.4930780  13.0164450
   8.6711910  68.3363510  12.8440690   7.3332430  67.6302820  12.7871230
  10.5887700  65.2246960  14.4002290  10.7083910  64.6288100  15.1397130
  11.4481700  65.2616650  13.9803590  12.9275600  65.7784150  12.9764800
  12.4010820  66.3026770  12.3729940  13.2706940  66.4111540  13.6074530
   7.3556470  61.7668310  15.6578110   7.9456160  61.4584160  16.3455930
   6.5376710  61.2948060  15.8138010  12.1749900  61.3834120  15.8911130
  11.4865420  60.7215660  15.8261120  12.8955920  60.9372390  16.3359590
  12.8050300  57.9785750   1.9501390  13.0852590  57.1353650   2.3060810
  12.0316030  58.2108860   2.4640140   4.9582640  70.6918600   5.3544420
   4.6578180  70.5683570   6.2548330   4.8520130  69.8327190   4.9460150
  16.4873110  72.7297180  14.7201390  15.8875100  72.7889740  13.9765310
  16.6167010  71.7902160  14.8498240  17.1831020  67.2162480   2.5605300
  17.9449930  67.7859130   2.6664990  17.1985390  66.6489680   3.3313610
  18.1890990  68.0712580   7.4047230  18.5599820  67.2879900   6.9983200
  18.8292920  68.7601680   7.2264530  15.1724750  69.4549160  12.8177550
  14.3584590  69.8846320  13.0803340  15.5798950  70.0667570  12.2046600
  17.1315530  65.4465840   4.7107250  16.7559130  64.6793770   4.2788540
  16.4018650  65.8288540   5.1982180  16.5215150  64.5937360  14.3446770
  16.2901240  64.3650110  13.4444720  16.7819700  65.5136910  14.2991660
  14.9603220  59.8193790  17.1226470  15.8373400  59.8277190  17.5060470
  14.9724060  59.0824630  16.5118820  16.4066490  63.6723330   8.0114490
  16.9303970  63.1785980   7.3804660  16.9925910  63.8073690   8.7562060
  16.5856210  63.7563200  11.5334040  15.6358920  63.7226740  11.6479030
  16.7669220  64.6663310  11.2983810  15.8966460  62.9296680   3.9506900
  16.3925580  62.6967550   4.7355780  15.6982530  62.0908520   3.5344540
   1.7767000  57.3110400   9.5857940   2.4243190  56.7607780   9.1453100
   2.1968840  57.5653550  10.4073750  17.3253620  61.5657630   6.4844580
  17.2152900  61.4113670   7.4226850  18.0861210  61.0378570   6.2419990
  15.6719340  57.5051760  12.9427580  16.3091560  58.1185900  13.3086770
  15.8194230  57.5412420  11.9976810  18.2882380  60.1676210   2.3507430
  17.4933880  60.1021330   2.8800340  18.4925660  61.1026850   2.3392780
   3.1363370  70.6385670  16.4936450   3.0933000  70.2678580  17.3750910
   3.2674380  71.5763240  16.6338270   6.8369400  72.1945260  12.0946170
   6.5960760  72.4619820  11.2076690   7.7772040  72.3650990  12.1497030
   9.0423820  58.6577950  15.8502680   8.9812710  59.2499780  16.5998090
   9.9824200  58.5503910  15.7052940  11.6798380  58.3148010  15.4894970
  12.2938790  58.6327300  14.8276050  12.2247940  57.8296600  16.1090830
   2.2019640  56.9942270  15.6034030   2.7502630  56.8130320  14.8400140
   2.2674950  56.2036380  16.1390340   2.9751400  73.5847920  13.6134230
   2.3811720  73.4532620  14.3524270   2.9675240  72.7486060  13.1476330
  12.4206420  56.8780150  11.8164260  11.5466260  57.2115260  11.6137190
  12.3117170  56.4053330  12.6416130  13.3278400  59.0851020  13.2005980
  12.9991760  58.2702780  12.8207710  14.2760700  59.0420830  13.0771670
   2.6063630  70.9506300  12.5642270   1.8797690  70.3311590  12.4968220
   2.6672780  71.3446910  11.6940350   6.2108730  73.1651300   9.3491680
   6.7273750  72.5538660   8.8239940   6.8606110  73.6680080   9.8402690
  10.1681240  57.7949990  10.7557170   9.3853030  58.2695490  11.0353930
   9.8744170  56.8904820  10.6470350  14.7202310  58.4973090   8.8006260
  15.1610400  58.4418190   7.9527860  14.4509900  59.4131100   8.8716440
  16.5840880  58.1288330   6.8115080  16.5229280  57.1849550   6.6646100
  17.3632910  58.2368420   7.3568540   8.0535460  60.2136740   6.2673200
   7.2409970  59.8393630   5.9269080   8.5577100  59.4581820   6.5694390
  12.5560440  56.8779190   7.5056270  13.1589810  57.4499400   7.9804790
  11.8153430  57.4418630   7.2830170  15.6995040  57.2800750   2.7796550
  15.8945670  58.1784200   3.0463980  14.9124910  57.0487830   3.2729500
   2.4956330  72.9613920   3.2189170   1.9703950  73.3421950   2.5151130
   2.4200910  73.5864690   3.9398880   3.8846800  58.6261520   1.8172860
   4.4139560  57.8391320   1.6880810   4.5175120  59.3052710   2.0508390
   6.0784640  58.3636660   4.8718250   5.4487380  57.6623970   5.0388380
   5.5389780  59.1240790   4.6551410   6.2040200  57.6420640  17.3070740
   5.9224470  58.1454240  16.5431560   6.5859900  56.8442390  16.9412870
   4.2564090  71.0261030   2.0984750   3.6272970  71.4946130   2.6470580
   4.3711920  70.1810250   2.5330940  12.8055660  57.0574220  17.8851210
  12.6921110  57.3768830  18.7802730  13.6225400  57.4586730  17.5888490
  11.7113810  46.3023200  63.3459910  11.6307860  45.3877810  63.0751620
  11.2978230  46.7990270  62.6399620   9.8431850  48.0802220  65.2269180
   9.0673950  47.6002660  65.5167750  10.4944780  47.4007870  65.0525340
   3.8597680  48.3922030  66.1044940   3.0282560  48.1370740  66.5041450
   4.4678660  48.4632800  66.8402860  13.8639280  52.4862410  64.0068310
  13.4020810  51.7149650  64.3355480  14.6764830  52.5128480  64.5120760
   3.8398940  52.4262120  66.3002960   4.1426980  51.5359860  66.1213180
   4.5842530  52.9832340  66.0725210  10.0902590  54.7720420  63.6272300
   9.4714030  55.2277920  63.0566740  10.9454370  54.9271880  63.2262000
   9.2840840  50.7559410  65.2339340   9.2149120  49.8149350  65.0728470
  10.0460700  50.8460820  65.8061910  10.3146010  43.5629790  65.4608270
  10.6910830  42.6901670  65.3481940  10.2165520  43.8988490  64.5698710
   4.4451020  41.9355420  60.9225710   4.5517770  42.8359150  61.2294470
   3.5343380  41.8873390  60.6320360  14.0970130  41.0580230  62.3936610
  14.9179750  40.5676800  62.4362090  14.1304210  41.6477890  63.1468450
   2.0934180  43.8574430  66.1678300   2.7744290  44.1212800  66.7865700
   1.7782230  43.0175300  66.5016310   6.2858750  44.9041790  65.2550890
   6.7936970  45.4022760  65.8955910   6.8171990  44.1276990  65.0790250
  18.3869680  43.0746980  68.9580240  17.6821850  43.4628690  68.4395350
  18.6527600  43.7697270  69.5601170   4.5694850  39.5440350  69.5214310
   4.5713290  40.0612740  68.7160210   3.7399160  39.0670530  69.4984240
  10.9565940  49.6559660  61.0204210  10.3383210  50.1209110  60.4566930
  11.4689190  50.3487140  61.4373720   5.8197700  49.1835530  67.6987810
   5.4867080  49.8104450  68.3408880   5.9964380  49.7097410  66.9189480
  14.3331610  42.9980610  65.1664150  13.6287180  43.2865500  65.7467260
  14.6943770  43.8080720  64.8063710   4.2510180  41.2550310  67.5284760
   4.5926990  42.0992360  67.2338630   3.3125990  41.4034050  67.6450100
   5.0316800  51.1516330  69.5136990   5.6490800  51.8267410  69.2321440
   4.1709920  51.5604310  69.4224490  15.9494390  52.6155740  67.4291630
  15.2657910  53.2854850  67.4208300  16.4888680  52.8136390  66.6636490
  17.4018530  42.4435400  65.5573360  16.4543440  42.4774380  65.6888790
  17.7268520  43.2574350  65.9422720   7.9338070  38.7432580  63.8529350
   8.2413050  38.1879470  63.1364850   7.0038770  38.8777040  63.6702340
  13.4853130  54.4599870  66.1436810  13.4980290  54.0562160  65.2759070
  12.9328350  55.2347160  66.0398240  14.7798550  51.1816090  61.2326980
  14.6694880  50.2390420  61.3576400  14.7766800  51.5431730  62.1189740
  12.8838570  49.3629710  67.4719420  13.3007360  49.1489820  66.6372880
  13.6078390  49.6202500  68.0428040  10.3218830  46.8081410  60.5889470
   9.3948110  46.7418790  60.8177940  10.4743650  47.7461540  60.4744710
  10.3087910  43.0798410  57.5856630   9.3691580  43.2412370  57.6709090
  10.6271170  43.7984090  57.0392620  16.8300670  47.7616930  67.5635660
  16.0019300  47.8310020  67.0885790  17.4251150  48.3471240  67.0951490
  14.3516120  48.3701710  61.0924720  13.7328540  48.0321260  60.4451020
  14.3340570  47.7261470  61.8003910  13.7942680  44.5486250  68.5090530
  13.3813860  45.3739960  68.7630520  13.0618630  43.9631290  68.3166890
   5.9275470  47.3346150  63.3709200   5.5232470  46.6223400  62.8755100
   6.0138590  46.9899390  64.2597240   6.3957170  51.0213710  65.5348410
   6.0985460  50.4159180  64.8556190   7.3456990  51.0591020  65.4237770
   4.6404090  44.1089360  67.1508240   5.1918680  44.2184700  66.3761490
   5.1547600  44.4826960  67.8663470  14.4842780  54.5945580  69.1971510
  14.0073340  55.4017770  69.0044120  13.8004570  53.9423910  69.3497720
  12.5280820  47.6088520  58.0997470  12.9674100  46.7710950  57.9535290
  13.2409240  48.2417920  58.1861610   4.3146820  47.6308720  70.7613580
   4.1754590  48.5031520  71.1300980   3.4328180  47.2881530  70.6161520
  10.6376200  52.5484590  62.0678710  11.0772110  53.2908920  61.6534100
  10.5763090  52.7911160  62.9917670  16.1097960  38.8631330  56.4138510
  15.7970620  38.9558160  57.3137580  16.8710430  39.4412360  56.3635940
   2.6280100  46.2291130  60.8715850   2.5077700  46.9553220  60.2597120
   2.3180990  45.4594040  60.3943760  17.4675240  51.5470370  71.4262910
  17.5938300  51.3082250  70.5080090  17.5096620  50.7154910  71.8984990
  11.3291980  55.2498370  69.9957720  11.8436650  55.1606380  70.7980150
  10.4861060  55.5958070  70.2885630  13.3046380  55.5353710  59.4241720
  13.1447520  55.2456650  60.3223550  13.1393090  54.7593840  58.8886950
   5.7834760  55.3152240  61.2013340   5.6077240  54.3987780  60.9881140
   4.9290500  55.6739530  61.4411140  13.0072510  53.0441270  57.9839720
  12.3137670  53.0418560  57.3242000  13.7495370  52.6200590  57.5533890
  12.5722440  54.6703980  62.0588210  13.0279390  53.8893360  62.3726830
  12.9114960  55.3810800  62.6029390   5.0943760  39.5726200  64.2539520
   4.6511910  40.3535740  63.9224040   5.6528750  39.8956090  64.9610460
   9.3813570  42.4394720  69.8574840   8.9192940  42.6477740  70.6694780
   8.9791680  41.6254070  69.5545510  14.3818080  43.6603670  70.9871500
  13.5311670  43.3609420  71.3080570  14.2219870  43.9045680  70.0755320
   8.2102580  39.1936900  59.1345350   7.5856760  39.1896770  59.8598660
   8.1232700  38.3267860  58.7381320   7.1319660  40.1173530  66.1129120
   7.4291990  41.0236360  66.0321140   7.6805220  39.6292310  65.4988690
   4.8857980  44.6959770  61.9820770   4.6598900  44.4796940  62.8867390
   4.1050510  45.1288230  61.6366740  12.1155740  44.7023140  60.5811420
  11.5164630  45.4258940  60.3975040  12.6635350  44.6399920  59.7987870
  10.7220610  43.3386680  62.6114700  11.1150180  43.6558880  61.7983390
  11.0837460  42.4598560  62.7259220   2.4567730  42.0059020  70.8014820
   2.0631120  42.8534230  71.0087600   1.7686130  41.3685390  70.9923460
  11.3075750  45.9292430  66.7065480  10.5756870  46.4379240  67.0555580
  10.9100090  45.1122410  66.4054260   7.7453140  42.6046630  65.1117970
   7.7489200  42.1636580  64.2622510   8.6404260  42.9263960  65.2189790
   3.5955520  42.4873120  64.0712180   3.2555570  42.9648350  64.8279230
   2.8332840  42.0338240  63.7113280   7.8073290  43.6058710  58.1024730
   7.9286110  43.5645190  59.0510550   7.4221800  44.4682860  57.9471460
  11.7701660  41.3826110  66.1188420  11.7874400  41.8334760  66.9630270
  11.5217240  40.4831750  66.3321860   6.8194790  45.9159850  57.5008030
   6.2511690  45.4678100  56.8743940   7.5283790  46.2752630  56.9673180
   8.0461110  46.6648410  66.8583380   8.4131240  46.1906980  67.6044720
   7.8566170  47.5389980  67.1991720   5.8360480  45.7057050  69.1767590
   5.5317550  46.5849030  69.4017950   6.7906940  45.7656840  69.2125030
   4.3642270  49.9118040  59.7734440   3.5904530  49.3715660  59.6133160
   5.0936900  49.3924650  59.4352200  15.1230250  48.9083400  65.5660830
  15.8429370  49.4038690  65.1756940  14.9212070  48.2301290  64.9214700
  10.5840190  40.3021360  59.7090220   9.7704800  39.8034530  59.6335530
  10.3902140  41.1419610  59.2926570  10.5049050  48.9792460  71.4529830
  10.4386360  48.0588130  71.1987420   9.8754190  49.0767900  72.1674470
  13.2988580  44.6741010  58.0052380  14.1868200  44.9858240  57.8303720
  13.2693670  43.8013260  57.6132960   4.4079670  49.5798420  63.4113250
   4.9258340  48.7766680  63.3570140   3.9563690  49.5177560  64.2530080
   9.2949170  50.8464700  58.6840550   9.6364870  51.5906930  58.1883870
   8.4661880  51.1595820  59.0465380  10.4365780  51.8013030  71.2033630
  10.4510320  50.8693990  70.9852540   9.7290880  51.8872790  71.8423400
  15.5702850  45.9852850  57.4732240  15.4866570  46.4167070  56.6228680
  16.2897040  46.4451200  57.9059060  16.6476990  48.4420370  70.5502210
  15.9225180  49.0349150  70.3531600  17.1752450  48.4343910  69.7515580
  16.5990100  52.8395110  60.2014370  15.9566260  52.1850730  60.4758090
  16.2120760  53.2450200  59.4255040  12.1776580  50.1680540  64.0486060
  12.5300400  49.5708670  63.3887430  11.2938910  49.8424770  64.2194310
   8.2639860  50.9278230  61.4556470   8.9510990  51.4747440  61.8364060
   7.4772280  51.4718960  61.4906080   7.5667070  47.9324260  61.0681830
   8.0229850  48.7429510  61.2942020   7.2155280  47.6147400  61.9000320
   9.8699680  53.4430600  68.2974130  10.5141900  53.6489980  68.9747550
  10.2329120  52.6819000  67.8444980   3.4678850  38.2761910  61.5404350
   3.3393480  38.2679810  62.4889270   2.6440870  38.6145000  61.1895360
  11.1431760  51.4462950  67.0151580  11.7853990  50.7456110  67.1283750
  11.6681110  52.2261390  66.8348470  14.9887480  51.7311570  56.7390720
  14.7625060  51.0142010  57.3315360  14.5983680  51.4824010  55.9012470
  12.9169380  52.2457850  70.2187640  13.2525620  52.8324540  70.8965560
  11.9969720  52.1150560  70.4485430  14.5703730  49.6483510  58.4004880
  14.2825430  50.1096200  59.1882760  15.3655900  49.1881280  58.6689100
   6.7872130  53.1409630  58.3308850   6.7782230  53.8739320  57.7153360
   5.8670490  52.8941210  58.4235810   2.3878770  48.3624520  59.0755610
   1.7806720  49.1023420  59.0850910   2.8628120  48.4523880  58.2493810
  11.9611560  42.5275340  68.7512500  12.3292380  41.7070550  69.0792070
  11.1009760  42.5877230  69.1668150  15.3273590  41.4832280  59.5600060
  14.6986750  41.5877950  58.8458290  14.8325510  41.7029060  60.3493940
   9.7731730  53.2037870  56.9934040   9.8743710  53.0001860  56.0636020
   8.8733470  52.9496150  57.1981820   7.2957620  43.7618230  60.9757940
   6.5873770  44.2304570  61.4171550   7.5802100  43.1040240  61.6103130
   8.9213550  45.1814930  68.9750470   9.4198800  45.6560750  69.6402320
   9.0636500  44.2578450  69.1820500  11.3273050  40.4868890  62.4153730
  11.2040830  40.5055020  61.4663240  12.2757610  40.5347830  62.5352130
   8.4149840  55.7224190  61.6881710   8.6691340  55.6845580  60.7661080
   7.4662320  55.5957520  61.6809960   5.4992640  42.0703310  58.3508650
   6.3483170  42.5073460  58.2848840   5.1323910  42.3823570  59.1780710
  16.1280410  41.3982890  69.8178860  15.6254010  42.1388290  70.1572670
  16.9437070  41.7866890  69.5015650  14.4202420  46.6416070  63.2640220
  13.4792560  46.6566300  63.4387910  14.7346490  45.8552030  63.7100520
   4.3984060  48.3235670  56.8244180   5.1647330  48.2117030  57.3869610
   4.4758750  47.6273640  56.1720950   3.0930820  45.7560740  57.5077070
   3.1734410  44.8088250  57.6194470   3.9850570  46.0867620  57.6137730
  16.4228000  53.8124920  64.9394480  16.5475420  54.6356090  65.4118290
  17.2893560  53.6015650  64.5918630   3.8945530  55.9056130  64.6111610
   4.6308010  55.3571590  64.8820180   4.2786450  56.7712140  64.4717600
   7.0047840  55.0786440  56.4337180   7.7976450  55.3675270  55.9818970
   6.4852190  54.6478610  55.7549660  16.0578010  54.3056570  57.8573920
  15.7719520  53.8921710  57.0428100  15.8597560  55.2344280  57.7374440
   7.5225240  50.2989850  56.2979530   7.4175880  49.6842200  57.0240910
   7.3549460  49.7755740  55.5142540  10.7627970  49.3609880  56.9021520
  10.2138070  49.8079180  57.5464260  11.3847230  48.8559130  57.4259190
   6.4303090  48.3200800  58.7986820   6.8519510  48.1540670  59.6418210
   6.5553930  47.5101030  58.3041960   4.5930510  44.2997350  71.6057800
   4.0626970  43.8088300  70.9781140   5.2618580  44.7281550  71.0715730
   8.9430730  47.3438410  56.0463920   9.4636390  46.6287430  55.6805070
   9.5899130  47.9824280  56.3464430  13.4908570  48.7666810  71.3698990
  13.9049590  48.9211890  72.2189410  12.5559570  48.8922030  71.5324770
   5.0802810  41.2659720  71.6855090   4.9859680  40.6480470  70.9605960
   4.5000200  41.9926010  71.4585000   7.8464250  39.8232960  68.7182480
   7.3981550  39.8457220  67.8728030   7.2129450  39.4251980  69.3152780
   8.2523800  48.7187290  69.3394920   8.6711910  49.5620020  69.1671160
   7.3332430  48.8559330  69.1101700  10.5887700  46.4503470  70.7232760
  10.7083910  45.8544610  71.4627600  11.4481700  46.4873160  70.3034060
  12.9275600  47.0040660  69.2995270  12.4010820  47.5283280  68.6960410
  13.2706940  47.6368050  69.9305000   5.3261990  44.3934030  55.7444980
   5.1251050  43.5301390  56.1058320   5.1554040  44.3067390  54.8066580
   6.1031220  55.0240300  70.4552650   5.5652310  55.7486360  70.1361350
   6.3565180  54.5470640  69.6649990  12.8050300  39.2042260  58.2731860
  13.0852590  38.3610160  58.6291280  12.0316030  39.4365370  58.7870610
   4.1244790  41.4934650  55.7322860   4.4270690  41.5002080  54.8242010
   4.8639380  41.1432510  56.2290520   8.9593430  56.2591510  70.7139300
   8.8852130  57.1626650  71.0211670   8.0572270  55.9403410  70.6861370
   7.3429720  40.4369270  56.7179060   6.9951720  39.7593260  56.1381510
   7.5442490  39.9758780  57.5322450   9.5078760  55.4250020  58.3365660
  10.4029550  55.7634990  58.3584420   9.5396390  54.7029430  57.7089940
   3.1474920  50.7977070  56.5652660   3.5849790  51.3406740  57.2210240
   3.6322650  49.9724020  56.5749000   4.9582640  51.9175110  61.6774890
   4.6578180  51.7940080  62.5778800   4.8520130  51.0583700  61.2690620
  16.4873110  53.9553690  71.0431860  15.8875100  54.0146250  70.2995780
  16.6167010  53.0158670  71.1728710  17.7274560  51.6971510  56.3801570
  16.8967520  51.7648160  56.8508800  17.9046390  52.5875630  56.0768430
  17.1831020  48.4418990  58.8835770  17.9449930  49.0115640  58.9895460
  17.1985390  47.8746190  59.6544080  18.1890990  49.2969090  63.7277700
  18.5599820  48.5136410  63.3213670  18.8292920  49.9858190  63.5495000
  15.1724750  50.6805670  69.1408020  14.3584590  51.1102830  69.4033810
  15.5798950  51.2924080  68.5277070  17.2350190  48.7353360  56.0408290
  17.5099030  49.6432240  55.9127510  17.0460930  48.6715890  56.9770280
  13.6325800  41.7598210  57.3361920  14.0510680  41.5729190  56.4958580
  13.3261860  40.9077260  57.6464850  17.1315530  46.6722350  61.0337720
  16.7559130  45.9050280  60.6019010  16.4018650  47.0545050  61.5212650
  16.5215150  45.8193870  70.6677240  16.2901240  45.5906620  69.7675190
  16.7819700  46.7393420  70.6222130  16.4066490  44.8979840  64.3344960
  16.9303970  44.4042490  63.7035130  16.9925910  45.0330200  65.0792530
  16.5856210  44.9819710  67.8564510  15.6358920  44.9483250  67.9709500
  16.7669220  45.8919820  67.6214280   2.0874810  39.2860720  56.0065790
   2.8102940  39.8269660  56.3247010   2.3599330  39.0124140  55.1307330
  15.8966460  44.1553190  60.2737370  16.3925580  43.9224060  61.0586250
  15.6982530  43.3165030  59.8575010   1.7767000  38.5366910  65.9088410
   2.4243190  37.9864290  65.4683570   2.1968840  38.7910060  66.7304220
  17.3253620  42.7914140  62.8075050  17.2152900  42.6370180  63.7457320
  18.0861210  42.2635080  62.5650460  15.6719340  38.7308270  69.2658050
  16.3091560  39.3442410  69.6317240  15.8194230  38.7668930  68.3207280
  18.2143890  40.6222060  56.0481190  19.1393200  40.4903240  55.8399480
  18.1919680  40.7014880  57.0017640  18.2882380  41.3932720  58.6737900
  17.4933880  41.3277840  59.2030810  18.4925660  42.3283360  58.6623250
  15.2300800  55.4324270  62.6676290  15.8259870  55.1108840  61.9910710
  15.4878950  54.9596090  63.4589560   6.8369400  53.4201770  68.4176640
   6.5960760  53.6876330  67.5307160   7.7772040  53.5907500  68.4727500
  18.0973560  55.4396150  69.2187280  17.6031840  55.8365020  68.5014410
  17.4886850  54.8145360  69.6124560   2.9751400  54.8104430  69.9364700
   2.3811720  54.6789130  70.6754740   2.9675240  53.9742570  69.4706800
  12.4206420  38.1036660  68.1394730  11.5466260  38.4371770  67.9367660
  12.3117170  37.6309840  68.9646600  13.3278400  40.3107530  69.5236450
  12.9991760  39.4959290  69.1438180  14.2760700  40.2677340  69.4002140
  15.7813010  56.0819570  66.4974020  15.3215980  56.8335380  66.1232040
  15.1525470  55.3626040  66.4388820   2.6063630  52.1762810  68.8872740
   1.8797690  51.5568100  68.8198690   2.6672780  52.5703420  68.0170820
   6.2108730  54.3907810  65.6722150   6.7273750  53.7795170  65.1470410
   6.8606110  54.8936590  66.1633160   8.9504230  55.2816300  66.4991130
   9.2382040  55.0270600  65.6224140   9.4627450  54.7293660  67.0896700
  10.1681240  39.0206500  67.0787640   9.3853030  39.4952000  67.3584400
   9.8744170  38.1161330  66.9700820  14.7202310  39.7229600  65.1236730
  15.1610400  39.6674700  64.2758330  14.4509900  40.6387610  65.1946910
  16.5840880  39.3544840  63.1345550  16.5229280  38.4106060  62.9876570
  17.3632910  39.4624930  63.6799010   8.0535460  41.4393250  62.5903670
   7.2409970  41.0650140  62.2499550   8.5577100  40.6838330  62.8924860
  12.5560440  38.1035700  63.8286740  13.1589810  38.6755910  64.3035260
  11.8153430  38.6675140  63.6060640  15.6995040  38.5057260  59.1027020
  15.8945670  39.4040710  59.3694450  14.9124910  38.2744340  59.5959970
   2.4956330  54.1870430  59.5419640   1.9703950  54.5678460  58.8381600
   2.4200910  54.8121200  60.2629350   3.8846800  39.8518030  58.1403330
   4.4139560  39.0647830  58.0111280   4.5175120  40.5309220  58.3738860
   6.0784640  39.5893170  61.1948720   5.4487380  38.8880480  61.3618850
   5.5389780  40.3497300  60.9781880  17.2521650  55.7457970  60.8633580
  17.4273840  55.0595710  60.2194500  16.5543220  56.2705020  60.4710250
   5.0949300  56.1352810  58.4168890   5.8268120  55.8512090  57.8692780
   5.3542970  55.8966090  59.3068270   4.2564090  52.2517540  58.4215220
   3.6272970  52.7202640  58.9701050   4.3711920  51.4066760  58.8561410
  11.7113810  46.3023200  44.5716420  11.6307860  45.3877810  44.3008130
  11.2978230  46.7990270  43.8656130   9.8431850  48.0802220  46.4525690
   9.0673950  47.6002660  46.7424260  10.4944780  47.4007870  46.2781850
   3.8597680  48.3922030  47.3301450   3.0282560  48.1370740  47.7297960
   4.4678660  48.4632800  48.0659370  13.8639280  52.4862410  45.2324820
  13.4020810  51.7149650  45.5611990  14.6764830  52.5128480  45.7377270
   3.8398940  52.4262120  47.5259470   4.1426980  51.5359860  47.3469690
   4.5842530  52.9832340  47.2981720  10.0902590  54.7720420  44.8528810
   9.4714030  55.2277920  44.2823250  10.9454370  54.9271880  44.4518510
   9.2840840  50.7559410  46.4595850   9.2149120  49.8149350  46.2984980
  10.0460700  50.8460820  47.0318420  10.3146010  43.5629790  46.6864780
  10.6910830  42.6901670  46.5738450  10.2165520  43.8988490  45.7955220
   4.4451020  41.9355420  42.1482220   4.5517770  42.8359150  42.4550980
   3.5343380  41.8873390  41.8576870  14.0970130  41.0580230  43.6193120
  14.9179750  40.5676800  43.6618600  14.1304210  41.6477890  44.3724960
   2.0934180  43.8574430  47.3934810   2.7744290  44.1212800  48.0122210
   1.7782230  43.0175300  47.7272820   6.2858750  44.9041790  46.4807400
   6.7936970  45.4022760  47.1212420   6.8171990  44.1276990  46.3046760
  18.3869680  43.0746980  50.1836750  17.6821850  43.4628690  49.6651860
  18.6527600  43.7697270  50.7857680   4.5694850  39.5440350  50.7470820
   4.5713290  40.0612740  49.9416720   3.7399160  39.0670530  50.7240750
  10.9565940  49.6559660  42.2460720  10.3383210  50.1209110  41.6823440
  11.4689190  50.3487140  42.6630230   5.8197700  49.1835530  48.9244320
   5.4867080  49.8104450  49.5665390   5.9964380  49.7097410  48.1445990
  14.3331610  42.9980610  46.3920660  13.6287180  43.2865500  46.9723770
  14.6943770  43.8080720  46.0320220   4.2510180  41.2550310  48.7541270
   4.5926990  42.0992360  48.4595140   3.3125990  41.4034050  48.8706610
   5.0316800  51.1516330  50.7393500   5.6490800  51.8267410  50.4577950
   4.1709920  51.5604310  50.6481000  15.9494390  52.6155740  48.6548140
  15.2657910  53.2854850  48.6464810  16.4888680  52.8136390  47.8893000
  17.4018530  42.4435400  46.7829870  16.4543440  42.4774380  46.9145300
  17.7268520  43.2574350  47.1679230   7.9338070  38.7432580  45.0785860
   8.2413050  38.1879470  44.3621360   7.0038770  38.8777040  44.8958850
  13.4853130  54.4599870  47.3693320  13.4980290  54.0562160  46.5015580
  12.9328350  55.2347160  47.2654750  14.7798550  51.1816090  42.4583490
  14.6694880  50.2390420  42.5832910  14.7766800  51.5431730  43.3446250
  12.8838570  49.3629710  48.6975930  13.3007360  49.1489820  47.8629390
  13.6078390  49.6202500  49.2684550  10.3218830  46.8081410  41.8145980
   9.3948110  46.7418790  42.0434450  10.4743650  47.7461540  41.7001220
  10.3087910  43.0798410  38.8113140   9.3691580  43.2412370  38.8965600
  10.6271170  43.7984090  38.2649130  16.8300670  47.7616930  48.7892170
  16.0019300  47.8310020  48.3142300  17.4251150  48.3471240  48.3208000
  14.3516120  48.3701710  42.3181230  13.7328540  48.0321260  41.6707530
  14.3340570  47.7261470  43.0260420  13.7942680  44.5486250  49.7347040
  13.3813860  45.3739960  49.9887030  13.0618630  43.9631290  49.5423400
   5.9275470  47.3346150  44.5965710   5.5232470  46.6223400  44.1011610
   6.0138590  46.9899390  45.4853750   6.3957170  51.0213710  46.7604920
   6.0985460  50.4159180  46.0812700   7.3456990  51.0591020  46.6494280
   4.6404090  44.1089360  48.3764750   5.1918680  44.2184700  47.6018000
   5.1547600  44.4826960  49.0919980  14.4842780  54.5945580  50.4228020
  14.0073340  55.4017770  50.2300630  13.8004570  53.9423910  50.5754230
   5.4875600  50.7595400  53.4112720   4.5904130  50.9835370  53.6586120
   5.5128470  50.8830340  52.4624120  12.5280820  47.6088520  39.3253980
  12.9674100  46.7710950  39.1791800  13.2409240  48.2417920  39.4118120
   4.3146820  47.6308720  51.9870090   4.1754590  48.5031520  52.3557490
   3.4328180  47.2881530  51.8418030  10.6376200  52.5484590  43.2935220
  11.0772110  53.2908920  42.8790610  10.5763090  52.7911160  44.2174180
   6.1127170  53.5730420  54.1955240   6.0842600  53.9773370  53.3283670
   5.9492140  52.6440780  54.0326840  16.1097960  38.8631330  37.6395020
  15.7970620  38.9558160  38.5394090  16.8710430  39.4412360  37.5892450
   2.6280100  46.2291130  42.0972360   2.5077700  46.9553220  41.4853630
   2.3180990  45.4594040  41.6200270  18.0641990  54.3557520  55.4919410
  18.5401710  54.8340410  56.1708490  18.6849150  54.2875010  54.7664910
  17.4675240  51.5470370  52.6519420  17.5938300  51.3082250  51.7336600
  17.5096620  50.7154910  53.1241500  11.3291980  55.2498370  51.2214230
  11.8436650  55.1606380  52.0236660  10.4861060  55.5958070  51.5142140
  13.3046380  55.5353710  40.6498230  13.1447520  55.2456650  41.5480060
  13.1393090  54.7593840  40.1143460   5.7834760  55.3152240  42.4269850
   5.6077240  54.3987780  42.2137650   4.9290500  55.6739530  42.6667650
  13.0072510  53.0441270  39.2096230  12.3137670  53.0418560  38.5498510
  13.7495370  52.6200590  38.7790400  12.5722440  54.6703980  43.2844720
  13.0279390  53.8893360  43.5983340  12.9114960  55.3810800  43.8285900
  17.3199250  43.6002830  53.6169160  16.7043520  44.1082500  53.0884620
  16.9995670  42.7001160  53.5595100   5.0943760  39.5726200  45.4796030
   4.6511910  40.3535740  45.1480550   5.6528750  39.8956090  46.1866970
   9.3813570  42.4394720  51.0831350   8.9192940  42.6477740  51.8951290
   8.9791680  41.6254070  50.7802020  14.3818080  43.6603670  52.2128010
  13.5311670  43.3609420  52.5337080  14.2219870  43.9045680  51.3011830
  11.4767790  45.1605420  54.3126800  11.8021200  44.3269170  53.9729030
  12.2648120  45.6833940  54.4605130   8.2102580  39.1936900  40.3601860
   7.5856760  39.1896770  41.0855170   8.1232700  38.3267860  39.9637830
   7.1319660  40.1173530  47.3385630   7.4291990  41.0236360  47.2577650
   7.6805220  39.6292310  46.7245200   4.8857980  44.6959770  43.2077280
   4.6598900  44.4796940  44.1123900   4.1050510  45.1288230  42.8623250
  12.1155740  44.7023140  41.8067930  11.5164630  45.4258940  41.6231550
  12.6635350  44.6399920  41.0244380   7.3257190  45.5945350  53.8737550
   7.2300790  44.6540080  53.7237950   8.1689170  45.8160420  53.4785620
  10.7220610  43.3386680  43.8371210  11.1150180  43.6558880  43.0239900
  11.0837460  42.4598560  43.9515730   2.4567730  42.0059020  52.0271330
   2.0631120  42.8534230  52.2344110   1.7686130  41.3685390  52.2179970
   9.0312780  42.0893990  55.0968070   8.3411100  41.8966190  55.7314160
   9.7745080  42.3728630  55.6292370  11.3075750  45.9292430  47.9321990
  10.5756870  46.4379240  48.2812090  10.9100090  45.1122410  47.6310770
   7.7453140  42.6046630  46.3374480   7.7489200  42.1636580  45.4879020
   8.6404260  42.9263960  46.4446300   3.5955520  42.4873120  45.2968690
   3.2555570  42.9648350  46.0535740   2.8332840  42.0338240  44.9369790
   7.8073290  43.6058710  39.3281240   7.9286110  43.5645190  40.2767060
   7.4221800  44.4682860  39.1727970  11.7701660  41.3826110  47.3444930
  11.7874400  41.8334760  48.1886780  11.5217240  40.4831750  47.5578370
   6.8194790  45.9159850  38.7264540   6.2511690  45.4678100  38.1000450
   7.5283790  46.2752630  38.1929690  15.1972410  38.7958290  53.1831310
  15.5218180  38.0647950  53.7089290  15.2328920  38.4771930  52.2812300
   8.0461110  46.6648410  48.0839890   8.4131240  46.1906980  48.8301230
   7.8566170  47.5389980  48.4248230   5.8360480  45.7057050  50.4024100
   5.5317550  46.5849030  50.6274460   6.7906940  45.7656840  50.4381540
   4.3642270  49.9118040  40.9990950   3.5904530  49.3715660  40.8389670
   5.0936900  49.3924650  40.6608710  15.1230250  48.9083400  46.7917340
  15.8429370  49.4038690  46.4013450  14.9212070  48.2301290  46.1471210
  10.5840190  40.3021360  40.9346730   9.7704800  39.8034530  40.8592040
  10.3902140  41.1419610  40.5183080  10.5049050  48.9792460  52.6786340
  10.4386360  48.0588130  52.4243930   9.8754190  49.0767900  53.3930980
  13.2988580  44.6741010  39.2308890  14.1868200  44.9858240  39.0560230
  13.2693670  43.8013260  38.8389470   4.4079670  49.5798420  44.6369760
   4.9258340  48.7766680  44.5826650   3.9563690  49.5177560  45.4786590
   9.2949170  50.8464700  39.9097060   9.6364870  51.5906930  39.4140380
   8.4661880  51.1595820  40.2721890   5.0937330  47.0044030  54.4335010
   4.7937470  47.1501210  53.5362830   5.8648570  46.4449320  54.3408400
  10.4365780  51.8013030  52.4290140  10.4510320  50.8693990  52.2109050
   9.7290880  51.8872790  53.0679910  15.5702850  45.9852850  38.6988750
  15.4866570  46.4167070  37.8485190  16.2897040  46.4451200  39.1315570
  16.6476990  48.4420370  51.7758720  15.9225180  49.0349150  51.5788110
  17.1752450  48.4343910  50.9772090  16.5990100  52.8395110  41.4270880
  15.9566260  52.1850730  41.7014600  16.2120760  53.2450200  40.6511550
  12.1776580  50.1680540  45.2742570  12.5300400  49.5708670  44.6143940
  11.2938910  49.8424770  45.4450820   8.2639860  50.9278230  42.6812980
   8.9510990  51.4747440  43.0620570   7.4772280  51.4718960  42.7162590
   7.5667070  47.9324260  42.2938340   8.0229850  48.7429510  42.5198530
   7.2155280  47.6147400  43.1256830   9.8699680  53.4430600  49.5230640
  10.5141900  53.6489980  50.2004060  10.2329120  52.6819000  49.0701490
   3.4678850  38.2761910  42.7660860   3.3393480  38.2679810  43.7145780
   2.6440870  38.6145000  42.4151870  11.1431760  51.4462950  48.2408090
  11.7853990  50.7456110  48.3540260  11.6681110  52.2261390  48.0604980
  14.9887480  51.7311570  37.9647230  14.7625060  51.0142010  38.5571870
  14.5983680  51.4824010  37.1268980  12.9169380  52.2457850  51.4444150
  13.2525620  52.8324540  52.1222070  11.9969720  52.1150560  51.6741940
  14.5703730  49.6483510  39.6261390  14.2825430  50.1096200  40.4139270
  15.3655900  49.1881280  39.8945610   8.7457960  52.2949180  54.6132210
   8.4254830  51.5758420  55.1577900   8.0716320  52.9704250  54.6868270
   6.7872130  53.1409630  39.5565360   6.7782230  53.8739320  38.9409870
   5.8670490  52.8941210  39.6492320   2.3878770  48.3624520  40.3012120
   1.7806720  49.1023420  40.3107420   2.8628120  48.4523880  39.4750320
  11.9611560  42.5275340  49.9769010  12.3292380  41.7070550  50.3048580
  11.1009760  42.5877230  50.3924660  15.3273590  41.4832280  40.7856570
  14.6986750  41.5877950  40.0714800  14.8325510  41.7029060  41.5750450
   9.7731730  53.2037870  38.2190550   9.8743710  53.0001860  37.2892530
   8.8733470  52.9496150  38.4238330   7.2957620  43.7618230  42.2014450
   6.5873770  44.2304570  42.6428060   7.5802100  43.1040240  42.8359640
   8.9213550  45.1814930  50.2006980   9.4198800  45.6560750  50.8658830
   9.0636500  44.2578450  50.4077010  11.3273050  40.4868890  43.6410240
  11.2040830  40.5055020  42.6919750  12.2757610  40.5347830  43.7608640
   8.4149840  55.7224190  42.9138220   8.6691340  55.6845580  41.9917590
   7.4662320  55.5957520  42.9066470   5.4992640  42.0703310  39.5765160
   6.3483170  42.5073460  39.5105350   5.1323910  42.3823570  40.4037220
  16.1280410  41.3982890  51.0435370  15.6254010  42.1388290  51.3829180
  16.9437070  41.7866890  50.7272160  14.4202420  46.6416070  44.4896730
  13.4792560  46.6566300  44.6644420  14.7346490  45.8552030  44.9357030
   4.3984060  48.3235670  38.0500690   5.1647330  48.2117030  38.6126120
   4.4758750  47.6273640  37.3977460   3.0930820  45.7560740  38.7333580
   3.1734410  44.8088250  38.8450980   3.9850570  46.0867620  38.8394240
  16.4228000  53.8124920  46.1650990  16.5475420  54.6356090  46.6374800
  17.2893560  53.6015650  45.8175140   3.8945530  55.9056130  45.8368120
   4.6308010  55.3571590  46.1076690   4.2786450  56.7712140  45.6974110
   2.9003810  55.0902200  55.0253700   3.7016540  55.4114250  55.4389100
   2.3855630  54.7297780  55.7473610   7.0047840  55.0786440  37.6593690
   7.7976450  55.3675270  37.2075480   6.4852190  54.6478610  36.9806170
  11.7368440  51.1982070  54.9729110  11.1306600  51.2213670  54.2324860
  11.4322550  50.4665110  55.5096360  13.1668810  54.9262360  53.5838520
  14.1190560  54.8420380  53.5338760  13.0197030  55.5904070  54.2572310
  16.0578010  54.3056570  39.0830430  15.7719520  53.8921710  38.2684610
  15.8597560  55.2344280  38.9630950   7.5225240  50.2989850  37.5236040
   7.4175880  49.6842200  38.2497420   7.3549460  49.7755740  36.7399050
   7.6739560  48.9846650  53.5025270   6.9085230  49.5531650  53.4179940
   7.8555520  48.6922860  52.6093500  10.7627970  49.3609880  38.1278030
  10.2138070  49.8079180  38.7720770  11.3847230  48.8559130  38.6515700
  14.8162910  50.7151980  54.0600290  15.5572380  51.0527740  53.5567750
  14.0535590  50.8844040  53.5070060   2.6524700  45.7205250  54.8639820
   2.6930040  45.4219120  55.7725050   3.5070200  46.1212860  54.7047340
   6.4303090  48.3200800  40.0243330   6.8519510  48.1540670  40.8674720
   6.5553930  47.5101030  39.5298470   4.5930510  44.2997350  52.8314310
   4.0626970  43.8088300  52.2037650   5.2618580  44.7281550  52.2972240
   8.9430730  47.3438410  37.2720430   9.4636390  46.6287430  36.9061580
   9.5899130  47.9824280  37.5720940  13.4908570  48.7666810  52.5955500
  13.9049590  48.9211890  53.4445920  12.5559570  48.8922030  52.7581280
  13.9630740  46.1062970  54.5994650  14.5451510  45.3515290  54.5115130
  14.1392510  46.6370410  53.8226130   5.0802810  41.2659720  52.9111600
   4.9859680  40.6480470  52.1862470   4.5000200  41.9926010  52.6841510
   7.8464250  39.8232960  49.9438990   7.3981550  39.8457220  49.0984540
   7.2129450  39.4251980  50.5409290   8.2523800  48.7187290  50.5651430
   8.6711910  49.5620020  50.3927670   7.3332430  48.8559330  50.3358210
  10.5887700  46.4503470  51.9489270  10.7083910  45.8544610  52.6884110
  11.4481700  46.4873160  51.5290570  12.9275600  47.0040660  50.5251780
  12.4010820  47.5283280  49.9216920  13.2706940  47.6368050  51.1561510
   5.3261990  44.3934030  36.9701490   5.1251050  43.5301390  37.3314830
   5.1554040  44.3067390  36.0323090   6.1031220  55.0240300  51.6809160
   5.5652310  55.7486360  51.3617860   6.3565180  54.5470640  50.8906500
   7.3556470  42.9924820  53.2065090   7.9456160  42.6840670  53.8942910
   6.5376710  42.5204570  53.3624990  12.1749900  42.6090630  53.4398110
  11.4865420  41.9472170  53.3748100  12.8955920  42.1628900  53.8846570
  12.8050300  39.2042260  39.4988370  13.0852590  38.3610160  39.8547790
  12.0316030  39.4365370  40.0127120   4.1244790  41.4934650  36.9579370
   4.4270690  41.5002080  36.0498520   4.8639380  41.1432510  37.4547030
   8.9593430  56.2591510  51.9395810   8.8852130  57.1626650  52.2468180
   8.0572270  55.9403410  51.9117880   7.3429720  40.4369270  37.9435570
   6.9951720  39.7593260  37.3638020   7.5442490  39.9758780  38.7578960
   9.5078760  55.4250020  39.5622170  10.4029550  55.7634990  39.5840930
   9.5396390  54.7029430  38.9346450   3.1474920  50.7977070  37.7909170
   3.5849790  51.3406740  38.4466750   3.6322650  49.9724020  37.8005510
   4.9582640  51.9175110  42.9031400   4.6578180  51.7940080  43.8035310
   4.8520130  51.0583700  42.4947130  16.4873110  53.9553690  52.2688370
  15.8875100  54.0146250  51.5252290  16.6167010  53.0158670  52.3985220
  17.7274560  51.6971510  37.6058080  16.8967520  51.7648160  38.0765310
  17.9046390  52.5875630  37.3024940  17.1831020  48.4418990  40.1092280
  17.9449930  49.0115640  40.2151970  17.1985390  47.8746190  40.8800590
  18.1890990  49.2969090  44.9534210  18.5599820  48.5136410  44.5470180
  18.8292920  49.9858190  44.7751510  15.1724750  50.6805670  50.3664530
  14.3584590  51.1102830  50.6290320  15.5798950  51.2924080  49.7533580
  17.2350190  48.7353360  37.2664800  17.5099030  49.6432240  37.1384020
  17.0460930  48.6715890  38.2026790  13.6325800  41.7598210  38.5618430
  14.0510680  41.5729190  37.7215090  13.3261860  40.9077260  38.8721360
  17.1315530  46.6722350  42.2594230  16.7559130  45.9050280  41.8275520
  16.4018650  47.0545050  42.7469160  16.5215150  45.8193870  51.8933750
  16.2901240  45.5906620  50.9931700  16.7819700  46.7393420  51.8478640
  14.9603220  41.0450300  54.6713450  15.8373400  41.0533700  55.0547450
  14.9724060  40.3081140  54.0605800  16.4066490  44.8979840  45.5601470
  16.9303970  44.4042490  44.9291640  16.9925910  45.0330200  46.3049040
  16.5856210  44.9819710  49.0821020  15.6358920  44.9483250  49.1966010
  16.7669220  45.8919820  48.8470790   2.0874810  39.2860720  37.2322300
   2.8102940  39.8269660  37.5503520   2.3599330  39.0124140  36.3563840
  15.8966460  44.1553190  41.4993880  16.3925580  43.9224060  42.2842760
  15.6982530  43.3165030  41.0831520   1.7767000  38.5366910  47.1344920
   2.4243190  37.9864290  46.6940080   2.1968840  38.7910060  47.9560730
  17.3253620  42.7914140  44.0331560  17.2152900  42.6370180  44.9713830
  18.0861210  42.2635080  43.7906970  15.6719340  38.7308270  50.4914560
  16.3091560  39.3442410  50.8573750  15.8194230  38.7668930  49.5463790
  18.2143890  40.6222060  37.2737700  19.1393200  40.4903240  37.0655990
  18.1919680  40.7014880  38.2274150  18.2882380  41.3932720  39.8994410
  17.4933880  41.3277840  40.4287320  18.4925660  42.3283360  39.8879760
  15.2300800  55.4324270  43.8932800  15.8259870  55.1108840  43.2167220
  15.4878950  54.9596090  44.6846070   3.1363370  51.8642180  54.0423430
   3.0933000  51.4935090  54.9237890   3.2674380  52.8019750  54.1825250
   6.8369400  53.4201770  49.6433150   6.5960760  53.6876330  48.7563670
   7.7772040  53.5907500  49.6984010   9.0423820  39.8834460  53.3989660
   8.9812710  40.4756290  54.1485070   9.9824200  39.7760420  53.2539920
  11.6798380  39.5404520  53.0381950  12.2938790  39.8583810  52.3763030
  12.2247940  39.0553110  53.6577810  18.0973560  55.4396150  50.4443790
  17.6031840  55.8365020  49.7270920  17.4886850  54.8145360  50.8381070
   2.2019640  38.2198780  53.1521010   2.7502630  38.0386830  52.3887120
   2.2674950  37.4292890  53.6877320   2.9751400  54.8104430  51.1621210
   2.3811720  54.6789130  51.9011250   2.9675240  53.9742570  50.6963310
  12.4206420  38.1036660  49.3651240  11.5466260  38.4371770  49.1624170
  12.3117170  37.6309840  50.1903110  13.3278400  40.3107530  50.7492960
  12.9991760  39.4959290  50.3694690  14.2760700  40.2677340  50.6258650
  15.7813010  56.0819570  47.7230530  15.3215980  56.8335380  47.3488550
  15.1525470  55.3626040  47.6645330   2.6063630  52.1762810  50.1129250
   1.8797690  51.5568100  50.0455200   2.6672780  52.5703420  49.2427330
   6.2108730  54.3907810  46.8978660   6.7273750  53.7795170  46.3726920
   6.8606110  54.8936590  47.3889670   8.9504230  55.2816300  47.7247640
   9.2382040  55.0270600  46.8480650   9.4627450  54.7293660  48.3153210
  10.1681240  39.0206500  48.3044150   9.3853030  39.4952000  48.5840910
   9.8744170  38.1161330  48.1957330  14.7202310  39.7229600  46.3493240
  15.1610400  39.6674700  45.5014840  14.4509900  40.6387610  46.4203420
  16.5840880  39.3544840  44.3602060  16.5229280  38.4106060  44.2133080
  17.3632910  39.4624930  44.9055520   8.0535460  41.4393250  43.8160180
   7.2409970  41.0650140  43.4756060   8.5577100  40.6838330  44.1181370
  12.5560440  38.1035700  45.0543250  13.1589810  38.6755910  45.5291770
  11.8153430  38.6675140  44.8317150  15.6995040  38.5057260  40.3283530
  15.8945670  39.4040710  40.5950960  14.9124910  38.2744340  40.8216480
   2.4956330  54.1870430  40.7676150   1.9703950  54.5678460  40.0638110
   2.4200910  54.8121200  41.4885860   3.8846800  39.8518030  39.3659840
   4.4139560  39.0647830  39.2367790   4.5175120  40.5309220  39.5995370
   6.0784640  39.5893170  42.4205230   5.4487380  38.8880480  42.5875360
   5.5389780  40.3497300  42.2038390   9.0176590  56.2032400  55.0915840
   9.9443900  55.9676670  55.1351800   9.0027020  57.0304400  54.6101870
  17.2521650  55.7457970  42.0890090  17.4273840  55.0595710  41.4451010
  16.5543220  56.2705020  41.6966760   6.2040200  38.8677150  54.8557720
   5.9224470  39.3710750  54.0918540   6.5859900  38.0698900  54.4899850
   5.0949300  56.1352810  39.6425400   5.8268120  55.8512090  39.0949290
   5.3542970  55.8966090  40.5324780   4.2564090  52.2517540  39.6471730
   3.6272970  52.7202640  40.1957560   4.3711920  51.4066760  40.0817920
  12.8055660  38.2830730  55.4338190  12.6921110  38.6025340  56.3289710
  13.6225400  38.6843240  55.1375470  15.5854150  55.4302260  54.9156880
  16.3779470  54.9351490  54.7082840  15.8787300  56.1092400  55.5232490
  11.7113810  46.3023200  25.7972930  11.6307860  45.3877810  25.5264640
  11.2978230  46.7990270  25.0912640   9.8431850  48.0802220  27.6782200
   9.0673950  47.6002660  27.9680770  10.4944780  47.4007870  27.5038360
   3.8597680  48.3922030  28.5557960   3.0282560  48.1370740  28.9554470
   4.4678660  48.4632800  29.2915880  13.8639280  52.4862410  26.4581330
  13.4020810  51.7149650  26.7868500  14.6764830  52.5128480  26.9633780
   3.8398940  52.4262120  28.7515980   4.1426980  51.5359860  28.5726200
   4.5842530  52.9832340  28.5238230  10.0902590  54.7720420  26.0785320
   9.4714030  55.2277920  25.5079760  10.9454370  54.9271880  25.6775020
   9.2840840  50.7559410  27.6852360   9.2149120  49.8149350  27.5241490
  10.0460700  50.8460820  28.2574930  10.3146010  43.5629790  27.9121290
  10.6910830  42.6901670  27.7994960  10.2165520  43.8988490  27.0211730
   4.4451020  41.9355420  23.3738730   4.5517770  42.8359150  23.6807490
   3.5343380  41.8873390  23.0833380  14.0970130  41.0580230  24.8449630
  14.9179750  40.5676800  24.8875110  14.1304210  41.6477890  25.5981470
   2.0934180  43.8574430  28.6191320   2.7744290  44.1212800  29.2378720
   1.7782230  43.0175300  28.9529330   6.2858750  44.9041790  27.7063910
   6.7936970  45.4022760  28.3468930   6.8171990  44.1276990  27.5303270
  18.3869680  43.0746980  31.4093260  17.6821850  43.4628690  30.8908370
  18.6527600  43.7697270  32.0114190   4.5694850  39.5440350  31.9727330
   4.5713290  40.0612740  31.1673230   3.7399160  39.0670530  31.9497260
  10.9565940  49.6559660  23.4717230  10.3383210  50.1209110  22.9079950
  11.4689190  50.3487140  23.8886740   5.8197700  49.1835530  30.1500830
   5.4867080  49.8104450  30.7921900   5.9964380  49.7097410  29.3702500
  14.3331610  42.9980610  27.6177170  13.6287180  43.2865500  28.1980280
  14.6943770  43.8080720  27.2576730   4.2510180  41.2550310  29.9797780
   4.5926990  42.0992360  29.6851650   3.3125990  41.4034050  30.0963120
   5.0316800  51.1516330  31.9650010   5.6490800  51.8267410  31.6834460
   4.1709920  51.5604310  31.8737510  15.9494390  52.6155740  29.8804650
  15.2657910  53.2854850  29.8721320  16.4888680  52.8136390  29.1149510
  17.4018530  42.4435400  28.0086380  16.4543440  42.4774380  28.1401810
  17.7268520  43.2574350  28.3935740   7.9338070  38.7432580  26.3042370
   8.2413050  38.1879470  25.5877870   7.0038770  38.8777040  26.1215360
  13.4853130  54.4599870  28.5949830  13.4980290  54.0562160  27.7272090
  12.9328350  55.2347160  28.4911260  14.7798550  51.1816090  23.6840000
  14.6694880  50.2390420  23.8089420  14.7766800  51.5431730  24.5702760
  12.8838570  49.3629710  29.9232440  13.3007360  49.1489820  29.0885900
  13.6078390  49.6202500  30.4941060  10.3218830  46.8081410  23.0402490
   9.3948110  46.7418790  23.2690960  10.4743650  47.7461540  22.9257730
  10.3087910  43.0798410  20.0369650   9.3691580  43.2412370  20.1222110
  10.6271170  43.7984090  19.4905640  16.8300670  47.7616930  30.0148680
  16.0019300  47.8310020  29.5398810  17.4251150  48.3471240  29.5464510
  14.3516120  48.3701710  23.5437740  13.7328540  48.0321260  22.8964040
  14.3340570  47.7261470  24.2516930  13.7942680  44.5486250  30.9603550
  13.3813860  45.3739960  31.2143540  13.0618630  43.9631290  30.7679910
   5.9275470  47.3346150  25.8222220   5.5232470  46.6223400  25.3268120
   6.0138590  46.9899390  26.7110260   6.3957170  51.0213710  27.9861430
   6.0985460  50.4159180  27.3069210   7.3456990  51.0591020  27.8750790
   4.6404090  44.1089360  29.6021260   5.1918680  44.2184700  28.8274510
   5.1547600  44.4826960  30.3176490  14.4842780  54.5945580  31.6484530
  14.0073340  55.4017770  31.4557140  13.8004570  53.9423910  31.8010740
   5.4875600  50.7595400  34.6369230   4.5904130  50.9835370  34.8842630
   5.5128470  50.8830340  33.6880630  12.5280820  47.6088520  20.5510490
  12.9674100  46.7710950  20.4048310  13.2409240  48.2417920  20.6374630
   4.3146820  47.6308720  33.2126600   4.1754590  48.5031520  33.5814000
   3.4328180  47.2881530  33.0674540  10.6376200  52.5484590  24.5191730
  11.0772110  53.2908920  24.1047120  10.5763090  52.7911160  25.4430690
   6.1127170  53.5730420  35.4211750   6.0842600  53.9773370  34.5540180
   5.9492140  52.6440780  35.2583350  16.1097960  38.8631330  18.8651530
  15.7970620  38.9558160  19.7650600  16.8710430  39.4412360  18.8148960
   2.6280100  46.2291130  23.3228870   2.5077700  46.9553220  22.7110140
   2.3180990  45.4594040  22.8456780  18.0641990  54.3557520  36.7175920
  18.5401710  54.8340410  37.3965000  18.6849150  54.2875010  35.9921420
  17.4675240  51.5470370  33.8775930  17.5938300  51.3082250  32.9593110
  17.5096620  50.7154910  34.3498010  11.3291980  55.2498370  32.4470740
  11.8436650  55.1606380  33.2493170  10.4861060  55.5958070  32.7398650
  13.3046380  55.5353710  21.8754740  13.1447520  55.2456650  22.7736570
  13.1393090  54.7593840  21.3399970   5.7834760  55.3152240  23.6526360
   5.6077240  54.3987780  23.4394160   4.9290500  55.6739530  23.8924160
  13.0072510  53.0441270  20.4352740  12.3137670  53.0418560  19.7755020
  13.7495370  52.6200590  20.0046910  12.5722440  54.6703980  24.5101230
  13.0279390  53.8893360  24.8239850  12.9114960  55.3810800  25.0542410
  17.3199250  43.6002830  34.8425670  16.7043520  44.1082500  34.3141130
  16.9995670  42.7001160  34.7851610   5.0943760  39.5726200  26.7052540
   4.6511910  40.3535740  26.3737060   5.6528750  39.8956090  27.4123480
   9.3813570  42.4394720  32.3087860   8.9192940  42.6477740  33.1207800
   8.9791680  41.6254070  32.0058530  14.3818080  43.6603670  33.4384520
  13.5311670  43.3609420  33.7593590  14.2219870  43.9045680  32.5268340
  11.4767790  45.1605420  35.5383310  11.8021200  44.3269170  35.1985540
  12.2648120  45.6833940  35.6861640   8.2102580  39.1936900  21.5858370
   7.5856760  39.1896770  22.3111680   8.1232700  38.3267860  21.1894340
   7.1319660  40.1173530  28.5642140   7.4291990  41.0236360  28.4834160
   7.6805220  39.6292310  27.9501710   4.8857980  44.6959770  24.4333790
   4.6598900  44.4796940  25.3380410   4.1050510  45.1288230  24.0879760
  12.1155740  44.7023140  23.0324440  11.5164630  45.4258940  22.8488060
  12.6635350  44.6399920  22.2500890   7.3257190  45.5945350  35.0994060
   7.2300790  44.6540080  34.9494460   8.1689170  45.8160420  34.7042130
  10.7220610  43.3386680  25.0627720  11.1150180  43.6558880  24.2496410
  11.0837460  42.4598560  25.1772240   2.4567730  42.0059020  33.2527840
   2.0631120  42.8534230  33.4600620   1.7686130  41.3685390  33.4436480
   9.0312780  42.0893990  36.3224580   8.3411100  41.8966190  36.9570670
   9.7745080  42.3728630  36.8548880  11.3075750  45.9292430  29.1578500
  10.5756870  46.4379240  29.5068600  10.9100090  45.1122410  28.8567280
   7.7453140  42.6046630  27.5630990   7.7489200  42.1636580  26.7135530
   8.6404260  42.9263960  27.6702810   3.5955520  42.4873120  26.5225200
   3.2555570  42.9648350  27.2792250   2.8332840  42.0338240  26.1626300
   7.8073290  43.6058710  20.5537750   7.9286110  43.5645190  21.5023570
   7.4221800  44.4682860  20.3984480  11.7701660  41.3826110  28.5701440
  11.7874400  41.8334760  29.4143290  11.5217240  40.4831750  28.7834880
   6.8194790  45.9159850  19.9521050   6.2511690  45.4678100  19.3256960
   7.5283790  46.2752630  19.4186200  15.1972410  38.7958290  34.4087820
  15.5218180  38.0647950  34.9345800  15.2328920  38.4771930  33.5068810
   8.0461110  46.6648410  29.3096400   8.4131240  46.1906980  30.0557740
   7.8566170  47.5389980  29.6504740   5.8360480  45.7057050  31.6280610
   5.5317550  46.5849030  31.8530970   6.7906940  45.7656840  31.6638050
   4.3642270  49.9118040  22.2247460   3.5904530  49.3715660  22.0646180
   5.0936900  49.3924650  21.8865220  15.1230250  48.9083400  28.0173850
  15.8429370  49.4038690  27.6269960  14.9212070  48.2301290  27.3727720
  10.5840190  40.3021360  22.1603240   9.7704800  39.8034530  22.0848550
  10.3902140  41.1419610  21.7439590  10.5049050  48.9792460  33.9042850
  10.4386360  48.0588130  33.6500440   9.8754190  49.0767900  34.6187490
  13.2988580  44.6741010  20.4565400  14.1868200  44.9858240  20.2816740
  13.2693670  43.8013260  20.0645980   4.4079670  49.5798420  25.8626270
   4.9258340  48.7766680  25.8083160   3.9563690  49.5177560  26.7043100
   9.2949170  50.8464700  21.1353570   9.6364870  51.5906930  20.6396890
   8.4661880  51.1595820  21.4978400   5.0937330  47.0044030  35.6591520
   4.7937470  47.1501210  34.7619340   5.8648570  46.4449320  35.5664910
  10.4365780  51.8013030  33.6546650  10.4510320  50.8693990  33.4365560
   9.7290880  51.8872790  34.2936420  15.5702850  45.9852850  19.9245260
  15.4866570  46.4167070  19.0741700  16.2897040  46.4451200  20.3572080
  16.6476990  48.4420370  33.0015230  15.9225180  49.0349150  32.8044620
  17.1752450  48.4343910  32.2028600  16.5990100  52.8395110  22.6527390
  15.9566260  52.1850730  22.9271110  16.2120760  53.2450200  21.8768060
  12.1776580  50.1680540  26.4999080  12.5300400  49.5708670  25.8400450
  11.2938910  49.8424770  26.6707330   8.2639860  50.9278230  23.9069490
   8.9510990  51.4747440  24.2877080   7.4772280  51.4718960  23.9419100
   7.5667070  47.9324260  23.5194850   8.0229850  48.7429510  23.7455040
   7.2155280  47.6147400  24.3513340   9.8699680  53.4430600  30.7487150
  10.5141900  53.6489980  31.4260570  10.2329120  52.6819000  30.2958000
   3.4678850  38.2761910  23.9917370   3.3393480  38.2679810  24.9402290
   2.6440870  38.6145000  23.6408380  11.1431760  51.4462950  29.4664600
  11.7853990  50.7456110  29.5796770  11.6681110  52.2261390  29.2861490
  14.9887480  51.7311570  19.1903740  14.7625060  51.0142010  19.7828380
  14.5983680  51.4824010  18.3525490  12.9169380  52.2457850  32.6700660
  13.2525620  52.8324540  33.3478580  11.9969720  52.1150560  32.8998450
  14.5703730  49.6483510  20.8517900  14.2825430  50.1096200  21.6395780
  15.3655900  49.1881280  21.1202120   8.7457960  52.2949180  35.8388720
   8.4254830  51.5758420  36.3834410   8.0716320  52.9704250  35.9124780
   6.7872130  53.1409630  20.7821870   6.7782230  53.8739320  20.1666380
   5.8670490  52.8941210  20.8748830   2.3878770  48.3624520  21.5268630
   1.7806720  49.1023420  21.5363930   2.8628120  48.4523880  20.7006830
  11.9611560  42.5275340  31.2025520  12.3292380  41.7070550  31.5305090
  11.1009760  42.5877230  31.6181170  15.3273590  41.4832280  22.0113080
  14.6986750  41.5877950  21.2971310  14.8325510  41.7029060  22.8006960
   9.7731730  53.2037870  19.4447060   9.8743710  53.0001860  18.5149040
   8.8733470  52.9496150  19.6494840   7.2957620  43.7618230  23.4270960
   6.5873770  44.2304570  23.8684570   7.5802100  43.1040240  24.0616150
   8.9213550  45.1814930  31.4263490   9.4198800  45.6560750  32.0915340
   9.0636500  44.2578450  31.6333520  11.3273050  40.4868890  24.8666750
  11.2040830  40.5055020  23.9176260  12.2757610  40.5347830  24.9865150
   8.4149840  55.7224190  24.1394730   8.6691340  55.6845580  23.2174100
   7.4662320  55.5957520  24.1322980   5.4992640  42.0703310  20.8021670
   6.3483170  42.5073460  20.7361860   5.1323910  42.3823570  21.6293730
  16.1280410  41.3982890  32.2691880  15.6254010  42.1388290  32.6085690
  16.9437070  41.7866890  31.9528670  14.4202420  46.6416070  25.7153240
  13.4792560  46.6566300  25.8900930  14.7346490  45.8552030  26.1613540
   4.3984060  48.3235670  19.2757200   5.1647330  48.2117030  19.8382630
   4.4758750  47.6273640  18.6233970   3.0930820  45.7560740  19.9590090
   3.1734410  44.8088250  20.0707490   3.9850570  46.0867620  20.0650750
  16.4228000  53.8124920  27.3907500  16.5475420  54.6356090  27.8631310
  17.2893560  53.6015650  27.0431650   3.8945530  55.9056130  27.0624630
   4.6308010  55.3571590  27.3333200   4.2786450  56.7712140  26.9230620
   2.9003810  55.0902200  36.2510210   3.7016540  55.4114250  36.6645610
   2.3855630  54.7297780  36.9730120   7.0047840  55.0786440  18.8850200
   7.7976450  55.3675270  18.4331990   6.4852190  54.6478610  18.2062680
  11.7368440  51.1982070  36.1985620  11.1306600  51.2213670  35.4581370
  11.4322550  50.4665110  36.7352870  13.1668810  54.9262360  34.8095030
  14.1190560  54.8420380  34.7595270  13.0197030  55.5904070  35.4828820
  16.0578010  54.3056570  20.3086940  15.7719520  53.8921710  19.4941120
  15.8597560  55.2344280  20.1887460   7.5225240  50.2989850  18.7492550
   7.4175880  49.6842200  19.4753930   7.3549460  49.7755740  17.9655560
   7.6739560  48.9846650  34.7281780   6.9085230  49.5531650  34.6436450
   7.8555520  48.6922860  33.8350010  10.7627970  49.3609880  19.3534540
  10.2138070  49.8079180  19.9977280  11.3847230  48.8559130  19.8772210
  14.8162910  50.7151980  35.2856800  15.5572380  51.0527740  34.7824260
  14.0535590  50.8844040  34.7326570   2.6524700  45.7205250  36.0896330
   2.6930040  45.4219120  36.9981560   3.5070200  46.1212860  35.9303850
   6.4303090  48.3200800  21.2499840   6.8519510  48.1540670  22.0931230
   6.5553930  47.5101030  20.7554980   4.5930510  44.2997350  34.0570820
   4.0626970  43.8088300  33.4294160   5.2618580  44.7281550  33.5228750
   8.9430730  47.3438410  18.4976940   9.4636390  46.6287430  18.1318090
   9.5899130  47.9824280  18.7977450  13.4908570  48.7666810  33.8212010
  13.9049590  48.9211890  34.6702430  12.5559570  48.8922030  33.9837790
  13.9630740  46.1062970  35.8251160  14.5451510  45.3515290  35.7371640
  14.1392510  46.6370410  35.0482640   5.0802810  41.2659720  34.1368110
   4.9859680  40.6480470  33.4118980   4.5000200  41.9926010  33.9098020
   7.8464250  39.8232960  31.1695500   7.3981550  39.8457220  30.3241050
   7.2129450  39.4251980  31.7665800   8.2523800  48.7187290  31.7907940
   8.6711910  49.5620020  31.6184180   7.3332430  48.8559330  31.5614720
  10.5887700  46.4503470  33.1745780  10.7083910  45.8544610  33.9140620
  11.4481700  46.4873160  32.7547080  12.9275600  47.0040660  31.7508290
  12.4010820  47.5283280  31.1473430  13.2706940  47.6368050  32.3818020
   5.3261990  44.3934030  18.1958000   5.1251050  43.5301390  18.5571340
   5.1554040  44.3067390  17.2579600   6.1031220  55.0240300  32.9065670
   5.5652310  55.7486360  32.5874370   6.3565180  54.5470640  32.1163010
   7.3556470  42.9924820  34.4321600   7.9456160  42.6840670  35.1199420
   6.5376710  42.5204570  34.5881500  12.1749900  42.6090630  34.6654620
  11.4865420  41.9472170  34.6004610  12.8955920  42.1628900  35.1103080
  12.8050300  39.2042260  20.7244880  13.0852590  38.3610160  21.0804300
  12.0316030  39.4365370  21.2383630   4.1244790  41.4934650  18.1835880
   4.4270690  41.5002080  17.2755030   4.8639380  41.1432510  18.6803540
   8.9593430  56.2591510  33.1652320   8.8852130  57.1626650  33.4724690
   8.0572270  55.9403410  33.1374390   7.3429720  40.4369270  19.1692080
   6.9951720  39.7593260  18.5894530   7.5442490  39.9758780  19.9835470
   9.5078760  55.4250020  20.7878680  10.4029550  55.7634990  20.8097440
   9.5396390  54.7029430  20.1602960   3.1474920  50.7977070  19.0165680
   3.5849790  51.3406740  19.6723260   3.6322650  49.9724020  19.0262020
   4.9582640  51.9175110  24.1287910   4.6578180  51.7940080  25.0291820
   4.8520130  51.0583700  23.7203640  16.4873110  53.9553690  33.4944880
  15.8875100  54.0146250  32.7508800  16.6167010  53.0158670  33.6241730
  17.7274560  51.6971510  18.8314590  16.8967520  51.7648160  19.3021820
  17.9046390  52.5875630  18.5281450  17.1831020  48.4418990  21.3348790
  17.9449930  49.0115640  21.4408480  17.1985390  47.8746190  22.1057100
  18.1890990  49.2969090  26.1790720  18.5599820  48.5136410  25.7726690
  18.8292920  49.9858190  26.0008020  15.1724750  50.6805670  31.5921040
  14.3584590  51.1102830  31.8546830  15.5798950  51.2924080  30.9790090
  17.2350190  48.7353360  18.4921310  17.5099030  49.6432240  18.3640530
  17.0460930  48.6715890  19.4283300  13.6325800  41.7598210  19.7874940
  14.0510680  41.5729190  18.9471600  13.3261860  40.9077260  20.0977870
  17.1315530  46.6722350  23.4850740  16.7559130  45.9050280  23.0532030
  16.4018650  47.0545050  23.9725670  16.5215150  45.8193870  33.1190260
  16.2901240  45.5906620  32.2188210  16.7819700  46.7393420  33.0735150
  14.9603220  41.0450300  35.8969960  15.8373400  41.0533700  36.2803960
  14.9724060  40.3081140  35.2862310  16.4066490  44.8979840  26.7857980
  16.9303970  44.4042490  26.1548150  16.9925910  45.0330200  27.5305550
  16.5856210  44.9819710  30.3077530  15.6358920  44.9483250  30.4222520
  16.7669220  45.8919820  30.0727300   2.0874810  39.2860720  18.4578810
   2.8102940  39.8269660  18.7760030   2.3599330  39.0124140  17.5820350
  15.8966460  44.1553190  22.7250390  16.3925580  43.9224060  23.5099270
  15.6982530  43.3165030  22.3088030   1.7767000  38.5366910  28.3601430
   2.4243190  37.9864290  27.9196590   2.1968840  38.7910060  29.1817240
  17.3253620  42.7914140  25.2588070  17.2152900  42.6370180  26.1970340
  18.0861210  42.2635080  25.0163480  15.6719340  38.7308270  31.7171070
  16.3091560  39.3442410  32.0830260  15.8194230  38.7668930  30.7720300
  18.2143890  40.6222060  18.4994210  19.1393200  40.4903240  18.2912500
  18.1919680  40.7014880  19.4530660  18.2882380  41.3932720  21.1250920
  17.4933880  41.3277840  21.6543830  18.4925660  42.3283360  21.1136270
  15.2300800  55.4324270  25.1189310  15.8259870  55.1108840  24.4423730
  15.4878950  54.9596090  25.9102580   3.1363370  51.8642180  35.2679940
   3.0933000  51.4935090  36.1494400   3.2674380  52.8019750  35.4081760
   6.8369400  53.4201770  30.8689660   6.5960760  53.6876330  29.9820180
   7.7772040  53.5907500  30.9240520   9.0423820  39.8834460  34.6246170
   8.9812710  40.4756290  35.3741580   9.9824200  39.7760420  34.4796430
  11.6798380  39.5404520  34.2638460  12.2938790  39.8583810  33.6019540
  12.2247940  39.0553110  34.8834320  18.0973560  55.4396150  31.6700300
  17.6031840  55.8365020  30.9527430  17.4886850  54.8145360  32.0637580
   2.2019640  38.2198780  34.3777520   2.7502630  38.0386830  33.6143630
   2.2674950  37.4292890  34.9133830   2.9751400  54.8104430  32.3877720
   2.3811720  54.6789130  33.1267760   2.9675240  53.9742570  31.9219820
  12.4206420  38.1036660  30.5907750  11.5466260  38.4371770  30.3880680
  12.3117170  37.6309840  31.4159620  13.3278400  40.3107530  31.9749470
  12.9991760  39.4959290  31.5951200  14.2760700  40.2677340  31.8515160
  15.7813010  56.0819570  28.9487040  15.3215980  56.8335380  28.5745060
  15.1525470  55.3626040  28.8901840   2.6063630  52.1762810  31.3385760
   1.8797690  51.5568100  31.2711710   2.6672780  52.5703420  30.4683840
   6.2108730  54.3907810  28.1235170   6.7273750  53.7795170  27.5983430
   6.8606110  54.8936590  28.6146180   8.9504230  55.2816300  28.9504150
   9.2382040  55.0270600  28.0737160   9.4627450  54.7293660  29.5409720
  10.1681240  39.0206500  29.5300660   9.3853030  39.4952000  29.8097420
   9.8744170  38.1161330  29.4213840  14.7202310  39.7229600  27.5749750
  15.1610400  39.6674700  26.7271350  14.4509900  40.6387610  27.6459930
  16.5840880  39.3544840  25.5858570  16.5229280  38.4106060  25.4389590
  17.3632910  39.4624930  26.1312030   8.0535460  41.4393250  25.0416690
   7.2409970  41.0650140  24.7012570   8.5577100  40.6838330  25.3437880
  12.5560440  38.1035700  26.2799760  13.1589810  38.6755910  26.7548280
  11.8153430  38.6675140  26.0573660  15.6995040  38.5057260  21.5540040
  15.8945670  39.4040710  21.8207470  14.9124910  38.2744340  22.0472990
   2.4956330  54.1870430  21.9932660   1.9703950  54.5678460  21.2894620
   2.4200910  54.8121200  22.7142370   3.8846800  39.8518030  20.5916350
   4.4139560  39.0647830  20.4624300   4.5175120  40.5309220  20.8251880
   6.0784640  39.5893170  23.6461740   5.4487380  38.8880480  23.8131870
   5.5389780  40.3497300  23.4294900   9.0176590  56.2032400  36.3172350
   9.9443900  55.9676670  36.3608310   9.0027020  57.0304400  35.8358380
  17.2521650  55.7457970  23.3146600  17.4273840  55.0595710  22.6707520
  16.5543220  56.2705020  22.9223270   6.2040200  38.8677150  36.0814230
   5.9224470  39.3710750  35.3175050   6.5859900  38.0698900  35.7156360
   5.0949300  56.1352810  20.8681910   5.8268120  55.8512090  20.3205800
   5.3542970  55.8966090  21.7581290   4.2564090  52.2517540  20.8728240
   3.6272970  52.7202640  21.4214070   4.3711920  51.4066760  21.3074430
  12.8055660  38.2830730  36.6594700  12.6921110  38.6025340  37.5546220
  13.6225400  38.6843240  36.3631980  15.5854150  55.4302260  36.1413390
  16.3779470  54.9351490  35.9339350  15.8787300  56.1092400  36.7489000
  11.7113810  46.3023200   7.0229440  11.6307860  45.3877810   6.7521150
  11.2978230  46.7990270   6.3169150   9.8431850  48.0802220   8.9038710
   9.0673950  47.6002660   9.1937280  10.4944780  47.4007870   8.7294870
   3.8597680  48.3922030   9.7814470   3.0282560  48.1370740  10.1810980
   4.4678660  48.4632800  10.5172390  13.8639280  52.4862410   7.6837840
  13.4020810  51.7149650   8.0125010  14.6764830  52.5128480   8.1890290
   3.8398940  52.4262120   9.9772490   4.1426980  51.5359860   9.7982710
   4.5842530  52.9832340   9.7494740  10.0902590  54.7720420   7.3041830
   9.4714030  55.2277920   6.7336270  10.9454370  54.9271880   6.9031530
   9.2840840  50.7559410   8.9108870   9.2149120  49.8149350   8.7498000
  10.0460700  50.8460820   9.4831440  10.3146010  43.5629790   9.1377800
  10.6910830  42.6901670   9.0251470  10.2165520  43.8988490   8.2468240
   4.4451020  41.9355420   4.5995240   4.5517770  42.8359150   4.9064000
   3.5343380  41.8873390   4.3089890  14.0970130  41.0580230   6.0706140
  14.9179750  40.5676800   6.1131620  14.1304210  41.6477890   6.8237980
   2.0934180  43.8574430   9.8447830   2.7744290  44.1212800  10.4635230
   1.7782230  43.0175300  10.1785840   6.2858750  44.9041790   8.9320420
   6.7936970  45.4022760   9.5725440   6.8171990  44.1276990   8.7559780
  18.3869680  43.0746980  12.6349770  17.6821850  43.4628690  12.1164880
  18.6527600  43.7697270  13.2370700   4.5694850  39.5440350  13.1983840
   4.5713290  40.0612740  12.3929740   3.7399160  39.0670530  13.1753770
  10.9565940  49.6559660   4.6973740  10.3383210  50.1209110   4.1336460
  11.4689190  50.3487140   5.1143250   5.8197700  49.1835530  11.3757340
   5.4867080  49.8104450  12.0178410   5.9964380  49.7097410  10.5959010
  14.3331610  42.9980610   8.8433680  13.6287180  43.2865500   9.4236790
  14.6943770  43.8080720   8.4833240   4.2510180  41.2550310  11.2054290
   4.5926990  42.0992360  10.9108160   3.3125990  41.4034050  11.3219630
   5.0316800  51.1516330  13.1906520   5.6490800  51.8267410  12.9090970
   4.1709920  51.5604310  13.0994020  15.9494390  52.6155740  11.1061160
  15.2657910  53.2854850  11.0977830  16.4888680  52.8136390  10.3406020
  17.4018530  42.4435400   9.2342890  16.4543440  42.4774380   9.3658320
  17.7268520  43.2574350   9.6192250   7.9338070  38.7432580   7.5298880
   8.2413050  38.1879470   6.8134380   7.0038770  38.8777040   7.3471870
  13.4853130  54.4599870   9.8206340  13.4980290  54.0562160   8.9528600
  12.9328350  55.2347160   9.7167770  14.7798550  51.1816090   4.9096510
  14.6694880  50.2390420   5.0345930  14.7766800  51.5431730   5.7959270
  12.8838570  49.3629710  11.1488950  13.3007360  49.1489820  10.3142410
  13.6078390  49.6202500  11.7197570  10.3218830  46.8081410   4.2659000
   9.3948110  46.7418790   4.4947470  10.4743650  47.7461540   4.1514240
  16.8300670  47.7616930  11.2405190  16.0019300  47.8310020  10.7655320
  17.4251150  48.3471240  10.7721020  14.3516120  48.3701710   4.7694250
  13.7328540  48.0321260   4.1220550  14.3340570  47.7261470   5.4773440
  13.7942680  44.5486250  12.1860060  13.3813860  45.3739960  12.4400050
  13.0618630  43.9631290  11.9936420   5.9275470  47.3346150   7.0478730
   5.5232470  46.6223400   6.5524630   6.0138590  46.9899390   7.9366770
   6.3957170  51.0213710   9.2117940   6.0985460  50.4159180   8.5325720
   7.3456990  51.0591020   9.1007300   4.6404090  44.1089360  10.8277770
   5.1918680  44.2184700  10.0531020   5.1547600  44.4826960  11.5433000
  14.4842780  54.5945580  12.8741040  14.0073340  55.4017770  12.6813650
  13.8004570  53.9423910  13.0267250   5.4875600  50.7595400  15.8625740
   4.5904130  50.9835370  16.1099140   5.5128470  50.8830340  14.9137140
  12.5280820  47.6088520   1.7767000  12.9674100  46.7710950   1.6304820
  13.2409240  48.2417920   1.8631140   4.3146820  47.6308720  14.4383110
   4.1754590  48.5031520  14.8070510   3.4328180  47.2881530  14.2931050
  10.6376200  52.5484590   5.7448240  11.0772110  53.2908920   5.3303630
  10.5763090  52.7911160   6.6687200   6.1127170  53.5730420  16.6468260
   6.0842600  53.9773370  15.7796690   5.9492140  52.6440780  16.4839860
   2.6280100  46.2291130   4.5485380   2.5077700  46.9553220   3.9366650
   2.3180990  45.4594040   4.0713290  18.0641990  54.3557520  17.9432430
  18.5401710  54.8340410  18.6221510  18.6849150  54.2875010  17.2177930
  17.4675240  51.5470370  15.1032440  17.5938300  51.3082250  14.1849620
  17.5096620  50.7154910  15.5754520  11.3291980  55.2498370  13.6727250
  11.8436650  55.1606380  14.4749680  10.4861060  55.5958070  13.9655160
  13.3046380  55.5353710   3.1011250  13.1447520  55.2456650   3.9993080
  13.1393090  54.7593840   2.5656480   5.7834760  55.3152240   4.8782870
   5.6077240  54.3987780   4.6650670   4.9290500  55.6739530   5.1180670
  12.5722440  54.6703980   5.7357740  13.0279390  53.8893360   6.0496360
  12.9114960  55.3810800   6.2798920  17.3199250  43.6002830  16.0682180
  16.7043520  44.1082500  15.5397640  16.9995670  42.7001160  16.0108120
   5.0943760  39.5726200   7.9309050   4.6511910  40.3535740   7.5993570
   5.6528750  39.8956090   8.6379990   9.3813570  42.4394720  13.5344370
   8.9192940  42.6477740  14.3464310   8.9791680  41.6254070  13.2315040
  14.3818080  43.6603670  14.6641030  13.5311670  43.3609420  14.9850100
  14.2219870  43.9045680  13.7524850  11.4767790  45.1605420  16.7639820
  11.8021200  44.3269170  16.4242050  12.2648120  45.6833940  16.9118150
   8.2102580  39.1936900   2.8114880   7.5856760  39.1896770   3.5368190
   8.1232700  38.3267860   2.4150850   7.1319660  40.1173530   9.7898650
   7.4291990  41.0236360   9.7090670   7.6805220  39.6292310   9.1758220
   4.8857980  44.6959770   5.6590300   4.6598900  44.4796940   6.5636920
   4.1050510  45.1288230   5.3136270  12.1155740  44.7023140   4.2580950
  11.5164630  45.4258940   4.0744570  12.6635350  44.6399920   3.4757400
   7.3257190  45.5945350  16.3250570   7.2300790  44.6540080  16.1750970
   8.1689170  45.8160420  15.9298640  10.7220610  43.3386680   6.2884230
  11.1150180  43.6558880   5.4752920  11.0837460  42.4598560   6.4028750
   2.4567730  42.0059020  14.4784350   2.0631120  42.8534230  14.6857130
   1.7686130  41.3685390  14.6692990   9.0312780  42.0893990  17.5481090
   8.3411100  41.8966190  18.1827180   9.7745080  42.3728630  18.0805390
  11.3075750  45.9292430  10.3835010  10.5756870  46.4379240  10.7325110
  10.9100090  45.1122410  10.0823790   7.7453140  42.6046630   8.7887500
   7.7489200  42.1636580   7.9392040   8.6404260  42.9263960   8.8959320
   3.5955520  42.4873120   7.7481710   3.2555570  42.9648350   8.5048760
   2.8332840  42.0338240   7.3882810   7.8073290  43.6058710   1.7794260
   7.9286110  43.5645190   2.7280080   7.4221800  44.4682860   1.6240990
  11.7701660  41.3826110   9.7957950  11.7874400  41.8334760  10.6399800
  11.5217240  40.4831750  10.0091390  15.1972410  38.7958290  15.6344330
  15.5218180  38.0647950  16.1602310  15.2328920  38.4771930  14.7325320
   8.0461110  46.6648410  10.5352910   8.4131240  46.1906980  11.2814250
   7.8566170  47.5389980  10.8761250   5.8360480  45.7057050  12.8537120
   5.5317550  46.5849030  13.0787480   6.7906940  45.7656840  12.8894560
   4.3642270  49.9118040   3.4503970   3.5904530  49.3715660   3.2902690
   5.0936900  49.3924650   3.1121730  15.1230250  48.9083400   9.2430360
  15.8429370  49.4038690   8.8526470  14.9212070  48.2301290   8.5984230
  10.5840190  40.3021360   3.3859750   9.7704800  39.8034530   3.3105060
  10.3902140  41.1419610   2.9696100  10.5049050  48.9792460  15.1299360
  10.4386360  48.0588130  14.8756950   9.8754190  49.0767900  15.8444000
   4.4079670  49.5798420   7.0882780   4.9258340  48.7766680   7.0339670
   3.9563690  49.5177560   7.9299610   9.2949170  50.8464700   2.3610080
   9.6364870  51.5906930   1.8653400   8.4661880  51.1595820   2.7234910
   5.0937330  47.0044030  16.8848030   4.7937470  47.1501210  15.9875850
   5.8648570  46.4449320  16.7921420  10.4365780  51.8013030  14.8803160
  10.4510320  50.8693990  14.6622070   9.7290880  51.8872790  15.5192930
  16.6476990  48.4420370  14.2271740  15.9225180  49.0349150  14.0301130
  17.1752450  48.4343910  13.4285110  16.5990100  52.8395110   3.8783900
  15.9566260  52.1850730   4.1527620  16.2120760  53.2450200   3.1024570
  12.1776580  50.1680540   7.7255590  12.5300400  49.5708670   7.0656960
  11.2938910  49.8424770   7.8963840   8.2639860  50.9278230   5.1326000
   8.9510990  51.4747440   5.5133590   7.4772280  51.4718960   5.1675610
   7.5667070  47.9324260   4.7451360   8.0229850  48.7429510   4.9711550
   7.2155280  47.6147400   5.5769850   9.8699680  53.4430600  11.9743660
  10.5141900  53.6489980  12.6517080  10.2329120  52.6819000  11.5214510
   3.4678850  38.2761910   5.2173880   3.3393480  38.2679810   6.1658800
   2.6440870  38.6145000   4.8664890  11.1431760  51.4462950  10.6921110
  11.7853990  50.7456110  10.8053280  11.6681110  52.2261390  10.5118000
  12.9169380  52.2457850  13.8957170  13.2525620  52.8324540  14.5735090
  11.9969720  52.1150560  14.1254960  14.5703730  49.6483510   2.0774410
  14.2825430  50.1096200   2.8652290  15.3655900  49.1881280   2.3458630
   8.7457960  52.2949180  17.0645230   8.4254830  51.5758420  17.6090920
   8.0716320  52.9704250  17.1381290   6.7872130  53.1409630   2.0078380
   6.7782230  53.8739320   1.3922890   5.8670490  52.8941210   2.1005340
   2.3878770  48.3624520   2.7525140   1.7806720  49.1023420   2.7620440
   2.8628120  48.4523880   1.9263340  11.9611560  42.5275340  12.4282030
  12.3292380  41.7070550  12.7561600  11.1009760  42.5877230  12.8437680
  15.3273590  41.4832280   3.2369590  14.6986750  41.5877950   2.5227820
  14.8325510  41.7029060   4.0263470   7.2957620  43.7618230   4.6527470
   6.5873770  44.2304570   5.0941080   7.5802100  43.1040240   5.2872660
   8.9213550  45.1814930  12.6520000   9.4198800  45.6560750  13.3171850
   9.0636500  44.2578450  12.8590030  11.3273050  40.4868890   6.0923260
  11.2040830  40.5055020   5.1432770  12.2757610  40.5347830   6.2121660
   8.4149840  55.7224190   5.3651240   8.6691340  55.6845580   4.4430610
   7.4662320  55.5957520   5.3579490   5.4992640  42.0703310   2.0278180
   6.3483170  42.5073460   1.9618370   5.1323910  42.3823570   2.8550240
  16.1280410  41.3982890  13.4948390  15.6254010  42.1388290  13.8342200
  16.9437070  41.7866890  13.1785180  14.4202420  46.6416070   6.9409750
  13.4792560  46.6566300   7.1157440  14.7346490  45.8552030   7.3870050
  16.4228000  53.8124920   8.6164010  16.5475420  54.6356090   9.0887820
  17.2893560  53.6015650   8.2688160   3.8945530  55.9056130   8.2881140
   4.6308010  55.3571590   8.5589710   4.2786450  56.7712140   8.1487130
   2.9003810  55.0902200  17.4766720   3.7016540  55.4114250  17.8902120
   2.3855630  54.7297780  18.1986630  11.7368440  51.1982070  17.4242130
  11.1306600  51.2213670  16.6837880  11.4322550  50.4665110  17.9609380
  13.1668810  54.9262360  16.0351540  14.1190560  54.8420380  15.9851780
  13.0197030  55.5904070  16.7085330   7.6739560  48.9846650  15.9538290
   6.9085230  49.5531650  15.8692960   7.8555520  48.6922860  15.0606520
  14.8162910  50.7151980  16.5113310  15.5572380  51.0527740  16.0080770
  14.0535590  50.8844040  15.9583080   2.6524700  45.7205250  17.3152840
   2.6930040  45.4219120  18.2238070   3.5070200  46.1212860  17.1560360
   6.4303090  48.3200800   2.4756350   6.8519510  48.1540670   3.3187740
   6.5553930  47.5101030   1.9811490   4.5930510  44.2997350  15.2827330
   4.0626970  43.8088300  14.6550670   5.2618580  44.7281550  14.7485260
  13.4908570  48.7666810  15.0468520  13.9049590  48.9211890  15.8958940
  12.5559570  48.8922030  15.2094300  13.9630740  46.1062970  17.0507670
  14.5451510  45.3515290  16.9628150  14.1392510  46.6370410  16.2739150
   5.0802810  41.2659720  15.3624620   4.9859680  40.6480470  14.6375490
   4.5000200  41.9926010  15.1354530   7.8464250  39.8232960  12.3952010
   7.3981550  39.8457220  11.5497560   7.2129450  39.4251980  12.9922310
   8.2523800  48.7187290  13.0164450   8.6711910  49.5620020  12.8440690
   7.3332430  48.8559330  12.7871230  10.5887700  46.4503470  14.4002290
  10.7083910  45.8544610  15.1397130  11.4481700  46.4873160  13.9803590
  12.9275600  47.0040660  12.9764800  12.4010820  47.5283280  12.3729940
  13.2706940  47.6368050  13.6074530   6.1031220  55.0240300  14.1322180
   5.5652310  55.7486360  13.8130880   6.3565180  54.5470640  13.3419520
   7.3556470  42.9924820  15.6578110   7.9456160  42.6840670  16.3455930
   6.5376710  42.5204570  15.8138010  12.1749900  42.6090630  15.8911130
  11.4865420  41.9472170  15.8261120  12.8955920  42.1628900  16.3359590
  12.8050300  39.2042260   1.9501390  13.0852590  38.3610160   2.3060810
  12.0316030  39.4365370   2.4640140   8.9593430  56.2591510  14.3908830
   8.8852130  57.1626650  14.6981200   8.0572270  55.9403410  14.3630900
   9.5078760  55.4250020   2.0135190  10.4029550  55.7634990   2.0353950
   9.5396390  54.7029430   1.3859470   4.9582640  51.9175110   5.3544420
   4.6578180  51.7940080   6.2548330   4.8520130  51.0583700   4.9460150
  16.4873110  53.9553690  14.7201390  15.8875100  54.0146250  13.9765310
  16.6167010  53.0158670  14.8498240  17.1831020  48.4418990   2.5605300
  17.9449930  49.0115640   2.6664990  17.1985390  47.8746190   3.3313610
  18.1890990  49.2969090   7.4047230  18.5599820  48.5136410   6.9983200
  18.8292920  49.9858190   7.2264530  15.1724750  50.6805670  12.8177550
  14.3584590  51.1102830  13.0803340  15.5798950  51.2924080  12.2046600
  17.1315530  46.6722350   4.7107250  16.7559130  45.9050280   4.2788540
  16.4018650  47.0545050   5.1982180  16.5215150  45.8193870  14.3446770
  16.2901240  45.5906620  13.4444720  16.7819700  46.7393420  14.2991660
  14.9603220  41.0450300  17.1226470  15.8373400  41.0533700  17.5060470
  14.9724060  40.3081140  16.5118820  16.4066490  44.8979840   8.0114490
  16.9303970  44.4042490   7.3804660  16.9925910  45.0330200   8.7562060
  16.5856210  44.9819710  11.5334040  15.6358920  44.9483250  11.6479030
  16.7669220  45.8919820  11.2983810  15.8966460  44.1553190   3.9506900
  16.3925580  43.9224060   4.7355780  15.6982530  43.3165030   3.5344540
   1.7767000  38.5366910   9.5857940   2.4243190  37.9864290   9.1453100
   2.1968840  38.7910060  10.4073750  17.3253620  42.7914140   6.4844580
  17.2152900  42.6370180   7.4226850  18.0861210  42.2635080   6.2419990
  15.6719340  38.7308270  12.9427580  16.3091560  39.3442410  13.3086770
  15.8194230  38.7668930  11.9976810  18.2882380  41.3932720   2.3507430
  17.4933880  41.3277840   2.8800340  18.4925660  42.3283360   2.3392780
  15.2300800  55.4324270   6.3445820  15.8259870  55.1108840   5.6680240
  15.4878950  54.9596090   7.1359090   3.1363370  51.8642180  16.4936450
   3.0933000  51.4935090  17.3750910   3.2674380  52.8019750  16.6338270
   6.8369400  53.4201770  12.0946170   6.5960760  53.6876330  11.2076690
   7.7772040  53.5907500  12.1497030   9.0423820  39.8834460  15.8502680
   8.9812710  40.4756290  16.5998090   9.9824200  39.7760420  15.7052940
  11.6798380  39.5404520  15.4894970  12.2938790  39.8583810  14.8276050
  12.2247940  39.0553110  16.1090830  18.0973560  55.4396150  12.8956810
  17.6031840  55.8365020  12.1783940  17.4886850  54.8145360  13.2894090
   2.2019640  38.2198780  15.6034030   2.7502630  38.0386830  14.8400140
   2.2674950  37.4292890  16.1390340   2.9751400  54.8104430  13.6134230
   2.3811720  54.6789130  14.3524270   2.9675240  53.9742570  13.1476330
  12.4206420  38.1036660  11.8164260  11.5466260  38.4371770  11.6137190
  12.3117170  37.6309840  12.6416130  13.3278400  40.3107530  13.2005980
  12.9991760  39.4959290  12.8207710  14.2760700  40.2677340  13.0771670
  15.7813010  56.0819570  10.1743550  15.3215980  56.8335380   9.8001570
  15.1525470  55.3626040  10.1158350   2.6063630  52.1762810  12.5642270
   1.8797690  51.5568100  12.4968220   2.6672780  52.5703420  11.6940350
   6.2108730  54.3907810   9.3491680   6.7273750  53.7795170   8.8239940
   6.8606110  54.8936590   9.8402690   8.9504230  55.2816300  10.1760660
   9.2382040  55.0270600   9.2993670   9.4627450  54.7293660  10.7666230
  10.1681240  39.0206500  10.7557170   9.3853030  39.4952000  11.0353930
   9.8744170  38.1161330  10.6470350  14.7202310  39.7229600   8.8006260
  15.1610400  39.6674700   7.9527860  14.4509900  40.6387610   8.8716440
  16.5840880  39.3544840   6.8115080  16.5229280  38.4106060   6.6646100
  17.3632910  39.4624930   7.3568540   8.0535460  41.4393250   6.2673200
   7.2409970  41.0650140   5.9269080   8.5577100  40.6838330   6.5694390
  12.5560440  38.1035700   7.5056270  13.1589810  38.6755910   7.9804790
  11.8153430  38.6675140   7.2830170  15.6995040  38.5057260   2.7796550
  15.8945670  39.4040710   3.0463980  14.9124910  38.2744340   3.2729500
   2.4956330  54.1870430   3.2189170   1.9703950  54.5678460   2.5151130
   2.4200910  54.8121200   3.9398880   3.8846800  39.8518030   1.8172860
   4.4139560  39.0647830   1.6880810   4.5175120  40.5309220   2.0508390
   6.0784640  39.5893170   4.8718250   5.4487380  38.8880480   5.0388380
   5.5389780  40.3497300   4.6551410   9.0176590  56.2032400  17.5428860
   9.9443900  55.9676670  17.5864820   9.0027020  57.0304400  17.0614890
  17.2521650  55.7457970   4.5403110  17.4273840  55.0595710   3.8964030
  16.5543220  56.2705020   4.1479780   6.2040200  38.8677150  17.3070740
   5.9224470  39.3710750  16.5431560   6.5859900  38.0698900  16.9412870
   5.0949300  56.1352810   2.0938420   5.8268120  55.8512090   1.5462310
   5.3542970  55.8966090   2.9837800   4.2564090  52.2517540   2.0984750
   3.6272970  52.7202640   2.6470580   4.3711920  51.4066760   2.5330940
  12.8055660  38.2830730  17.8851210  12.6921110  38.6025340  18.7802730
  13.6225400  38.6843240  17.5888490  15.5854150  55.4302260  17.3669900
  16.3779470  54.9351490  17.1595860  15.8787300  56.1092400  17.9745510
  11.7113810  27.5279710  63.3459910  11.6307860  26.6134320  63.0751620
  11.2978230  28.0246780  62.6399620   9.8431850  29.3058730  65.2269180
   9.0673950  28.8259170  65.5167750  10.4944780  28.6264380  65.0525340
   3.8597680  29.6178540  66.1044940   3.0282560  29.3627250  66.5041450
   4.4678660  29.6889310  66.8402860  13.8639280  33.7118920  64.0068310
  13.4020810  32.9406160  64.3355480  14.6764830  33.7384990  64.5120760
   3.8398940  33.6518630  66.3002960   4.1426980  32.7616370  66.1213180
   4.5842530  34.2088850  66.0725210  10.0902590  35.9976930  63.6272300
   9.4714030  36.4534430  63.0566740  10.9454370  36.1528390  63.2262000
   9.2840840  31.9815920  65.2339340   9.2149120  31.0405860  65.0728470
  10.0460700  32.0717330  65.8061910  10.3146010  24.7886300  65.4608270
  10.6910830  23.9158180  65.3481940  10.2165520  25.1245000  64.5698710
   4.4451020  23.1611930  60.9225710   4.5517770  24.0615660  61.2294470
   3.5343380  23.1129900  60.6320360  14.0970130  22.2836740  62.3936610
  14.9179750  21.7933310  62.4362090  14.1304210  22.8734400  63.1468450
   2.0934180  25.0830940  66.1678300   2.7744290  25.3469310  66.7865700
   1.7782230  24.2431810  66.5016310   6.2858750  26.1298300  65.2550890
   6.7936970  26.6279270  65.8955910   6.8171990  25.3533500  65.0790250
  18.3869680  24.3003490  68.9580240  17.6821850  24.6885200  68.4395350
  18.6527600  24.9953780  69.5601170   4.5694850  20.7696860  69.5214310
   4.5713290  21.2869250  68.7160210   3.7399160  20.2927040  69.4984240
  10.9565940  30.8816170  61.0204210  10.3383210  31.3465620  60.4566930
  11.4689190  31.5743650  61.4373720   5.8197700  30.4092040  67.6987810
   5.4867080  31.0360960  68.3408880   5.9964380  30.9353920  66.9189480
  14.3331610  24.2237120  65.1664150  13.6287180  24.5122010  65.7467260
  14.6943770  25.0337230  64.8063710   4.2510180  22.4806820  67.5284760
   4.5926990  23.3248870  67.2338630   3.3125990  22.6290560  67.6450100
   5.0316800  32.3772840  69.5136990   5.6490800  33.0523920  69.2321440
   4.1709920  32.7860820  69.4224490  15.9494390  33.8412250  67.4291630
  15.2657910  34.5111360  67.4208300  16.4888680  34.0392900  66.6636490
  17.4018530  23.6691910  65.5573360  16.4543440  23.7030890  65.6888790
  17.7268520  24.4830860  65.9422720   7.9338070  19.9689090  63.8529350
   8.2413050  19.4135980  63.1364850   7.0038770  20.1033550  63.6702340
  13.4853130  35.6856380  66.1436810  13.4980290  35.2818670  65.2759070
  12.9328350  36.4603670  66.0398240  14.7798550  32.4072600  61.2326980
  14.6694880  31.4646930  61.3576400  14.7766800  32.7688240  62.1189740
  12.8838570  30.5886220  67.4719420  13.3007360  30.3746330  66.6372880
  13.6078390  30.8459010  68.0428040  10.3218830  28.0337920  60.5889470
   9.3948110  27.9675300  60.8177940  10.4743650  28.9718050  60.4744710
  10.3087910  24.3054920  57.5856630   9.3691580  24.4668880  57.6709090
  10.6271170  25.0240600  57.0392620  16.8300670  28.9873440  67.5635660
  16.0019300  29.0566530  67.0885790  17.4251150  29.5727750  67.0951490
  14.3516120  29.5958220  61.0924720  13.7328540  29.2577770  60.4451020
  14.3340570  28.9517980  61.8003910  13.7942680  25.7742760  68.5090530
  13.3813860  26.5996470  68.7630520  13.0618630  25.1887800  68.3166890
   5.9275470  28.5602660  63.3709200   5.5232470  27.8479910  62.8755100
   6.0138590  28.2155900  64.2597240   6.3957170  32.2470220  65.5348410
   6.0985460  31.6415690  64.8556190   7.3456990  32.2847530  65.4237770
   4.6404090  25.3345870  67.1508240   5.1918680  25.4441210  66.3761490
   5.1547600  25.7083470  67.8663470  14.4842780  35.8202090  69.1971510
  14.0073340  36.6274280  69.0044120  13.8004570  35.1680420  69.3497720
  12.5280820  28.8345030  58.0997470  12.9674100  27.9967460  57.9535290
  13.2409240  29.4674430  58.1861610   4.3146820  28.8565230  70.7613580
   4.1754590  29.7288030  71.1300980   3.4328180  28.5138040  70.6161520
  10.6376200  33.7741100  62.0678710  11.0772110  34.5165430  61.6534100
  10.5763090  34.0167670  62.9917670  16.1097960  20.0887840  56.4138510
  15.7970620  20.1814670  57.3137580  16.8710430  20.6668870  56.3635940
   2.6280100  27.4547640  60.8715850   2.5077700  28.1809730  60.2597120
   2.3180990  26.6850550  60.3943760  17.4675240  32.7726880  71.4262910
  17.5938300  32.5338760  70.5080090  17.5096620  31.9411420  71.8984990
  11.3291980  36.4754880  69.9957720  11.8436650  36.3862890  70.7980150
  10.4861060  36.8214580  70.2885630  13.3046380  36.7610220  59.4241720
  13.1447520  36.4713160  60.3223550  13.1393090  35.9850350  58.8886950
   5.7834760  36.5408750  61.2013340   5.6077240  35.6244290  60.9881140
   4.9290500  36.8996040  61.4411140  13.0072510  34.2697780  57.9839720
  12.3137670  34.2675070  57.3242000  13.7495370  33.8457100  57.5533890
  12.5722440  35.8960490  62.0588210  13.0279390  35.1149870  62.3726830
  12.9114960  36.6067310  62.6029390   5.0943760  20.7982710  64.2539520
   4.6511910  21.5792250  63.9224040   5.6528750  21.1212600  64.9610460
   9.3813570  23.6651230  69.8574840   8.9192940  23.8734250  70.6694780
   8.9791680  22.8510580  69.5545510  14.3818080  24.8860180  70.9871500
  13.5311670  24.5865930  71.3080570  14.2219870  25.1302190  70.0755320
   8.2102580  20.4193410  59.1345350   7.5856760  20.4153280  59.8598660
   8.1232700  19.5524370  58.7381320   7.1319660  21.3430040  66.1129120
   7.4291990  22.2492870  66.0321140   7.6805220  20.8548820  65.4988690
   4.8857980  25.9216280  61.9820770   4.6598900  25.7053450  62.8867390
   4.1050510  26.3544740  61.6366740  12.1155740  25.9279650  60.5811420
  11.5164630  26.6515450  60.3975040  12.6635350  25.8656430  59.7987870
  10.7220610  24.5643190  62.6114700  11.1150180  24.8815390  61.7983390
  11.0837460  23.6855070  62.7259220   2.4567730  23.2315530  70.8014820
   2.0631120  24.0790740  71.0087600   1.7686130  22.5941900  70.9923460
  11.3075750  27.1548940  66.7065480  10.5756870  27.6635750  67.0555580
  10.9100090  26.3378920  66.4054260   7.7453140  23.8303140  65.1117970
   7.7489200  23.3893090  64.2622510   8.6404260  24.1520470  65.2189790
   3.5955520  23.7129630  64.0712180   3.2555570  24.1904860  64.8279230
   2.8332840  23.2594750  63.7113280   7.8073290  24.8315220  58.1024730
   7.9286110  24.7901700  59.0510550   7.4221800  25.6939370  57.9471460
  11.7701660  22.6082620  66.1188420  11.7874400  23.0591270  66.9630270
  11.5217240  21.7088260  66.3321860   6.8194790  27.1416360  57.5008030
   6.2511690  26.6934610  56.8743940   7.5283790  27.5009140  56.9673180
   8.0461110  27.8904920  66.8583380   8.4131240  27.4163490  67.6044720
   7.8566170  28.7646490  67.1991720   5.8360480  26.9313560  69.1767590
   5.5317550  27.8105540  69.4017950   6.7906940  26.9913350  69.2125030
   4.3642270  31.1374550  59.7734440   3.5904530  30.5972170  59.6133160
   5.0936900  30.6181160  59.4352200  15.1230250  30.1339910  65.5660830
  15.8429370  30.6295200  65.1756940  14.9212070  29.4557800  64.9214700
  10.5840190  21.5277870  59.7090220   9.7704800  21.0291040  59.6335530
  10.3902140  22.3676120  59.2926570  10.5049050  30.2048970  71.4529830
  10.4386360  29.2844640  71.1987420   9.8754190  30.3024410  72.1674470
  13.2988580  25.8997520  58.0052380  14.1868200  26.2114750  57.8303720
  13.2693670  25.0269770  57.6132960   4.4079670  30.8054930  63.4113250
   4.9258340  30.0023190  63.3570140   3.9563690  30.7434070  64.2530080
   9.2949170  32.0721210  58.6840550   9.6364870  32.8163440  58.1883870
   8.4661880  32.3852330  59.0465380  10.4365780  33.0269540  71.2033630
  10.4510320  32.0950500  70.9852540   9.7290880  33.1129300  71.8423400
  15.5702850  27.2109360  57.4732240  15.4866570  27.6423580  56.6228680
  16.2897040  27.6707710  57.9059060  16.6476990  29.6676880  70.5502210
  15.9225180  30.2605660  70.3531600  17.1752450  29.6600420  69.7515580
  16.5990100  34.0651620  60.2014370  15.9566260  33.4107240  60.4758090
  16.2120760  34.4706710  59.4255040  12.1776580  31.3937050  64.0486060
  12.5300400  30.7965180  63.3887430  11.2938910  31.0681280  64.2194310
   8.2639860  32.1534740  61.4556470   8.9510990  32.7003950  61.8364060
   7.4772280  32.6975470  61.4906080   7.5667070  29.1580770  61.0681830
   8.0229850  29.9686020  61.2942020   7.2155280  28.8403910  61.9000320
   9.8699680  34.6687110  68.2974130  10.5141900  34.8746490  68.9747550
  10.2329120  33.9075510  67.8444980   3.4678850  19.5018420  61.5404350
   3.3393480  19.4936320  62.4889270   2.6440870  19.8401510  61.1895360
  11.1431760  32.6719460  67.0151580  11.7853990  31.9712620  67.1283750
  11.6681110  33.4517900  66.8348470  14.9887480  32.9568080  56.7390720
  14.7625060  32.2398520  57.3315360  14.5983680  32.7080520  55.9012470
  12.9169380  33.4714360  70.2187640  13.2525620  34.0581050  70.8965560
  11.9969720  33.3407070  70.4485430  14.5703730  30.8740020  58.4004880
  14.2825430  31.3352710  59.1882760  15.3655900  30.4137790  58.6689100
   6.7872130  34.3666140  58.3308850   6.7782230  35.0995830  57.7153360
   5.8670490  34.1197720  58.4235810   2.3878770  29.5881030  59.0755610
   1.7806720  30.3279930  59.0850910   2.8628120  29.6780390  58.2493810
  11.9611560  23.7531850  68.7512500  12.3292380  22.9327060  69.0792070
  11.1009760  23.8133740  69.1668150  15.3273590  22.7088790  59.5600060
  14.6986750  22.8134460  58.8458290  14.8325510  22.9285570  60.3493940
   9.7731730  34.4294380  56.9934040   9.8743710  34.2258370  56.0636020
   8.8733470  34.1752660  57.1981820   7.2957620  24.9874740  60.9757940
   6.5873770  25.4561080  61.4171550   7.5802100  24.3296750  61.6103130
   8.9213550  26.4071440  68.9750470   9.4198800  26.8817260  69.6402320
   9.0636500  25.4834960  69.1820500  11.3273050  21.7125400  62.4153730
  11.2040830  21.7311530  61.4663240  12.2757610  21.7604340  62.5352130
   8.4149840  36.9480700  61.6881710   8.6691340  36.9102090  60.7661080
   7.4662320  36.8214030  61.6809960   5.4992640  23.2959820  58.3508650
   6.3483170  23.7329970  58.2848840   5.1323910  23.6080080  59.1780710
  16.1280410  22.6239400  69.8178860  15.6254010  23.3644800  70.1572670
  16.9437070  23.0123400  69.5015650  14.4202420  27.8672580  63.2640220
  13.4792560  27.8822810  63.4387910  14.7346490  27.0808540  63.7100520
   4.3984060  29.5492180  56.8244180   5.1647330  29.4373540  57.3869610
   4.4758750  28.8530150  56.1720950   3.0930820  26.9817250  57.5077070
   3.1734410  26.0344760  57.6194470   3.9850570  27.3124130  57.6137730
  16.4228000  35.0381430  64.9394480  16.5475420  35.8612600  65.4118290
  17.2893560  34.8272160  64.5918630   3.8945530  37.1312640  64.6111610
   4.6308010  36.5828100  64.8820180   4.2786450  37.9968650  64.4717600
   7.0047840  36.3042950  56.4337180   7.7976450  36.5931780  55.9818970
   6.4852190  35.8735120  55.7549660  16.0578010  35.5313080  57.8573920
  15.7719520  35.1178220  57.0428100  15.8597560  36.4600790  57.7374440
   7.5225240  31.5246360  56.2979530   7.4175880  30.9098710  57.0240910
   7.3549460  31.0012250  55.5142540  10.7627970  30.5866390  56.9021520
  10.2138070  31.0335690  57.5464260  11.3847230  30.0815640  57.4259190
   6.4303090  29.5457310  58.7986820   6.8519510  29.3797180  59.6418210
   6.5553930  28.7357540  58.3041960   4.5930510  25.5253860  71.6057800
   4.0626970  25.0344810  70.9781140   5.2618580  25.9538060  71.0715730
   8.9430730  28.5694920  56.0463920   9.4636390  27.8543940  55.6805070
   9.5899130  29.2080790  56.3464430  13.4908570  29.9923320  71.3698990
  13.9049590  30.1468400  72.2189410  12.5559570  30.1178540  71.5324770
   5.0802810  22.4916230  71.6855090   4.9859680  21.8736980  70.9605960
   4.5000200  23.2182520  71.4585000   7.8464250  21.0489470  68.7182480
   7.3981550  21.0713730  67.8728030   7.2129450  20.6508490  69.3152780
   8.2523800  29.9443800  69.3394920   8.6711910  30.7876530  69.1671160
   7.3332430  30.0815840  69.1101700  10.5887700  27.6759980  70.7232760
  10.7083910  27.0801120  71.4627600  11.4481700  27.7129670  70.3034060
  12.9275600  28.2297170  69.2995270  12.4010820  28.7539790  68.6960410
  13.2706940  28.8624560  69.9305000   5.3261990  25.6190540  55.7444980
   5.1251050  24.7557900  56.1058320   5.1554040  25.5323900  54.8066580
   6.1031220  36.2496810  70.4552650   5.5652310  36.9742870  70.1361350
   6.3565180  35.7727150  69.6649990  12.8050300  20.4298770  58.2731860
  13.0852590  19.5866670  58.6291280  12.0316030  20.6621880  58.7870610
   4.1244790  22.7191160  55.7322860   4.4270690  22.7258590  54.8242010
   4.8639380  22.3689020  56.2290520   8.9593430  37.4848020  70.7139300
   8.8852130  38.3883160  71.0211670   8.0572270  37.1659920  70.6861370
   7.3429720  21.6625780  56.7179060   6.9951720  20.9849770  56.1381510
   7.5442490  21.2015290  57.5322450   9.5078760  36.6506530  58.3365660
  10.4029550  36.9891500  58.3584420   9.5396390  35.9285940  57.7089940
   3.1474920  32.0233580  56.5652660   3.5849790  32.5663250  57.2210240
   3.6322650  31.1980530  56.5749000   4.9582640  33.1431620  61.6774890
   4.6578180  33.0196590  62.5778800   4.8520130  32.2840210  61.2690620
  16.4873110  35.1810200  71.0431860  15.8875100  35.2402760  70.2995780
  16.6167010  34.2415180  71.1728710  17.7274560  32.9228020  56.3801570
  16.8967520  32.9904670  56.8508800  17.9046390  33.8132140  56.0768430
  17.1831020  29.6675500  58.8835770  17.9449930  30.2372150  58.9895460
  17.1985390  29.1002700  59.6544080  18.1890990  30.5225600  63.7277700
  18.5599820  29.7392920  63.3213670  18.8292920  31.2114700  63.5495000
  15.1724750  31.9062180  69.1408020  14.3584590  32.3359340  69.4033810
  15.5798950  32.5180590  68.5277070  17.2350190  29.9609870  56.0408290
  17.5099030  30.8688750  55.9127510  17.0460930  29.8972400  56.9770280
  13.6325800  22.9854720  57.3361920  14.0510680  22.7985700  56.4958580
  13.3261860  22.1333770  57.6464850  17.1315530  27.8978860  61.0337720
  16.7559130  27.1306790  60.6019010  16.4018650  28.2801560  61.5212650
  16.5215150  27.0450380  70.6677240  16.2901240  26.8163130  69.7675190
  16.7819700  27.9649930  70.6222130  16.4066490  26.1236350  64.3344960
  16.9303970  25.6299000  63.7035130  16.9925910  26.2586710  65.0792530
  16.5856210  26.2076220  67.8564510  15.6358920  26.1739760  67.9709500
  16.7669220  27.1176330  67.6214280   2.0874810  20.5117230  56.0065790
   2.8102940  21.0526170  56.3247010   2.3599330  20.2380650  55.1307330
  15.8966460  25.3809700  60.2737370  16.3925580  25.1480570  61.0586250
  15.6982530  24.5421540  59.8575010   1.7767000  19.7623420  65.9088410
   2.4243190  19.2120800  65.4683570   2.1968840  20.0166570  66.7304220
  17.3253620  24.0170650  62.8075050  17.2152900  23.8626690  63.7457320
  18.0861210  23.4891590  62.5650460  15.6719340  19.9564780  69.2658050
  16.3091560  20.5698920  69.6317240  15.8194230  19.9925440  68.3207280
  18.2143890  21.8478570  56.0481190  19.1393200  21.7159750  55.8399480
  18.1919680  21.9271390  57.0017640  18.2882380  22.6189230  58.6737900
  17.4933880  22.5534350  59.2030810  18.4925660  23.5539870  58.6623250
  15.2300800  36.6580780  62.6676290  15.8259870  36.3365350  61.9910710
  15.4878950  36.1852600  63.4589560   6.8369400  34.6458280  68.4176640
   6.5960760  34.9132840  67.5307160   7.7772040  34.8164010  68.4727500
  18.0973560  36.6652660  69.2187280  17.6031840  37.0621530  68.5014410
  17.4886850  36.0401870  69.6124560   2.9751400  36.0360940  69.9364700
   2.3811720  35.9045640  70.6754740   2.9675240  35.1999080  69.4706800
  12.4206420  19.3293170  68.1394730  11.5466260  19.6628280  67.9367660
  12.3117170  18.8566350  68.9646600  13.3278400  21.5364040  69.5236450
  12.9991760  20.7215800  69.1438180  14.2760700  21.4933850  69.4002140
  15.7813010  37.3076080  66.4974020  15.3215980  38.0591890  66.1232040
  15.1525470  36.5882550  66.4388820   2.6063630  33.4019320  68.8872740
   1.8797690  32.7824610  68.8198690   2.6672780  33.7959930  68.0170820
   6.2108730  35.6164320  65.6722150   6.7273750  35.0051680  65.1470410
   6.8606110  36.1193100  66.1633160   8.9504230  36.5072810  66.4991130
   9.2382040  36.2527110  65.6224140   9.4627450  35.9550170  67.0896700
  10.1681240  20.2463010  67.0787640   9.3853030  20.7208510  67.3584400
   9.8744170  19.3417840  66.9700820  14.7202310  20.9486110  65.1236730
  15.1610400  20.8931210  64.2758330  14.4509900  21.8644120  65.1946910
  16.5840880  20.5801350  63.1345550  16.5229280  19.6362570  62.9876570
  17.3632910  20.6881440  63.6799010   8.0535460  22.6649760  62.5903670
   7.2409970  22.2906650  62.2499550   8.5577100  21.9094840  62.8924860
  12.5560440  19.3292210  63.8286740  13.1589810  19.9012420  64.3035260
  11.8153430  19.8931650  63.6060640  15.6995040  19.7313770  59.1027020
  15.8945670  20.6297220  59.3694450  14.9124910  19.5000850  59.5959970
   2.4956330  35.4126940  59.5419640   1.9703950  35.7934970  58.8381600
   2.4200910  36.0377710  60.2629350   3.8846800  21.0774540  58.1403330
   4.4139560  20.2904340  58.0111280   4.5175120  21.7565730  58.3738860
   6.0784640  20.8149680  61.1948720   5.4487380  20.1136990  61.3618850
   5.5389780  21.5753810  60.9781880  17.2521650  36.9714480  60.8633580
  17.4273840  36.2852220  60.2194500  16.5543220  37.4961530  60.4710250
   5.0949300  37.3609320  58.4168890   5.8268120  37.0768600  57.8692780
   5.3542970  37.1222600  59.3068270   4.2564090  33.4774050  58.4215220
   3.6272970  33.9459150  58.9701050   4.3711920  32.6323270  58.8561410
  11.7113810  27.5279710  44.5716420  11.6307860  26.6134320  44.3008130
  11.2978230  28.0246780  43.8656130   9.8431850  29.3058730  46.4525690
   9.0673950  28.8259170  46.7424260  10.4944780  28.6264380  46.2781850
   3.8597680  29.6178540  47.3301450   3.0282560  29.3627250  47.7297960
   4.4678660  29.6889310  48.0659370  13.8639280  33.7118920  45.2324820
  13.4020810  32.9406160  45.5611990  14.6764830  33.7384990  45.7377270
   3.8398940  33.6518630  47.5259470   4.1426980  32.7616370  47.3469690
   4.5842530  34.2088850  47.2981720  10.0902590  35.9976930  44.8528810
   9.4714030  36.4534430  44.2823250  10.9454370  36.1528390  44.4518510
   9.2840840  31.9815920  46.4595850   9.2149120  31.0405860  46.2984980
  10.0460700  32.0717330  47.0318420  10.3146010  24.7886300  46.6864780
  10.6910830  23.9158180  46.5738450  10.2165520  25.1245000  45.7955220
   4.4451020  23.1611930  42.1482220   4.5517770  24.0615660  42.4550980
   3.5343380  23.1129900  41.8576870  14.0970130  22.2836740  43.6193120
  14.9179750  21.7933310  43.6618600  14.1304210  22.8734400  44.3724960
   2.0934180  25.0830940  47.3934810   2.7744290  25.3469310  48.0122210
   1.7782230  24.2431810  47.7272820   6.2858750  26.1298300  46.4807400
   6.7936970  26.6279270  47.1212420   6.8171990  25.3533500  46.3046760
  18.3869680  24.3003490  50.1836750  17.6821850  24.6885200  49.6651860
  18.6527600  24.9953780  50.7857680   4.5694850  20.7696860  50.7470820
   4.5713290  21.2869250  49.9416720   3.7399160  20.2927040  50.7240750
  10.9565940  30.8816170  42.2460720  10.3383210  31.3465620  41.6823440
  11.4689190  31.5743650  42.6630230   5.8197700  30.4092040  48.9244320
   5.4867080  31.0360960  49.5665390   5.9964380  30.9353920  48.1445990
  14.3331610  24.2237120  46.3920660  13.6287180  24.5122010  46.9723770
  14.6943770  25.0337230  46.0320220   4.2510180  22.4806820  48.7541270
   4.5926990  23.3248870  48.4595140   3.3125990  22.6290560  48.8706610
   5.0316800  32.3772840  50.7393500   5.6490800  33.0523920  50.4577950
   4.1709920  32.7860820  50.6481000  15.9494390  33.8412250  48.6548140
  15.2657910  34.5111360  48.6464810  16.4888680  34.0392900  47.8893000
  17.4018530  23.6691910  46.7829870  16.4543440  23.7030890  46.9145300
  17.7268520  24.4830860  47.1679230   7.9338070  19.9689090  45.0785860
   8.2413050  19.4135980  44.3621360   7.0038770  20.1033550  44.8958850
  13.4853130  35.6856380  47.3693320  13.4980290  35.2818670  46.5015580
  12.9328350  36.4603670  47.2654750  14.7798550  32.4072600  42.4583490
  14.6694880  31.4646930  42.5832910  14.7766800  32.7688240  43.3446250
  12.8838570  30.5886220  48.6975930  13.3007360  30.3746330  47.8629390
  13.6078390  30.8459010  49.2684550  10.3218830  28.0337920  41.8145980
   9.3948110  27.9675300  42.0434450  10.4743650  28.9718050  41.7001220
  10.3087910  24.3054920  38.8113140   9.3691580  24.4668880  38.8965600
  10.6271170  25.0240600  38.2649130  16.8300670  28.9873440  48.7892170
  16.0019300  29.0566530  48.3142300  17.4251150  29.5727750  48.3208000
  14.3516120  29.5958220  42.3181230  13.7328540  29.2577770  41.6707530
  14.3340570  28.9517980  43.0260420  13.7942680  25.7742760  49.7347040
  13.3813860  26.5996470  49.9887030  13.0618630  25.1887800  49.5423400
   5.9275470  28.5602660  44.5965710   5.5232470  27.8479910  44.1011610
   6.0138590  28.2155900  45.4853750   6.3957170  32.2470220  46.7604920
   6.0985460  31.6415690  46.0812700   7.3456990  32.2847530  46.6494280
   4.6404090  25.3345870  48.3764750   5.1918680  25.4441210  47.6018000
   5.1547600  25.7083470  49.0919980  14.4842780  35.8202090  50.4228020
  14.0073340  36.6274280  50.2300630  13.8004570  35.1680420  50.5754230
   5.4875600  31.9851910  53.4112720   4.5904130  32.2091880  53.6586120
   5.5128470  32.1086850  52.4624120  12.5280820  28.8345030  39.3253980
  12.9674100  27.9967460  39.1791800  13.2409240  29.4674430  39.4118120
   4.3146820  28.8565230  51.9870090   4.1754590  29.7288030  52.3557490
   3.4328180  28.5138040  51.8418030  10.6376200  33.7741100  43.2935220
  11.0772110  34.5165430  42.8790610  10.5763090  34.0167670  44.2174180
   6.1127170  34.7986930  54.1955240   6.0842600  35.2029880  53.3283670
   5.9492140  33.8697290  54.0326840  16.1097960  20.0887840  37.6395020
  15.7970620  20.1814670  38.5394090  16.8710430  20.6668870  37.5892450
   2.6280100  27.4547640  42.0972360   2.5077700  28.1809730  41.4853630
   2.3180990  26.6850550  41.6200270  18.0641990  35.5814030  55.4919410
  18.5401710  36.0596920  56.1708490  18.6849150  35.5131520  54.7664910
  17.4675240  32.7726880  52.6519420  17.5938300  32.5338760  51.7336600
  17.5096620  31.9411420  53.1241500  11.3291980  36.4754880  51.2214230
  11.8436650  36.3862890  52.0236660  10.4861060  36.8214580  51.5142140
  13.3046380  36.7610220  40.6498230  13.1447520  36.4713160  41.5480060
  13.1393090  35.9850350  40.1143460   5.7834760  36.5408750  42.4269850
   5.6077240  35.6244290  42.2137650   4.9290500  36.8996040  42.6667650
  13.0072510  34.2697780  39.2096230  12.3137670  34.2675070  38.5498510
  13.7495370  33.8457100  38.7790400  12.5722440  35.8960490  43.2844720
  13.0279390  35.1149870  43.5983340  12.9114960  36.6067310  43.8285900
  17.3199250  24.8259340  53.6169160  16.7043520  25.3339010  53.0884620
  16.9995670  23.9257670  53.5595100   5.0943760  20.7982710  45.4796030
   4.6511910  21.5792250  45.1480550   5.6528750  21.1212600  46.1866970
   9.3813570  23.6651230  51.0831350   8.9192940  23.8734250  51.8951290
   8.9791680  22.8510580  50.7802020  14.3818080  24.8860180  52.2128010
  13.5311670  24.5865930  52.5337080  14.2219870  25.1302190  51.3011830
  11.4767790  26.3861930  54.3126800  11.8021200  25.5525680  53.9729030
  12.2648120  26.9090450  54.4605130   8.2102580  20.4193410  40.3601860
   7.5856760  20.4153280  41.0855170   8.1232700  19.5524370  39.9637830
   7.1319660  21.3430040  47.3385630   7.4291990  22.2492870  47.2577650
   7.6805220  20.8548820  46.7245200   4.8857980  25.9216280  43.2077280
   4.6598900  25.7053450  44.1123900   4.1050510  26.3544740  42.8623250
  12.1155740  25.9279650  41.8067930  11.5164630  26.6515450  41.6231550
  12.6635350  25.8656430  41.0244380   7.3257190  26.8201860  53.8737550
   7.2300790  25.8796590  53.7237950   8.1689170  27.0416930  53.4785620
  10.7220610  24.5643190  43.8371210  11.1150180  24.8815390  43.0239900
  11.0837460  23.6855070  43.9515730   2.4567730  23.2315530  52.0271330
   2.0631120  24.0790740  52.2344110   1.7686130  22.5941900  52.2179970
   9.0312780  23.3150500  55.0968070   8.3411100  23.1222700  55.7314160
   9.7745080  23.5985140  55.6292370  11.3075750  27.1548940  47.9321990
  10.5756870  27.6635750  48.2812090  10.9100090  26.3378920  47.6310770
   7.7453140  23.8303140  46.3374480   7.7489200  23.3893090  45.4879020
   8.6404260  24.1520470  46.4446300   3.5955520  23.7129630  45.2968690
   3.2555570  24.1904860  46.0535740   2.8332840  23.2594750  44.9369790
   7.8073290  24.8315220  39.3281240   7.9286110  24.7901700  40.2767060
   7.4221800  25.6939370  39.1727970  11.7701660  22.6082620  47.3444930
  11.7874400  23.0591270  48.1886780  11.5217240  21.7088260  47.5578370
   6.8194790  27.1416360  38.7264540   6.2511690  26.6934610  38.1000450
   7.5283790  27.5009140  38.1929690  15.1972410  20.0214800  53.1831310
  15.5218180  19.2904460  53.7089290  15.2328920  19.7028440  52.2812300
   8.0461110  27.8904920  48.0839890   8.4131240  27.4163490  48.8301230
   7.8566170  28.7646490  48.4248230   5.8360480  26.9313560  50.4024100
   5.5317550  27.8105540  50.6274460   6.7906940  26.9913350  50.4381540
   4.3642270  31.1374550  40.9990950   3.5904530  30.5972170  40.8389670
   5.0936900  30.6181160  40.6608710  15.1230250  30.1339910  46.7917340
  15.8429370  30.6295200  46.4013450  14.9212070  29.4557800  46.1471210
  10.5840190  21.5277870  40.9346730   9.7704800  21.0291040  40.8592040
  10.3902140  22.3676120  40.5183080  10.5049050  30.2048970  52.6786340
  10.4386360  29.2844640  52.4243930   9.8754190  30.3024410  53.3930980
  13.2988580  25.8997520  39.2308890  14.1868200  26.2114750  39.0560230
  13.2693670  25.0269770  38.8389470   4.4079670  30.8054930  44.6369760
   4.9258340  30.0023190  44.5826650   3.9563690  30.7434070  45.4786590
   9.2949170  32.0721210  39.9097060   9.6364870  32.8163440  39.4140380
   8.4661880  32.3852330  40.2721890   5.0937330  28.2300540  54.4335010
   4.7937470  28.3757720  53.5362830   5.8648570  27.6705830  54.3408400
  10.4365780  33.0269540  52.4290140  10.4510320  32.0950500  52.2109050
   9.7290880  33.1129300  53.0679910  15.5702850  27.2109360  38.6988750
  15.4866570  27.6423580  37.8485190  16.2897040  27.6707710  39.1315570
  16.6476990  29.6676880  51.7758720  15.9225180  30.2605660  51.5788110
  17.1752450  29.6600420  50.9772090  16.5990100  34.0651620  41.4270880
  15.9566260  33.4107240  41.7014600  16.2120760  34.4706710  40.6511550
  12.1776580  31.3937050  45.2742570  12.5300400  30.7965180  44.6143940
  11.2938910  31.0681280  45.4450820   8.2639860  32.1534740  42.6812980
   8.9510990  32.7003950  43.0620570   7.4772280  32.6975470  42.7162590
   7.5667070  29.1580770  42.2938340   8.0229850  29.9686020  42.5198530
   7.2155280  28.8403910  43.1256830   9.8699680  34.6687110  49.5230640
  10.5141900  34.8746490  50.2004060  10.2329120  33.9075510  49.0701490
   3.4678850  19.5018420  42.7660860   3.3393480  19.4936320  43.7145780
   2.6440870  19.8401510  42.4151870  11.1431760  32.6719460  48.2408090
  11.7853990  31.9712620  48.3540260  11.6681110  33.4517900  48.0604980
  14.9887480  32.9568080  37.9647230  14.7625060  32.2398520  38.5571870
  14.5983680  32.7080520  37.1268980  12.9169380  33.4714360  51.4444150
  13.2525620  34.0581050  52.1222070  11.9969720  33.3407070  51.6741940
  14.5703730  30.8740020  39.6261390  14.2825430  31.3352710  40.4139270
  15.3655900  30.4137790  39.8945610   8.7457960  33.5205690  54.6132210
   8.4254830  32.8014930  55.1577900   8.0716320  34.1960760  54.6868270
   6.7872130  34.3666140  39.5565360   6.7782230  35.0995830  38.9409870
   5.8670490  34.1197720  39.6492320   2.3878770  29.5881030  40.3012120
   1.7806720  30.3279930  40.3107420   2.8628120  29.6780390  39.4750320
  11.9611560  23.7531850  49.9769010  12.3292380  22.9327060  50.3048580
  11.1009760  23.8133740  50.3924660  15.3273590  22.7088790  40.7856570
  14.6986750  22.8134460  40.0714800  14.8325510  22.9285570  41.5750450
   9.7731730  34.4294380  38.2190550   9.8743710  34.2258370  37.2892530
   8.8733470  34.1752660  38.4238330   7.2957620  24.9874740  42.2014450
   6.5873770  25.4561080  42.6428060   7.5802100  24.3296750  42.8359640
   8.9213550  26.4071440  50.2006980   9.4198800  26.8817260  50.8658830
   9.0636500  25.4834960  50.4077010  11.3273050  21.7125400  43.6410240
  11.2040830  21.7311530  42.6919750  12.2757610  21.7604340  43.7608640
   8.4149840  36.9480700  42.9138220   8.6691340  36.9102090  41.9917590
   7.4662320  36.8214030  42.9066470   5.4992640  23.2959820  39.5765160
   6.3483170  23.7329970  39.5105350   5.1323910  23.6080080  40.4037220
  16.1280410  22.6239400  51.0435370  15.6254010  23.3644800  51.3829180
  16.9437070  23.0123400  50.7272160  14.4202420  27.8672580  44.4896730
  13.4792560  27.8822810  44.6644420  14.7346490  27.0808540  44.9357030
   4.3984060  29.5492180  38.0500690   5.1647330  29.4373540  38.6126120
   4.4758750  28.8530150  37.3977460   3.0930820  26.9817250  38.7333580
   3.1734410  26.0344760  38.8450980   3.9850570  27.3124130  38.8394240
  16.4228000  35.0381430  46.1650990  16.5475420  35.8612600  46.6374800
  17.2893560  34.8272160  45.8175140   3.8945530  37.1312640  45.8368120
   4.6308010  36.5828100  46.1076690   4.2786450  37.9968650  45.6974110
   2.9003810  36.3158710  55.0253700   3.7016540  36.6370760  55.4389100
   2.3855630  35.9554290  55.7473610   7.0047840  36.3042950  37.6593690
   7.7976450  36.5931780  37.2075480   6.4852190  35.8735120  36.9806170
  11.7368440  32.4238580  54.9729110  11.1306600  32.4470180  54.2324860
  11.4322550  31.6921620  55.5096360  13.1668810  36.1518870  53.5838520
  14.1190560  36.0676890  53.5338760  13.0197030  36.8160580  54.2572310
  16.0578010  35.5313080  39.0830430  15.7719520  35.1178220  38.2684610
  15.8597560  36.4600790  38.9630950   7.5225240  31.5246360  37.5236040
   7.4175880  30.9098710  38.2497420   7.3549460  31.0012250  36.7399050
   7.6739560  30.2103160  53.5025270   6.9085230  30.7788160  53.4179940
   7.8555520  29.9179370  52.6093500  10.7627970  30.5866390  38.1278030
  10.2138070  31.0335690  38.7720770  11.3847230  30.0815640  38.6515700
  14.8162910  31.9408490  54.0600290  15.5572380  32.2784250  53.5567750
  14.0535590  32.1100550  53.5070060   2.6524700  26.9461760  54.8639820
   2.6930040  26.6475630  55.7725050   3.5070200  27.3469370  54.7047340
   6.4303090  29.5457310  40.0243330   6.8519510  29.3797180  40.8674720
   6.5553930  28.7357540  39.5298470   4.5930510  25.5253860  52.8314310
   4.0626970  25.0344810  52.2037650   5.2618580  25.9538060  52.2972240
   8.9430730  28.5694920  37.2720430   9.4636390  27.8543940  36.9061580
   9.5899130  29.2080790  37.5720940  13.4908570  29.9923320  52.5955500
  13.9049590  30.1468400  53.4445920  12.5559570  30.1178540  52.7581280
  13.9630740  27.3319480  54.5994650  14.5451510  26.5771800  54.5115130
  14.1392510  27.8626920  53.8226130   5.0802810  22.4916230  52.9111600
   4.9859680  21.8736980  52.1862470   4.5000200  23.2182520  52.6841510
   7.8464250  21.0489470  49.9438990   7.3981550  21.0713730  49.0984540
   7.2129450  20.6508490  50.5409290   8.2523800  29.9443800  50.5651430
   8.6711910  30.7876530  50.3927670   7.3332430  30.0815840  50.3358210
  10.5887700  27.6759980  51.9489270  10.7083910  27.0801120  52.6884110
  11.4481700  27.7129670  51.5290570  12.9275600  28.2297170  50.5251780
  12.4010820  28.7539790  49.9216920  13.2706940  28.8624560  51.1561510
   5.3261990  25.6190540  36.9701490   5.1251050  24.7557900  37.3314830
   5.1554040  25.5323900  36.0323090   6.1031220  36.2496810  51.6809160
   5.5652310  36.9742870  51.3617860   6.3565180  35.7727150  50.8906500
   7.3556470  24.2181330  53.2065090   7.9456160  23.9097180  53.8942910
   6.5376710  23.7461080  53.3624990  12.1749900  23.8347140  53.4398110
  11.4865420  23.1728680  53.3748100  12.8955920  23.3885410  53.8846570
  12.8050300  20.4298770  39.4988370  13.0852590  19.5866670  39.8547790
  12.0316030  20.6621880  40.0127120   4.1244790  22.7191160  36.9579370
   4.4270690  22.7258590  36.0498520   4.8639380  22.3689020  37.4547030
   8.9593430  37.4848020  51.9395810   8.8852130  38.3883160  52.2468180
   8.0572270  37.1659920  51.9117880   7.3429720  21.6625780  37.9435570
   6.9951720  20.9849770  37.3638020   7.5442490  21.2015290  38.7578960
   9.5078760  36.6506530  39.5622170  10.4029550  36.9891500  39.5840930
   9.5396390  35.9285940  38.9346450   3.1474920  32.0233580  37.7909170
   3.5849790  32.5663250  38.4466750   3.6322650  31.1980530  37.8005510
   4.9582640  33.1431620  42.9031400   4.6578180  33.0196590  43.8035310
   4.8520130  32.2840210  42.4947130  16.4873110  35.1810200  52.2688370
  15.8875100  35.2402760  51.5252290  16.6167010  34.2415180  52.3985220
  17.7274560  32.9228020  37.6058080  16.8967520  32.9904670  38.0765310
  17.9046390  33.8132140  37.3024940  17.1831020  29.6675500  40.1092280
  17.9449930  30.2372150  40.2151970  17.1985390  29.1002700  40.8800590
  18.1890990  30.5225600  44.9534210  18.5599820  29.7392920  44.5470180
  18.8292920  31.2114700  44.7751510  15.1724750  31.9062180  50.3664530
  14.3584590  32.3359340  50.6290320  15.5798950  32.5180590  49.7533580
  17.2350190  29.9609870  37.2664800  17.5099030  30.8688750  37.1384020
  17.0460930  29.8972400  38.2026790  13.6325800  22.9854720  38.5618430
  14.0510680  22.7985700  37.7215090  13.3261860  22.1333770  38.8721360
  17.1315530  27.8978860  42.2594230  16.7559130  27.1306790  41.8275520
  16.4018650  28.2801560  42.7469160  16.5215150  27.0450380  51.8933750
  16.2901240  26.8163130  50.9931700  16.7819700  27.9649930  51.8478640
  14.9603220  22.2706810  54.6713450  15.8373400  22.2790210  55.0547450
  14.9724060  21.5337650  54.0605800  16.4066490  26.1236350  45.5601470
  16.9303970  25.6299000  44.9291640  16.9925910  26.2586710  46.3049040
  16.5856210  26.2076220  49.0821020  15.6358920  26.1739760  49.1966010
  16.7669220  27.1176330  48.8470790   2.0874810  20.5117230  37.2322300
   2.8102940  21.0526170  37.5503520   2.3599330  20.2380650  36.3563840
  15.8966460  25.3809700  41.4993880  16.3925580  25.1480570  42.2842760
  15.6982530  24.5421540  41.0831520   1.7767000  19.7623420  47.1344920
   2.4243190  19.2120800  46.6940080   2.1968840  20.0166570  47.9560730
  17.3253620  24.0170650  44.0331560  17.2152900  23.8626690  44.9713830
  18.0861210  23.4891590  43.7906970  15.6719340  19.9564780  50.4914560
  16.3091560  20.5698920  50.8573750  15.8194230  19.9925440  49.5463790
  18.2143890  21.8478570  37.2737700  19.1393200  21.7159750  37.0655990
  18.1919680  21.9271390  38.2274150  18.2882380  22.6189230  39.8994410
  17.4933880  22.5534350  40.4287320  18.4925660  23.5539870  39.8879760
  15.2300800  36.6580780  43.8932800  15.8259870  36.3365350  43.2167220
  15.4878950  36.1852600  44.6846070   3.1363370  33.0898690  54.0423430
   3.0933000  32.7191600  54.9237890   3.2674380  34.0276260  54.1825250
   6.8369400  34.6458280  49.6433150   6.5960760  34.9132840  48.7563670
   7.7772040  34.8164010  49.6984010   9.0423820  21.1090970  53.3989660
   8.9812710  21.7012800  54.1485070   9.9824200  21.0016930  53.2539920
  11.6798380  20.7661030  53.0381950  12.2938790  21.0840320  52.3763030
  12.2247940  20.2809620  53.6577810  18.0973560  36.6652660  50.4443790
  17.6031840  37.0621530  49.7270920  17.4886850  36.0401870  50.8381070
   2.2019640  19.4455290  53.1521010   2.7502630  19.2643340  52.3887120
   2.2674950  18.6549400  53.6877320   2.9751400  36.0360940  51.1621210
   2.3811720  35.9045640  51.9011250   2.9675240  35.1999080  50.6963310
  12.4206420  19.3293170  49.3651240  11.5466260  19.6628280  49.1624170
  12.3117170  18.8566350  50.1903110  13.3278400  21.5364040  50.7492960
  12.9991760  20.7215800  50.3694690  14.2760700  21.4933850  50.6258650
  15.7813010  37.3076080  47.7230530  15.3215980  38.0591890  47.3488550
  15.1525470  36.5882550  47.6645330   2.6063630  33.4019320  50.1129250
   1.8797690  32.7824610  50.0455200   2.6672780  33.7959930  49.2427330
   6.2108730  35.6164320  46.8978660   6.7273750  35.0051680  46.3726920
   6.8606110  36.1193100  47.3889670   8.9504230  36.5072810  47.7247640
   9.2382040  36.2527110  46.8480650   9.4627450  35.9550170  48.3153210
  10.1681240  20.2463010  48.3044150   9.3853030  20.7208510  48.5840910
   9.8744170  19.3417840  48.1957330  14.7202310  20.9486110  46.3493240
  15.1610400  20.8931210  45.5014840  14.4509900  21.8644120  46.4203420
  16.5840880  20.5801350  44.3602060  16.5229280  19.6362570  44.2133080
  17.3632910  20.6881440  44.9055520   8.0535460  22.6649760  43.8160180
   7.2409970  22.2906650  43.4756060   8.5577100  21.9094840  44.1181370
  12.5560440  19.3292210  45.0543250  13.1589810  19.9012420  45.5291770
  11.8153430  19.8931650  44.8317150  15.6995040  19.7313770  40.3283530
  15.8945670  20.6297220  40.5950960  14.9124910  19.5000850  40.8216480
   2.4956330  35.4126940  40.7676150   1.9703950  35.7934970  40.0638110
   2.4200910  36.0377710  41.4885860   3.8846800  21.0774540  39.3659840
   4.4139560  20.2904340  39.2367790   4.5175120  21.7565730  39.5995370
   6.0784640  20.8149680  42.4205230   5.4487380  20.1136990  42.5875360
   5.5389780  21.5753810  42.2038390   9.0176590  37.4288910  55.0915840
   9.9443900  37.1933180  55.1351800   9.0027020  38.2560910  54.6101870
  17.2521650  36.9714480  42.0890090  17.4273840  36.2852220  41.4451010
  16.5543220  37.4961530  41.6966760   6.2040200  20.0933660  54.8557720
   5.9224470  20.5967260  54.0918540   6.5859900  19.2955410  54.4899850
   5.0949300  37.3609320  39.6425400   5.8268120  37.0768600  39.0949290
   5.3542970  37.1222600  40.5324780   4.2564090  33.4774050  39.6471730
   3.6272970  33.9459150  40.1957560   4.3711920  32.6323270  40.0817920
  12.8055660  19.5087240  55.4338190  12.6921110  19.8281850  56.3289710
  13.6225400  19.9099750  55.1375470  15.5854150  36.6558770  54.9156880
  16.3779470  36.1608000  54.7082840  15.8787300  37.3348910  55.5232490
  11.7113810  27.5279710  25.7972930  11.6307860  26.6134320  25.5264640
  11.2978230  28.0246780  25.0912640   9.8431850  29.3058730  27.6782200
   9.0673950  28.8259170  27.9680770  10.4944780  28.6264380  27.5038360
   3.8597680  29.6178540  28.5557960   3.0282560  29.3627250  28.9554470
   4.4678660  29.6889310  29.2915880  13.8639280  33.7118920  26.4581330
  13.4020810  32.9406160  26.7868500  14.6764830  33.7384990  26.9633780
   3.8398940  33.6518630  28.7515980   4.1426980  32.7616370  28.5726200
   4.5842530  34.2088850  28.5238230  10.0902590  35.9976930  26.0785320
   9.4714030  36.4534430  25.5079760  10.9454370  36.1528390  25.6775020
   9.2840840  31.9815920  27.6852360   9.2149120  31.0405860  27.5241490
  10.0460700  32.0717330  28.2574930  10.3146010  24.7886300  27.9121290
  10.6910830  23.9158180  27.7994960  10.2165520  25.1245000  27.0211730
   4.4451020  23.1611930  23.3738730   4.5517770  24.0615660  23.6807490
   3.5343380  23.1129900  23.0833380  14.0970130  22.2836740  24.8449630
  14.9179750  21.7933310  24.8875110  14.1304210  22.8734400  25.5981470
   2.0934180  25.0830940  28.6191320   2.7744290  25.3469310  29.2378720
   1.7782230  24.2431810  28.9529330   6.2858750  26.1298300  27.7063910
   6.7936970  26.6279270  28.3468930   6.8171990  25.3533500  27.5303270
  18.3869680  24.3003490  31.4093260  17.6821850  24.6885200  30.8908370
  18.6527600  24.9953780  32.0114190   4.5694850  20.7696860  31.9727330
   4.5713290  21.2869250  31.1673230   3.7399160  20.2927040  31.9497260
  10.9565940  30.8816170  23.4717230  10.3383210  31.3465620  22.9079950
  11.4689190  31.5743650  23.8886740   5.8197700  30.4092040  30.1500830
   5.4867080  31.0360960  30.7921900   5.9964380  30.9353920  29.3702500
  14.3331610  24.2237120  27.6177170  13.6287180  24.5122010  28.1980280
  14.6943770  25.0337230  27.2576730   4.2510180  22.4806820  29.9797780
   4.5926990  23.3248870  29.6851650   3.3125990  22.6290560  30.0963120
   5.0316800  32.3772840  31.9650010   5.6490800  33.0523920  31.6834460
   4.1709920  32.7860820  31.8737510  15.9494390  33.8412250  29.8804650
  15.2657910  34.5111360  29.8721320  16.4888680  34.0392900  29.1149510
  17.4018530  23.6691910  28.0086380  16.4543440  23.7030890  28.1401810
  17.7268520  24.4830860  28.3935740   7.9338070  19.9689090  26.3042370
   8.2413050  19.4135980  25.5877870   7.0038770  20.1033550  26.1215360
  13.4853130  35.6856380  28.5949830  13.4980290  35.2818670  27.7272090
  12.9328350  36.4603670  28.4911260  14.7798550  32.4072600  23.6840000
  14.6694880  31.4646930  23.8089420  14.7766800  32.7688240  24.5702760
  12.8838570  30.5886220  29.9232440  13.3007360  30.3746330  29.0885900
  13.6078390  30.8459010  30.4941060  10.3218830  28.0337920  23.0402490
   9.3948110  27.9675300  23.2690960  10.4743650  28.9718050  22.9257730
  10.3087910  24.3054920  20.0369650   9.3691580  24.4668880  20.1222110
  10.6271170  25.0240600  19.4905640  16.8300670  28.9873440  30.0148680
  16.0019300  29.0566530  29.5398810  17.4251150  29.5727750  29.5464510
  14.3516120  29.5958220  23.5437740  13.7328540  29.2577770  22.8964040
  14.3340570  28.9517980  24.2516930  13.7942680  25.7742760  30.9603550
  13.3813860  26.5996470  31.2143540  13.0618630  25.1887800  30.7679910
   5.9275470  28.5602660  25.8222220   5.5232470  27.8479910  25.3268120
   6.0138590  28.2155900  26.7110260   6.3957170  32.2470220  27.9861430
   6.0985460  31.6415690  27.3069210   7.3456990  32.2847530  27.8750790
   4.6404090  25.3345870  29.6021260   5.1918680  25.4441210  28.8274510
   5.1547600  25.7083470  30.3176490  14.4842780  35.8202090  31.6484530
  14.0073340  36.6274280  31.4557140  13.8004570  35.1680420  31.8010740
   5.4875600  31.9851910  34.6369230   4.5904130  32.2091880  34.8842630
   5.5128470  32.1086850  33.6880630  12.5280820  28.8345030  20.5510490
  12.9674100  27.9967460  20.4048310  13.2409240  29.4674430  20.6374630
   4.3146820  28.8565230  33.2126600   4.1754590  29.7288030  33.5814000
   3.4328180  28.5138040  33.0674540  10.6376200  33.7741100  24.5191730
  11.0772110  34.5165430  24.1047120  10.5763090  34.0167670  25.4430690
   6.1127170  34.7986930  35.4211750   6.0842600  35.2029880  34.5540180
   5.9492140  33.8697290  35.2583350  16.1097960  20.0887840  18.8651530
  15.7970620  20.1814670  19.7650600  16.8710430  20.6668870  18.8148960
   2.6280100  27.4547640  23.3228870   2.5077700  28.1809730  22.7110140
   2.3180990  26.6850550  22.8456780  18.0641990  35.5814030  36.7175920
  18.5401710  36.0596920  37.3965000  18.6849150  35.5131520  35.9921420
  17.4675240  32.7726880  33.8775930  17.5938300  32.5338760  32.9593110
  17.5096620  31.9411420  34.3498010  11.3291980  36.4754880  32.4470740
  11.8436650  36.3862890  33.2493170  10.4861060  36.8214580  32.7398650
  13.3046380  36.7610220  21.8754740  13.1447520  36.4713160  22.7736570
  13.1393090  35.9850350  21.3399970   5.7834760  36.5408750  23.6526360
   5.6077240  35.6244290  23.4394160   4.9290500  36.8996040  23.8924160
  13.0072510  34.2697780  20.4352740  12.3137670  34.2675070  19.7755020
  13.7495370  33.8457100  20.0046910  12.5722440  35.8960490  24.5101230
  13.0279390  35.1149870  24.8239850  12.9114960  36.6067310  25.0542410
  17.3199250  24.8259340  34.8425670  16.7043520  25.3339010  34.3141130
  16.9995670  23.9257670  34.7851610   5.0943760  20.7982710  26.7052540
   4.6511910  21.5792250  26.3737060   5.6528750  21.1212600  27.4123480
   9.3813570  23.6651230  32.3087860   8.9192940  23.8734250  33.1207800
   8.9791680  22.8510580  32.0058530  14.3818080  24.8860180  33.4384520
  13.5311670  24.5865930  33.7593590  14.2219870  25.1302190  32.5268340
  11.4767790  26.3861930  35.5383310  11.8021200  25.5525680  35.1985540
  12.2648120  26.9090450  35.6861640   8.2102580  20.4193410  21.5858370
   7.5856760  20.4153280  22.3111680   8.1232700  19.5524370  21.1894340
   7.1319660  21.3430040  28.5642140   7.4291990  22.2492870  28.4834160
   7.6805220  20.8548820  27.9501710   4.8857980  25.9216280  24.4333790
   4.6598900  25.7053450  25.3380410   4.1050510  26.3544740  24.0879760
  12.1155740  25.9279650  23.0324440  11.5164630  26.6515450  22.8488060
  12.6635350  25.8656430  22.2500890   7.3257190  26.8201860  35.0994060
   7.2300790  25.8796590  34.9494460   8.1689170  27.0416930  34.7042130
  10.7220610  24.5643190  25.0627720  11.1150180  24.8815390  24.2496410
  11.0837460  23.6855070  25.1772240   2.4567730  23.2315530  33.2527840
   2.0631120  24.0790740  33.4600620   1.7686130  22.5941900  33.4436480
   9.0312780  23.3150500  36.3224580   8.3411100  23.1222700  36.9570670
   9.7745080  23.5985140  36.8548880  11.3075750  27.1548940  29.1578500
  10.5756870  27.6635750  29.5068600  10.9100090  26.3378920  28.8567280
   7.7453140  23.8303140  27.5630990   7.7489200  23.3893090  26.7135530
   8.6404260  24.1520470  27.6702810   3.5955520  23.7129630  26.5225200
   3.2555570  24.1904860  27.2792250   2.8332840  23.2594750  26.1626300
   7.8073290  24.8315220  20.5537750   7.9286110  24.7901700  21.5023570
   7.4221800  25.6939370  20.3984480  11.7701660  22.6082620  28.5701440
  11.7874400  23.0591270  29.4143290  11.5217240  21.7088260  28.7834880
   6.8194790  27.1416360  19.9521050   6.2511690  26.6934610  19.3256960
   7.5283790  27.5009140  19.4186200  15.1972410  20.0214800  34.4087820
  15.5218180  19.2904460  34.9345800  15.2328920  19.7028440  33.5068810
   8.0461110  27.8904920  29.3096400   8.4131240  27.4163490  30.0557740
   7.8566170  28.7646490  29.6504740   5.8360480  26.9313560  31.6280610
   5.5317550  27.8105540  31.8530970   6.7906940  26.9913350  31.6638050
   4.3642270  31.1374550  22.2247460   3.5904530  30.5972170  22.0646180
   5.0936900  30.6181160  21.8865220  15.1230250  30.1339910  28.0173850
  15.8429370  30.6295200  27.6269960  14.9212070  29.4557800  27.3727720
  10.5840190  21.5277870  22.1603240   9.7704800  21.0291040  22.0848550
  10.3902140  22.3676120  21.7439590  10.5049050  30.2048970  33.9042850
  10.4386360  29.2844640  33.6500440   9.8754190  30.3024410  34.6187490
  13.2988580  25.8997520  20.4565400  14.1868200  26.2114750  20.2816740
  13.2693670  25.0269770  20.0645980   4.4079670  30.8054930  25.8626270
   4.9258340  30.0023190  25.8083160   3.9563690  30.7434070  26.7043100
   9.2949170  32.0721210  21.1353570   9.6364870  32.8163440  20.6396890
   8.4661880  32.3852330  21.4978400   5.0937330  28.2300540  35.6591520
   4.7937470  28.3757720  34.7619340   5.8648570  27.6705830  35.5664910
  10.4365780  33.0269540  33.6546650  10.4510320  32.0950500  33.4365560
   9.7290880  33.1129300  34.2936420  15.5702850  27.2109360  19.9245260
  15.4866570  27.6423580  19.0741700  16.2897040  27.6707710  20.3572080
  16.6476990  29.6676880  33.0015230  15.9225180  30.2605660  32.8044620
  17.1752450  29.6600420  32.2028600  16.5990100  34.0651620  22.6527390
  15.9566260  33.4107240  22.9271110  16.2120760  34.4706710  21.8768060
  12.1776580  31.3937050  26.4999080  12.5300400  30.7965180  25.8400450
  11.2938910  31.0681280  26.6707330   8.2639860  32.1534740  23.9069490
   8.9510990  32.7003950  24.2877080   7.4772280  32.6975470  23.9419100
   7.5667070  29.1580770  23.5194850   8.0229850  29.9686020  23.7455040
   7.2155280  28.8403910  24.3513340   9.8699680  34.6687110  30.7487150
  10.5141900  34.8746490  31.4260570  10.2329120  33.9075510  30.2958000
   3.4678850  19.5018420  23.9917370   3.3393480  19.4936320  24.9402290
   2.6440870  19.8401510  23.6408380  11.1431760  32.6719460  29.4664600
  11.7853990  31.9712620  29.5796770  11.6681110  33.4517900  29.2861490
  14.9887480  32.9568080  19.1903740  14.7625060  32.2398520  19.7828380
  14.5983680  32.7080520  18.3525490  12.9169380  33.4714360  32.6700660
  13.2525620  34.0581050  33.3478580  11.9969720  33.3407070  32.8998450
  14.5703730  30.8740020  20.8517900  14.2825430  31.3352710  21.6395780
  15.3655900  30.4137790  21.1202120   8.7457960  33.5205690  35.8388720
   8.4254830  32.8014930  36.3834410   8.0716320  34.1960760  35.9124780
   6.7872130  34.3666140  20.7821870   6.7782230  35.0995830  20.1666380
   5.8670490  34.1197720  20.8748830   2.3878770  29.5881030  21.5268630
   1.7806720  30.3279930  21.5363930   2.8628120  29.6780390  20.7006830
  11.9611560  23.7531850  31.2025520  12.3292380  22.9327060  31.5305090
  11.1009760  23.8133740  31.6181170  15.3273590  22.7088790  22.0113080
  14.6986750  22.8134460  21.2971310  14.8325510  22.9285570  22.8006960
   9.7731730  34.4294380  19.4447060   9.8743710  34.2258370  18.5149040
   8.8733470  34.1752660  19.6494840   7.2957620  24.9874740  23.4270960
   6.5873770  25.4561080  23.8684570   7.5802100  24.3296750  24.0616150
   8.9213550  26.4071440  31.4263490   9.4198800  26.8817260  32.0915340
   9.0636500  25.4834960  31.6333520  11.3273050  21.7125400  24.8666750
  11.2040830  21.7311530  23.9176260  12.2757610  21.7604340  24.9865150
   8.4149840  36.9480700  24.1394730   8.6691340  36.9102090  23.2174100
   7.4662320  36.8214030  24.1322980   5.4992640  23.2959820  20.8021670
   6.3483170  23.7329970  20.7361860   5.1323910  23.6080080  21.6293730
  16.1280410  22.6239400  32.2691880  15.6254010  23.3644800  32.6085690
  16.9437070  23.0123400  31.9528670  14.4202420  27.8672580  25.7153240
  13.4792560  27.8822810  25.8900930  14.7346490  27.0808540  26.1613540
   4.3984060  29.5492180  19.2757200   5.1647330  29.4373540  19.8382630
   4.4758750  28.8530150  18.6233970   3.0930820  26.9817250  19.9590090
   3.1734410  26.0344760  20.0707490   3.9850570  27.3124130  20.0650750
  16.4228000  35.0381430  27.3907500  16.5475420  35.8612600  27.8631310
  17.2893560  34.8272160  27.0431650   3.8945530  37.1312640  27.0624630
   4.6308010  36.5828100  27.3333200   4.2786450  37.9968650  26.9230620
   2.9003810  36.3158710  36.2510210   3.7016540  36.6370760  36.6645610
   2.3855630  35.9554290  36.9730120   7.0047840  36.3042950  18.8850200
   7.7976450  36.5931780  18.4331990   6.4852190  35.8735120  18.2062680
  11.7368440  32.4238580  36.1985620  11.1306600  32.4470180  35.4581370
  11.4322550  31.6921620  36.7352870  13.1668810  36.1518870  34.8095030
  14.1190560  36.0676890  34.7595270  13.0197030  36.8160580  35.4828820
  16.0578010  35.5313080  20.3086940  15.7719520  35.1178220  19.4941120
  15.8597560  36.4600790  20.1887460   7.5225240  31.5246360  18.7492550
   7.4175880  30.9098710  19.4753930   7.3549460  31.0012250  17.9655560
   7.6739560  30.2103160  34.7281780   6.9085230  30.7788160  34.6436450
   7.8555520  29.9179370  33.8350010  10.7627970  30.5866390  19.3534540
  10.2138070  31.0335690  19.9977280  11.3847230  30.0815640  19.8772210
  14.8162910  31.9408490  35.2856800  15.5572380  32.2784250  34.7824260
  14.0535590  32.1100550  34.7326570   2.6524700  26.9461760  36.0896330
   2.6930040  26.6475630  36.9981560   3.5070200  27.3469370  35.9303850
   6.4303090  29.5457310  21.2499840   6.8519510  29.3797180  22.0931230
   6.5553930  28.7357540  20.7554980   4.5930510  25.5253860  34.0570820
   4.0626970  25.0344810  33.4294160   5.2618580  25.9538060  33.5228750
   8.9430730  28.5694920  18.4976940   9.4636390  27.8543940  18.1318090
   9.5899130  29.2080790  18.7977450  13.4908570  29.9923320  33.8212010
  13.9049590  30.1468400  34.6702430  12.5559570  30.1178540  33.9837790
  13.9630740  27.3319480  35.8251160  14.5451510  26.5771800  35.7371640
  14.1392510  27.8626920  35.0482640   5.0802810  22.4916230  34.1368110
   4.9859680  21.8736980  33.4118980   4.5000200  23.2182520  33.9098020
   7.8464250  21.0489470  31.1695500   7.3981550  21.0713730  30.3241050
   7.2129450  20.6508490  31.7665800   8.2523800  29.9443800  31.7907940
   8.6711910  30.7876530  31.6184180   7.3332430  30.0815840  31.5614720
  10.5887700  27.6759980  33.1745780  10.7083910  27.0801120  33.9140620
  11.4481700  27.7129670  32.7547080  12.9275600  28.2297170  31.7508290
  12.4010820  28.7539790  31.1473430  13.2706940  28.8624560  32.3818020
   5.3261990  25.6190540  18.1958000   5.1251050  24.7557900  18.5571340
   5.1554040  25.5323900  17.2579600   6.1031220  36.2496810  32.9065670
   5.5652310  36.9742870  32.5874370   6.3565180  35.7727150  32.1163010
   7.3556470  24.2181330  34.4321600   7.9456160  23.9097180  35.1199420
   6.5376710  23.7461080  34.5881500  12.1749900  23.8347140  34.6654620
  11.4865420  23.1728680  34.6004610  12.8955920  23.3885410  35.1103080
  12.8050300  20.4298770  20.7244880  13.0852590  19.5866670  21.0804300
  12.0316030  20.6621880  21.2383630   4.1244790  22.7191160  18.1835880
   4.4270690  22.7258590  17.2755030   4.8639380  22.3689020  18.6803540
   8.9593430  37.4848020  33.1652320   8.8852130  38.3883160  33.4724690
   8.0572270  37.1659920  33.1374390   7.3429720  21.6625780  19.1692080
   6.9951720  20.9849770  18.5894530   7.5442490  21.2015290  19.9835470
   9.5078760  36.6506530  20.7878680  10.4029550  36.9891500  20.8097440
   9.5396390  35.9285940  20.1602960   3.1474920  32.0233580  19.0165680
   3.5849790  32.5663250  19.6723260   3.6322650  31.1980530  19.0262020
   4.9582640  33.1431620  24.1287910   4.6578180  33.0196590  25.0291820
   4.8520130  32.2840210  23.7203640  16.4873110  35.1810200  33.4944880
  15.8875100  35.2402760  32.7508800  16.6167010  34.2415180  33.6241730
  17.7274560  32.9228020  18.8314590  16.8967520  32.9904670  19.3021820
  17.9046390  33.8132140  18.5281450  17.1831020  29.6675500  21.3348790
  17.9449930  30.2372150  21.4408480  17.1985390  29.1002700  22.1057100
  18.1890990  30.5225600  26.1790720  18.5599820  29.7392920  25.7726690
  18.8292920  31.2114700  26.0008020  15.1724750  31.9062180  31.5921040
  14.3584590  32.3359340  31.8546830  15.5798950  32.5180590  30.9790090
  17.2350190  29.9609870  18.4921310  17.5099030  30.8688750  18.3640530
  17.0460930  29.8972400  19.4283300  13.6325800  22.9854720  19.7874940
  14.0510680  22.7985700  18.9471600  13.3261860  22.1333770  20.0977870
  17.1315530  27.8978860  23.4850740  16.7559130  27.1306790  23.0532030
  16.4018650  28.2801560  23.9725670  16.5215150  27.0450380  33.1190260
  16.2901240  26.8163130  32.2188210  16.7819700  27.9649930  33.0735150
  14.9603220  22.2706810  35.8969960  15.8373400  22.2790210  36.2803960
  14.9724060  21.5337650  35.2862310  16.4066490  26.1236350  26.7857980
  16.9303970  25.6299000  26.1548150  16.9925910  26.2586710  27.5305550
  16.5856210  26.2076220  30.3077530  15.6358920  26.1739760  30.4222520
  16.7669220  27.1176330  30.0727300   2.0874810  20.5117230  18.4578810
   2.8102940  21.0526170  18.7760030   2.3599330  20.2380650  17.5820350
  15.8966460  25.3809700  22.7250390  16.3925580  25.1480570  23.5099270
  15.6982530  24.5421540  22.3088030   1.7767000  19.7623420  28.3601430
   2.4243190  19.2120800  27.9196590   2.1968840  20.0166570  29.1817240
  17.3253620  24.0170650  25.2588070  17.2152900  23.8626690  26.1970340
  18.0861210  23.4891590  25.0163480  15.6719340  19.9564780  31.7171070
  16.3091560  20.5698920  32.0830260  15.8194230  19.9925440  30.7720300
  18.2143890  21.8478570  18.4994210  19.1393200  21.7159750  18.2912500
  18.1919680  21.9271390  19.4530660  18.2882380  22.6189230  21.1250920
  17.4933880  22.5534350  21.6543830  18.4925660  23.5539870  21.1136270
  15.2300800  36.6580780  25.1189310  15.8259870  36.3365350  24.4423730
  15.4878950  36.1852600  25.9102580   3.1363370  33.0898690  35.2679940
   3.0933000  32.7191600  36.1494400   3.2674380  34.0276260  35.4081760
   6.8369400  34.6458280  30.8689660   6.5960760  34.9132840  29.9820180
   7.7772040  34.8164010  30.9240520   9.0423820  21.1090970  34.6246170
   8.9812710  21.7012800  35.3741580   9.9824200  21.0016930  34.4796430
  11.6798380  20.7661030  34.2638460  12.2938790  21.0840320  33.6019540
  12.2247940  20.2809620  34.8834320  18.0973560  36.6652660  31.6700300
  17.6031840  37.0621530  30.9527430  17.4886850  36.0401870  32.0637580
   2.2019640  19.4455290  34.3777520   2.7502630  19.2643340  33.6143630
   2.2674950  18.6549400  34.9133830   2.9751400  36.0360940  32.3877720
   2.3811720  35.9045640  33.1267760   2.9675240  35.1999080  31.9219820
  12.4206420  19.3293170  30.5907750  11.5466260  19.6628280  30.3880680
  12.3117170  18.8566350  31.4159620  13.3278400  21.5364040  31.9749470
  12.9991760  20.7215800  31.5951200  14.2760700  21.4933850  31.8515160
  15.7813010  37.3076080  28.9487040  15.3215980  38.0591890  28.5745060
  15.1525470  36.5882550  28.8901840   2.6063630  33.4019320  31.3385760
   1.8797690  32.7824610  31.2711710   2.6672780  33.7959930  30.4683840
   6.2108730  35.6164320  28.1235170   6.7273750  35.0051680  27.5983430
   6.8606110  36.1193100  28.6146180   8.9504230  36.5072810  28.9504150
   9.2382040  36.2527110  28.0737160   9.4627450  35.9550170  29.5409720
  10.1681240  20.2463010  29.5300660   9.3853030  20.7208510  29.8097420
   9.8744170  19.3417840  29.4213840  14.7202310  20.9486110  27.5749750
  15.1610400  20.8931210  26.7271350  14.4509900  21.8644120  27.6459930
  16.5840880  20.5801350  25.5858570  16.5229280  19.6362570  25.4389590
  17.3632910  20.6881440  26.1312030   8.0535460  22.6649760  25.0416690
   7.2409970  22.2906650  24.7012570   8.5577100  21.9094840  25.3437880
  12.5560440  19.3292210  26.2799760  13.1589810  19.9012420  26.7548280
  11.8153430  19.8931650  26.0573660  15.6995040  19.7313770  21.5540040
  15.8945670  20.6297220  21.8207470  14.9124910  19.5000850  22.0472990
   2.4956330  35.4126940  21.9932660   1.9703950  35.7934970  21.2894620
   2.4200910  36.0377710  22.7142370   3.8846800  21.0774540  20.5916350
   4.4139560  20.2904340  20.4624300   4.5175120  21.7565730  20.8251880
   6.0784640  20.8149680  23.6461740   5.4487380  20.1136990  23.8131870
   5.5389780  21.5753810  23.4294900   9.0176590  37.4288910  36.3172350
   9.9443900  37.1933180  36.3608310   9.0027020  38.2560910  35.8358380
  17.2521650  36.9714480  23.3146600  17.4273840  36.2852220  22.6707520
  16.5543220  37.4961530  22.9223270   6.2040200  20.0933660  36.0814230
   5.9224470  20.5967260  35.3175050   6.5859900  19.2955410  35.7156360
   5.0949300  37.3609320  20.8681910   5.8268120  37.0768600  20.3205800
   5.3542970  37.1222600  21.7581290   4.2564090  33.4774050  20.8728240
   3.6272970  33.9459150  21.4214070   4.3711920  32.6323270  21.3074430
  12.8055660  19.5087240  36.6594700  12.6921110  19.8281850  37.5546220
  13.6225400  19.9099750  36.3631980  15.5854150  36.6558770  36.1413390
  16.3779470  36.1608000  35.9339350  15.8787300  37.3348910  36.7489000
  11.7113810  27.5279710   7.0229440  11.6307860  26.6134320   6.7521150
  11.2978230  28.0246780   6.3169150   9.8431850  29.3058730   8.9038710
   9.0673950  28.8259170   9.1937280  10.4944780  28.6264380   8.7294870
   3.8597680  29.6178540   9.7814470   3.0282560  29.3627250  10.1810980
   4.4678660  29.6889310  10.5172390  13.8639280  33.7118920   7.6837840
  13.4020810  32.9406160   8.0125010  14.6764830  33.7384990   8.1890290
   3.8398940  33.6518630   9.9772490   4.1426980  32.7616370   9.7982710
   4.5842530  34.2088850   9.7494740  10.0902590  35.9976930   7.3041830
   9.4714030  36.4534430   6.7336270  10.9454370  36.1528390   6.9031530
   9.2840840  31.9815920   8.9108870   9.2149120  31.0405860   8.7498000
  10.0460700  32.0717330   9.4831440  10.3146010  24.7886300   9.1377800
  10.6910830  23.9158180   9.0251470  10.2165520  25.1245000   8.2468240
   4.4451020  23.1611930   4.5995240   4.5517770  24.0615660   4.9064000
   3.5343380  23.1129900   4.3089890  14.0970130  22.2836740   6.0706140
  14.9179750  21.7933310   6.1131620  14.1304210  22.8734400   6.8237980
   2.0934180  25.0830940   9.8447830   2.7744290  25.3469310  10.4635230
   1.7782230  24.2431810  10.1785840   6.2858750  26.1298300   8.9320420
   6.7936970  26.6279270   9.5725440   6.8171990  25.3533500   8.7559780
  18.3869680  24.3003490  12.6349770  17.6821850  24.6885200  12.1164880
  18.6527600  24.9953780  13.2370700   4.5694850  20.7696860  13.1983840
   4.5713290  21.2869250  12.3929740   3.7399160  20.2927040  13.1753770
  10.9565940  30.8816170   4.6973740  10.3383210  31.3465620   4.1336460
  11.4689190  31.5743650   5.1143250   5.8197700  30.4092040  11.3757340
   5.4867080  31.0360960  12.0178410   5.9964380  30.9353920  10.5959010
  14.3331610  24.2237120   8.8433680  13.6287180  24.5122010   9.4236790
  14.6943770  25.0337230   8.4833240   4.2510180  22.4806820  11.2054290
   4.5926990  23.3248870  10.9108160   3.3125990  22.6290560  11.3219630
   5.0316800  32.3772840  13.1906520   5.6490800  33.0523920  12.9090970
   4.1709920  32.7860820  13.0994020  15.9494390  33.8412250  11.1061160
  15.2657910  34.5111360  11.0977830  16.4888680  34.0392900  10.3406020
  17.4018530  23.6691910   9.2342890  16.4543440  23.7030890   9.3658320
  17.7268520  24.4830860   9.6192250   7.9338070  19.9689090   7.5298880
   8.2413050  19.4135980   6.8134380   7.0038770  20.1033550   7.3471870
  13.4853130  35.6856380   9.8206340  13.4980290  35.2818670   8.9528600
  12.9328350  36.4603670   9.7167770  14.7798550  32.4072600   4.9096510
  14.6694880  31.4646930   5.0345930  14.7766800  32.7688240   5.7959270
  12.8838570  30.5886220  11.1488950  13.3007360  30.3746330  10.3142410
  13.6078390  30.8459010  11.7197570  10.3218830  28.0337920   4.2659000
   9.3948110  27.9675300   4.4947470  10.4743650  28.9718050   4.1514240
  16.8300670  28.9873440  11.2405190  16.0019300  29.0566530  10.7655320
  17.4251150  29.5727750  10.7721020  14.3516120  29.5958220   4.7694250
  13.7328540  29.2577770   4.1220550  14.3340570  28.9517980   5.4773440
  13.7942680  25.7742760  12.1860060  13.3813860  26.5996470  12.4400050
  13.0618630  25.1887800  11.9936420   5.9275470  28.5602660   7.0478730
   5.5232470  27.8479910   6.5524630   6.0138590  28.2155900   7.9366770
   6.3957170  32.2470220   9.2117940   6.0985460  31.6415690   8.5325720
   7.3456990  32.2847530   9.1007300   4.6404090  25.3345870  10.8277770
   5.1918680  25.4441210  10.0531020   5.1547600  25.7083470  11.5433000
  14.4842780  35.8202090  12.8741040  14.0073340  36.6274280  12.6813650
  13.8004570  35.1680420  13.0267250   5.4875600  31.9851910  15.8625740
   4.5904130  32.2091880  16.1099140   5.5128470  32.1086850  14.9137140
  12.5280820  28.8345030   1.7767000  12.9674100  27.9967460   1.6304820
  13.2409240  29.4674430   1.8631140   4.3146820  28.8565230  14.4383110
   4.1754590  29.7288030  14.8070510   3.4328180  28.5138040  14.2931050
  10.6376200  33.7741100   5.7448240  11.0772110  34.5165430   5.3303630
  10.5763090  34.0167670   6.6687200   6.1127170  34.7986930  16.6468260
   6.0842600  35.2029880  15.7796690   5.9492140  33.8697290  16.4839860
   2.6280100  27.4547640   4.5485380   2.5077700  28.1809730   3.9366650
   2.3180990  26.6850550   4.0713290  18.0641990  35.5814030  17.9432430
  18.5401710  36.0596920  18.6221510  18.6849150  35.5131520  17.2177930
  17.4675240  32.7726880  15.1032440  17.5938300  32.5338760  14.1849620
  17.5096620  31.9411420  15.5754520  11.3291980  36.4754880  13.6727250
  11.8436650  36.3862890  14.4749680  10.4861060  36.8214580  13.9655160
  13.3046380  36.7610220   3.1011250  13.1447520  36.4713160   3.9993080
  13.1393090  35.9850350   2.5656480   5.7834760  36.5408750   4.8782870
   5.6077240  35.6244290   4.6650670   4.9290500  36.8996040   5.1180670
  12.5722440  35.8960490   5.7357740  13.0279390  35.1149870   6.0496360
  12.9114960  36.6067310   6.2798920  17.3199250  24.8259340  16.0682180
  16.7043520  25.3339010  15.5397640  16.9995670  23.9257670  16.0108120
   5.0943760  20.7982710   7.9309050   4.6511910  21.5792250   7.5993570
   5.6528750  21.1212600   8.6379990   9.3813570  23.6651230  13.5344370
   8.9192940  23.8734250  14.3464310   8.9791680  22.8510580  13.2315040
  14.3818080  24.8860180  14.6641030  13.5311670  24.5865930  14.9850100
  14.2219870  25.1302190  13.7524850  11.4767790  26.3861930  16.7639820
  11.8021200  25.5525680  16.4242050  12.2648120  26.9090450  16.9118150
   8.2102580  20.4193410   2.8114880   7.5856760  20.4153280   3.5368190
   8.1232700  19.5524370   2.4150850   7.1319660  21.3430040   9.7898650
   7.4291990  22.2492870   9.7090670   7.6805220  20.8548820   9.1758220
   4.8857980  25.9216280   5.6590300   4.6598900  25.7053450   6.5636920
   4.1050510  26.3544740   5.3136270  12.1155740  25.9279650   4.2580950
  11.5164630  26.6515450   4.0744570  12.6635350  25.8656430   3.4757400
   7.3257190  26.8201860  16.3250570   7.2300790  25.8796590  16.1750970
   8.1689170  27.0416930  15.9298640  10.7220610  24.5643190   6.2884230
  11.1150180  24.8815390   5.4752920  11.0837460  23.6855070   6.4028750
   2.4567730  23.2315530  14.4784350   2.0631120  24.0790740  14.6857130
   1.7686130  22.5941900  14.6692990   9.0312780  23.3150500  17.5481090
   8.3411100  23.1222700  18.1827180   9.7745080  23.5985140  18.0805390
  11.3075750  27.1548940  10.3835010  10.5756870  27.6635750  10.7325110
  10.9100090  26.3378920  10.0823790   7.7453140  23.8303140   8.7887500
   7.7489200  23.3893090   7.9392040   8.6404260  24.1520470   8.8959320
   3.5955520  23.7129630   7.7481710   3.2555570  24.1904860   8.5048760
   2.8332840  23.2594750   7.3882810   7.8073290  24.8315220   1.7794260
   7.9286110  24.7901700   2.7280080   7.4221800  25.6939370   1.6240990
  11.7701660  22.6082620   9.7957950  11.7874400  23.0591270  10.6399800
  11.5217240  21.7088260  10.0091390  15.1972410  20.0214800  15.6344330
  15.5218180  19.2904460  16.1602310  15.2328920  19.7028440  14.7325320
   8.0461110  27.8904920  10.5352910   8.4131240  27.4163490  11.2814250
   7.8566170  28.7646490  10.8761250   5.8360480  26.9313560  12.8537120
   5.5317550  27.8105540  13.0787480   6.7906940  26.9913350  12.8894560
   4.3642270  31.1374550   3.4503970   3.5904530  30.5972170   3.2902690
   5.0936900  30.6181160   3.1121730  15.1230250  30.1339910   9.2430360
  15.8429370  30.6295200   8.8526470  14.9212070  29.4557800   8.5984230
  10.5840190  21.5277870   3.3859750   9.7704800  21.0291040   3.3105060
  10.3902140  22.3676120   2.9696100  10.5049050  30.2048970  15.1299360
  10.4386360  29.2844640  14.8756950   9.8754190  30.3024410  15.8444000
   4.4079670  30.8054930   7.0882780   4.9258340  30.0023190   7.0339670
   3.9563690  30.7434070   7.9299610   9.2949170  32.0721210   2.3610080
   9.6364870  32.8163440   1.8653400   8.4661880  32.3852330   2.7234910
   5.0937330  28.2300540  16.8848030   4.7937470  28.3757720  15.9875850
   5.8648570  27.6705830  16.7921420  10.4365780  33.0269540  14.8803160
  10.4510320  32.0950500  14.6622070   9.7290880  33.1129300  15.5192930
  16.6476990  29.6676880  14.2271740  15.9225180  30.2605660  14.0301130
  17.1752450  29.6600420  13.4285110  16.5990100  34.0651620   3.8783900
  15.9566260  33.4107240   4.1527620  16.2120760  34.4706710   3.1024570
  12.1776580  31.3937050   7.7255590  12.5300400  30.7965180   7.0656960
  11.2938910  31.0681280   7.8963840   8.2639860  32.1534740   5.1326000
   8.9510990  32.7003950   5.5133590   7.4772280  32.6975470   5.1675610
   7.5667070  29.1580770   4.7451360   8.0229850  29.9686020   4.9711550
   7.2155280  28.8403910   5.5769850   9.8699680  34.6687110  11.9743660
  10.5141900  34.8746490  12.6517080  10.2329120  33.9075510  11.5214510
   3.4678850  19.5018420   5.2173880   3.3393480  19.4936320   6.1658800
   2.6440870  19.8401510   4.8664890  11.1431760  32.6719460  10.6921110
  11.7853990  31.9712620  10.8053280  11.6681110  33.4517900  10.5118000
  12.9169380  33.4714360  13.8957170  13.2525620  34.0581050  14.5735090
  11.9969720  33.3407070  14.1254960  14.5703730  30.8740020   2.0774410
  14.2825430  31.3352710   2.8652290  15.3655900  30.4137790   2.3458630
   8.7457960  33.5205690  17.0645230   8.4254830  32.8014930  17.6090920
   8.0716320  34.1960760  17.1381290   6.7872130  34.3666140   2.0078380
   6.7782230  35.0995830   1.3922890   5.8670490  34.1197720   2.1005340
   2.3878770  29.5881030   2.7525140   1.7806720  30.3279930   2.7620440
   2.8628120  29.6780390   1.9263340  11.9611560  23.7531850  12.4282030
  12.3292380  22.9327060  12.7561600  11.1009760  23.8133740  12.8437680
  15.3273590  22.7088790   3.2369590  14.6986750  22.8134460   2.5227820
  14.8325510  22.9285570   4.0263470   7.2957620  24.9874740   4.6527470
   6.5873770  25.4561080   5.0941080   7.5802100  24.3296750   5.2872660
   8.9213550  26.4071440  12.6520000   9.4198800  26.8817260  13.3171850
   9.0636500  25.4834960  12.8590030  11.3273050  21.7125400   6.0923260
  11.2040830  21.7311530   5.1432770  12.2757610  21.7604340   6.2121660
   8.4149840  36.9480700   5.3651240   8.6691340  36.9102090   4.4430610
   7.4662320  36.8214030   5.3579490   5.4992640  23.2959820   2.0278180
   6.3483170  23.7329970   1.9618370   5.1323910  23.6080080   2.8550240
  16.1280410  22.6239400  13.4948390  15.6254010  23.3644800  13.8342200
  16.9437070  23.0123400  13.1785180  14.4202420  27.8672580   6.9409750
  13.4792560  27.8822810   7.1157440  14.7346490  27.0808540   7.3870050
  16.4228000  35.0381430   8.6164010  16.5475420  35.8612600   9.0887820
  17.2893560  34.8272160   8.2688160   3.8945530  37.1312640   8.2881140
   4.6308010  36.5828100   8.5589710   4.2786450  37.9968650   8.1487130
   2.9003810  36.3158710  17.4766720   3.7016540  36.6370760  17.8902120
   2.3855630  35.9554290  18.1986630  11.7368440  32.4238580  17.4242130
  11.1306600  32.4470180  16.6837880  11.4322550  31.6921620  17.9609380
  13.1668810  36.1518870  16.0351540  14.1190560  36.0676890  15.9851780
  13.0197030  36.8160580  16.7085330   7.6739560  30.2103160  15.9538290
   6.9085230  30.7788160  15.8692960   7.8555520  29.9179370  15.0606520
  14.8162910  31.9408490  16.5113310  15.5572380  32.2784250  16.0080770
  14.0535590  32.1100550  15.9583080   2.6524700  26.9461760  17.3152840
   2.6930040  26.6475630  18.2238070   3.5070200  27.3469370  17.1560360
   6.4303090  29.5457310   2.4756350   6.8519510  29.3797180   3.3187740
   6.5553930  28.7357540   1.9811490   4.5930510  25.5253860  15.2827330
   4.0626970  25.0344810  14.6550670   5.2618580  25.9538060  14.7485260
  13.4908570  29.9923320  15.0468520  13.9049590  30.1468400  15.8958940
  12.5559570  30.1178540  15.2094300  13.9630740  27.3319480  17.0507670
  14.5451510  26.5771800  16.9628150  14.1392510  27.8626920  16.2739150
   5.0802810  22.4916230  15.3624620   4.9859680  21.8736980  14.6375490
   4.5000200  23.2182520  15.1354530   7.8464250  21.0489470  12.3952010
   7.3981550  21.0713730  11.5497560   7.2129450  20.6508490  12.9922310
   8.2523800  29.9443800  13.0164450   8.6711910  30.7876530  12.8440690
   7.3332430  30.0815840  12.7871230  10.5887700  27.6759980  14.4002290
  10.7083910  27.0801120  15.1397130  11.4481700  27.7129670  13.9803590
  12.9275600  28.2297170  12.9764800  12.4010820  28.7539790  12.3729940
  13.2706940  28.8624560  13.6074530   6.1031220  36.2496810  14.1322180
   5.5652310  36.9742870  13.8130880   6.3565180  35.7727150  13.3419520
   7.3556470  24.2181330  15.6578110   7.9456160  23.9097180  16.3455930
   6.5376710  23.7461080  15.8138010  12.1749900  23.8347140  15.8911130
  11.4865420  23.1728680  15.8261120  12.8955920  23.3885410  16.3359590
  12.8050300  20.4298770   1.9501390  13.0852590  19.5866670   2.3060810
  12.0316030  20.6621880   2.4640140   8.9593430  37.4848020  14.3908830
   8.8852130  38.3883160  14.6981200   8.0572270  37.1659920  14.3630900
   9.5078760  36.6506530   2.0135190  10.4029550  36.9891500   2.0353950
   9.5396390  35.9285940   1.3859470   4.9582640  33.1431620   5.3544420
   4.6578180  33.0196590   6.2548330   4.8520130  32.2840210   4.9460150
  16.4873110  35.1810200  14.7201390  15.8875100  35.2402760  13.9765310
  16.6167010  34.2415180  14.8498240  17.1831020  29.6675500   2.5605300
  17.9449930  30.2372150   2.6664990  17.1985390  29.1002700   3.3313610
  18.1890990  30.5225600   7.4047230  18.5599820  29.7392920   6.9983200
  18.8292920  31.2114700   7.2264530  15.1724750  31.9062180  12.8177550
  14.3584590  32.3359340  13.0803340  15.5798950  32.5180590  12.2046600
  17.1315530  27.8978860   4.7107250  16.7559130  27.1306790   4.2788540
  16.4018650  28.2801560   5.1982180  16.5215150  27.0450380  14.3446770
  16.2901240  26.8163130  13.4444720  16.7819700  27.9649930  14.2991660
  14.9603220  22.2706810  17.1226470  15.8373400  22.2790210  17.5060470
  14.9724060  21.5337650  16.5118820  16.4066490  26.1236350   8.0114490
  16.9303970  25.6299000   7.3804660  16.9925910  26.2586710   8.7562060
  16.5856210  26.2076220  11.5334040  15.6358920  26.1739760  11.6479030
  16.7669220  27.1176330  11.2983810  15.8966460  25.3809700   3.9506900
  16.3925580  25.1480570   4.7355780  15.6982530  24.5421540   3.5344540
   1.7767000  19.7623420   9.5857940   2.4243190  19.2120800   9.1453100
   2.1968840  20.0166570  10.4073750  17.3253620  24.0170650   6.4844580
  17.2152900  23.8626690   7.4226850  18.0861210  23.4891590   6.2419990
  15.6719340  19.9564780  12.9427580  16.3091560  20.5698920  13.3086770
  15.8194230  19.9925440  11.9976810  18.2882380  22.6189230   2.3507430
  17.4933880  22.5534350   2.8800340  18.4925660  23.5539870   2.3392780
  15.2300800  36.6580780   6.3445820  15.8259870  36.3365350   5.6680240
  15.4878950  36.1852600   7.1359090   3.1363370  33.0898690  16.4936450
   3.0933000  32.7191600  17.3750910   3.2674380  34.0276260  16.6338270
   6.8369400  34.6458280  12.0946170   6.5960760  34.9132840  11.2076690
   7.7772040  34.8164010  12.1497030   9.0423820  21.1090970  15.8502680
   8.9812710  21.7012800  16.5998090   9.9824200  21.0016930  15.7052940
  11.6798380  20.7661030  15.4894970  12.2938790  21.0840320  14.8276050
  12.2247940  20.2809620  16.1090830  18.0973560  36.6652660  12.8956810
  17.6031840  37.0621530  12.1783940  17.4886850  36.0401870  13.2894090
   2.2019640  19.4455290  15.6034030   2.7502630  19.2643340  14.8400140
   2.2674950  18.6549400  16.1390340   2.9751400  36.0360940  13.6134230
   2.3811720  35.9045640  14.3524270   2.9675240  35.1999080  13.1476330
  12.4206420  19.3293170  11.8164260  11.5466260  19.6628280  11.6137190
  12.3117170  18.8566350  12.6416130  13.3278400  21.5364040  13.2005980
  12.9991760  20.7215800  12.8207710  14.2760700  21.4933850  13.0771670
  15.7813010  37.3076080  10.1743550  15.3215980  38.0591890   9.8001570
  15.1525470  36.5882550  10.1158350   2.6063630  33.4019320  12.5642270
   1.8797690  32.7824610  12.4968220   2.6672780  33.7959930  11.6940350
   6.2108730  35.6164320   9.3491680   6.7273750  35.0051680   8.8239940
   6.8606110  36.1193100   9.8402690   8.9504230  36.5072810  10.1760660
   9.2382040  36.2527110   9.2993670   9.4627450  35.9550170  10.7666230
  10.1681240  20.2463010  10.7557170   9.3853030  20.7208510  11.0353930
   9.8744170  19.3417840  10.6470350  14.7202310  20.9486110   8.8006260
  15.1610400  20.8931210   7.9527860  14.4509900  21.8644120   8.8716440
  16.5840880  20.5801350   6.8115080  16.5229280  19.6362570   6.6646100
  17.3632910  20.6881440   7.3568540   8.0535460  22.6649760   6.2673200
   7.2409970  22.2906650   5.9269080   8.5577100  21.9094840   6.5694390
  12.5560440  19.3292210   7.5056270  13.1589810  19.9012420   7.9804790
  11.8153430  19.8931650   7.2830170  15.6995040  19.7313770   2.7796550
  15.8945670  20.6297220   3.0463980  14.9124910  19.5000850   3.2729500
   2.4956330  35.4126940   3.2189170   1.9703950  35.7934970   2.5151130
   2.4200910  36.0377710   3.9398880   3.8846800  21.0774540   1.8172860
   4.4139560  20.2904340   1.6880810   4.5175120  21.7565730   2.0508390
   6.0784640  20.8149680   4.8718250   5.4487380  20.1136990   5.0388380
   5.5389780  21.5753810   4.6551410   9.0176590  37.4288910  17.5428860
   9.9443900  37.1933180  17.5864820   9.0027020  38.2560910  17.0614890
  17.2521650  36.9714480   4.5403110  17.4273840  36.2852220   3.8964030
  16.5543220  37.4961530   4.1479780   6.2040200  20.0933660  17.3070740
   5.9224470  20.5967260  16.5431560   6.5859900  19.2955410  16.9412870
   5.0949300  37.3609320   2.0938420   5.8268120  37.0768600   1.5462310
   5.3542970  37.1222600   2.9837800   4.2564090  33.4774050   2.0984750
   3.6272970  33.9459150   2.6470580   4.3711920  32.6323270   2.5330940
  12.8055660  19.5087240  17.8851210  12.6921110  19.8281850  18.7802730
  13.6225400  19.9099750  17.5888490  15.5854150  36.6558770  17.3669900
  16.3779470  36.1608000  17.1595860  15.8787300  37.3348910  17.9745510
  11.7113810   8.7536220  63.3459910  11.6307860   7.8390830  63.0751620
  11.2978230   9.2503290  62.6399620   9.8431850  10.5315240  65.2269180
   9.0673950  10.0515680  65.5167750  10.4944780   9.8520890  65.0525340
   3.8597680  10.8435050  66.1044940   3.0282560  10.5883760  66.5041450
   4.4678660  10.9145820  66.8402860  13.8639280  14.9375430  64.0068310
  13.4020810  14.1662670  64.3355480  14.6764830  14.9641500  64.5120760
   3.8398940  14.8775140  66.3002960   4.1426980  13.9872880  66.1213180
   4.5842530  15.4345360  66.0725210  10.0902590  17.2233440  63.6272300
   9.4714030  17.6790940  63.0566740  10.9454370  17.3784900  63.2262000
   9.2840840  13.2072430  65.2339340   9.2149120  12.2662370  65.0728470
  10.0460700  13.2973840  65.8061910  10.3146010   6.0142810  65.4608270
  10.6910830   5.1414690  65.3481940  10.2165520   6.3501510  64.5698710
   4.4451020   4.3868440  60.9225710   4.5517770   5.2872170  61.2294470
   3.5343380   4.3386410  60.6320360  14.0970130   3.5093250  62.3936610
  14.9179750   3.0189820  62.4362090  14.1304210   4.0990910  63.1468450
   2.0934180   6.3087450  66.1678300   2.7744290   6.5725820  66.7865700
   1.7782230   5.4688320  66.5016310   6.2858750   7.3554810  65.2550890
   6.7936970   7.8535780  65.8955910   6.8171990   6.5790010  65.0790250
  18.3869680   5.5260000  68.9580240  17.6821850   5.9141710  68.4395350
  18.6527600   6.2210290  69.5601170  10.9565940  12.1072680  61.0204210
  10.3383210  12.5722130  60.4566930  11.4689190  12.8000160  61.4373720
   5.8197700  11.6348550  67.6987810   5.4867080  12.2617470  68.3408880
   5.9964380  12.1610430  66.9189480  14.3331610   5.4493630  65.1664150
  13.6287180   5.7378520  65.7467260  14.6943770   6.2593740  64.8063710
   4.2510180   3.7063330  67.5284760   4.5926990   4.5505380  67.2338630
   3.3125990   3.8547070  67.6450100   5.0316800  13.6029350  69.5136990
   5.6490800  14.2780430  69.2321440   4.1709920  14.0117330  69.4224490
  15.9494390  15.0668760  67.4291630  15.2657910  15.7367870  67.4208300
  16.4888680  15.2649410  66.6636490  17.4018530   4.8948420  65.5573360
  16.4543440   4.9287400  65.6888790  17.7268520   5.7087370  65.9422720
  13.4853130  16.9112890  66.1436810  13.4980290  16.5075180  65.2759070
  12.9328350  17.6860180  66.0398240  14.7798550  13.6329110  61.2326980
  14.6694880  12.6903440  61.3576400  14.7766800  13.9944750  62.1189740
  12.8838570  11.8142730  67.4719420  13.3007360  11.6002840  66.6372880
  13.6078390  12.0715520  68.0428040  10.3218830   9.2594430  60.5889470
   9.3948110   9.1931810  60.8177940  10.4743650  10.1974560  60.4744710
  10.3087910   5.5311430  57.5856630   9.3691580   5.6925390  57.6709090
  10.6271170   6.2497110  57.0392620  16.8300670  10.2129950  67.5635660
  16.0019300  10.2823040  67.0885790  17.4251150  10.7984260  67.0951490
  14.3516120  10.8214730  61.0924720  13.7328540  10.4834280  60.4451020
  14.3340570  10.1774490  61.8003910  13.7942680   6.9999270  68.5090530
  13.3813860   7.8252980  68.7630520  13.0618630   6.4144310  68.3166890
   5.9275470   9.7859170  63.3709200   5.5232470   9.0736420  62.8755100
   6.0138590   9.4412410  64.2597240   6.3957170  13.4726730  65.5348410
   6.0985460  12.8672200  64.8556190   7.3456990  13.5104040  65.4237770
   4.6404090   6.5602380  67.1508240   5.1918680   6.6697720  66.3761490
   5.1547600   6.9339980  67.8663470  14.4842780  17.0458600  69.1971510
  14.0073340  17.8530790  69.0044120  13.8004570  16.3936930  69.3497720
  12.5280820  10.0601540  58.0997470  12.9674100   9.2223970  57.9535290
  13.2409240  10.6930940  58.1861610   4.3146820  10.0821740  70.7613580
   4.1754590  10.9544540  71.1300980   3.4328180   9.7394550  70.6161520
  10.6376200  14.9997610  62.0678710  11.0772110  15.7421940  61.6534100
  10.5763090  15.2424180  62.9917670   2.6280100   8.6804150  60.8715850
   2.5077700   9.4066240  60.2597120   2.3180990   7.9107060  60.3943760
  17.4675240  13.9983390  71.4262910  17.5938300  13.7595270  70.5080090
  17.5096620  13.1667930  71.8984990  11.3291980  17.7011390  69.9957720
  11.8436650  17.6119400  70.7980150  10.4861060  18.0471090  70.2885630
  13.3046380  17.9866730  59.4241720  13.1447520  17.6969670  60.3223550
  13.1393090  17.2106860  58.8886950   5.7834760  17.7665260  61.2013340
   5.6077240  16.8500800  60.9881140   4.9290500  18.1252550  61.4411140
  13.0072510  15.4954290  57.9839720  12.3137670  15.4931580  57.3242000
  13.7495370  15.0713610  57.5533890  12.5722440  17.1217000  62.0588210
  13.0279390  16.3406380  62.3726830  12.9114960  17.8323820  62.6029390
   5.0943760   2.0239220  64.2539520   4.6511910   2.8048760  63.9224040
   5.6528750   2.3469110  64.9610460   9.3813570   4.8907740  69.8574840
   8.9192940   5.0990760  70.6694780   8.9791680   4.0767090  69.5545510
  14.3818080   6.1116690  70.9871500  13.5311670   5.8122440  71.3080570
  14.2219870   6.3558700  70.0755320   7.1319660   2.5686550  66.1129120
   7.4291990   3.4749380  66.0321140   7.6805220   2.0805330  65.4988690
   4.8857980   7.1472790  61.9820770   4.6598900   6.9309960  62.8867390
   4.1050510   7.5801250  61.6366740  12.1155740   7.1536160  60.5811420
  11.5164630   7.8771960  60.3975040  12.6635350   7.0912940  59.7987870
  10.7220610   5.7899700  62.6114700  11.1150180   6.1071900  61.7983390
  11.0837460   4.9111580  62.7259220   2.4567730   4.4572040  70.8014820
   2.0631120   5.3047250  71.0087600   1.7686130   3.8198410  70.9923460
  11.3075750   8.3805450  66.7065480  10.5756870   8.8892260  67.0555580
  10.9100090   7.5635430  66.4054260   7.7453140   5.0559650  65.1117970
   7.7489200   4.6149600  64.2622510   8.6404260   5.3776980  65.2189790
   3.5955520   4.9386140  64.0712180   3.2555570   5.4161370  64.8279230
   2.8332840   4.4851260  63.7113280   7.8073290   6.0571730  58.1024730
   7.9286110   6.0158210  59.0510550   7.4221800   6.9195880  57.9471460
  11.7701660   3.8339130  66.1188420  11.7874400   4.2847780  66.9630270
  11.5217240   2.9344770  66.3321860   6.8194790   8.3672870  57.5008030
   6.2511690   7.9191120  56.8743940   7.5283790   8.7265650  56.9673180
   8.0461110   9.1161430  66.8583380   8.4131240   8.6420000  67.6044720
   7.8566170   9.9903000  67.1991720   5.8360480   8.1570070  69.1767590
   5.5317550   9.0362050  69.4017950   6.7906940   8.2169860  69.2125030
   4.3642270  12.3631060  59.7734440   3.5904530  11.8228680  59.6133160
   5.0936900  11.8437670  59.4352200  15.1230250  11.3596420  65.5660830
  15.8429370  11.8551710  65.1756940  14.9212070  10.6814310  64.9214700
  10.5840190   2.7534380  59.7090220   9.7704800   2.2547550  59.6335530
  10.3902140   3.5932630  59.2926570  10.5049050  11.4305480  71.4529830
  10.4386360  10.5101150  71.1987420   9.8754190  11.5280920  72.1674470
  13.2988580   7.1254030  58.0052380  14.1868200   7.4371260  57.8303720
  13.2693670   6.2526280  57.6132960   4.4079670  12.0311440  63.4113250
   4.9258340  11.2279700  63.3570140   3.9563690  11.9690580  64.2530080
   9.2949170  13.2977720  58.6840550   9.6364870  14.0419950  58.1883870
   8.4661880  13.6108840  59.0465380  10.4365780  14.2526050  71.2033630
  10.4510320  13.3207010  70.9852540   9.7290880  14.3385810  71.8423400
  15.5702850   8.4365870  57.4732240  15.4866570   8.8680090  56.6228680
  16.2897040   8.8964220  57.9059060  16.6476990  10.8933390  70.5502210
  15.9225180  11.4862170  70.3531600  17.1752450  10.8856930  69.7515580
  16.5990100  15.2908130  60.2014370  15.9566260  14.6363750  60.4758090
  16.2120760  15.6963220  59.4255040  12.1776580  12.6193560  64.0486060
  12.5300400  12.0221690  63.3887430  11.2938910  12.2937790  64.2194310
   8.2639860  13.3791250  61.4556470   8.9510990  13.9260460  61.8364060
   7.4772280  13.9231980  61.4906080   7.5667070  10.3837280  61.0681830
   8.0229850  11.1942530  61.2942020   7.2155280  10.0660420  61.9000320
   9.8699680  15.8943620  68.2974130  10.5141900  16.1003000  68.9747550
  10.2329120  15.1332020  67.8444980  11.1431760  13.8975970  67.0151580
  11.7853990  13.1969130  67.1283750  11.6681110  14.6774410  66.8348470
  14.9887480  14.1824590  56.7390720  14.7625060  13.4655030  57.3315360
  14.5983680  13.9337030  55.9012470  12.9169380  14.6970870  70.2187640
  13.2525620  15.2837560  70.8965560  11.9969720  14.5663580  70.4485430
  14.5703730  12.0996530  58.4004880  14.2825430  12.5609220  59.1882760
  15.3655900  11.6394300  58.6689100   6.7872130  15.5922650  58.3308850
   6.7782230  16.3252340  57.7153360   5.8670490  15.3454230  58.4235810
   2.3878770  10.8137540  59.0755610   1.7806720  11.5536440  59.0850910
   2.8628120  10.9036900  58.2493810  11.9611560   4.9788360  68.7512500
  12.3292380   4.1583570  69.0792070  11.1009760   5.0390250  69.1668150
  15.3273590   3.9345300  59.5600060  14.6986750   4.0390970  58.8458290
  14.8325510   4.1542080  60.3493940   9.7731730  15.6550890  56.9934040
   9.8743710  15.4514880  56.0636020   8.8733470  15.4009170  57.1981820
   7.2957620   6.2131250  60.9757940   6.5873770   6.6817590  61.4171550
   7.5802100   5.5553260  61.6103130   8.9213550   7.6327950  68.9750470
   9.4198800   8.1073770  69.6402320   9.0636500   6.7091470  69.1820500
  11.3273050   2.9381910  62.4153730  11.2040830   2.9568040  61.4663240
  12.2757610   2.9860850  62.5352130   8.4149840  18.1737210  61.6881710
   8.6691340  18.1358600  60.7661080   7.4662320  18.0470540  61.6809960
   5.4992640   4.5216330  58.3508650   6.3483170   4.9586480  58.2848840
   5.1323910   4.8336590  59.1780710  16.1280410   3.8495910  69.8178860
  15.6254010   4.5901310  70.1572670  16.9437070   4.2379910  69.5015650
  14.4202420   9.0929090  63.2640220  13.4792560   9.1079320  63.4387910
  14.7346490   8.3065050  63.7100520   4.3984060  10.7748690  56.8244180
   5.1647330  10.6630050  57.3869610   4.4758750  10.0786660  56.1720950
   3.0930820   8.2073760  57.5077070   3.1734410   7.2601270  57.6194470
   3.9850570   8.5380640  57.6137730  16.4228000  16.2637940  64.9394480
  16.5475420  17.0869110  65.4118290  17.2893560  16.0528670  64.5918630
   3.8945530  18.3569150  64.6111610   4.6308010  17.8084610  64.8820180
   4.2786450  19.2225160  64.4717600   7.0047840  17.5299460  56.4337180
   7.7976450  17.8188290  55.9818970   6.4852190  17.0991630  55.7549660
  16.0578010  16.7569590  57.8573920  15.7719520  16.3434730  57.0428100
  15.8597560  17.6857300  57.7374440   7.5225240  12.7502870  56.2979530
   7.4175880  12.1355220  57.0240910   7.3549460  12.2268760  55.5142540
  10.7627970  11.8122900  56.9021520  10.2138070  12.2592200  57.5464260
  11.3847230  11.3072150  57.4259190   6.4303090  10.7713820  58.7986820
   6.8519510  10.6053690  59.6418210   6.5553930   9.9614050  58.3041960
   4.5930510   6.7510370  71.6057800   4.0626970   6.2601320  70.9781140
   5.2618580   7.1794570  71.0715730   8.9430730   9.7951430  56.0463920
   9.4636390   9.0800450  55.6805070   9.5899130  10.4337300  56.3464430
  13.4908570  11.2179830  71.3698990  13.9049590  11.3724910  72.2189410
  12.5559570  11.3435050  71.5324770   5.0802810   3.7172740  71.6855090
   4.9859680   3.0993490  70.9605960   4.5000200   4.4439030  71.4585000
   7.8464250   2.2745980  68.7182480   7.3981550   2.2970240  67.8728030
   7.2129450   1.8765000  69.3152780   8.2523800  11.1700310  69.3394920
   8.6711910  12.0133040  69.1671160   7.3332430  11.3072350  69.1101700
  10.5887700   8.9016490  70.7232760  10.7083910   8.3057630  71.4627600
  11.4481700   8.9386180  70.3034060  12.9275600   9.4553680  69.2995270
  12.4010820   9.9796300  68.6960410  13.2706940  10.0881070  69.9305000
   5.3261990   6.8447050  55.7444980   5.1251050   5.9814410  56.1058320
   5.1554040   6.7580410  54.8066580   6.1031220  17.4753320  70.4552650
   5.5652310  18.1999380  70.1361350   6.3565180  16.9983660  69.6649990
   4.1244790   3.9447670  55.7322860   4.4270690   3.9515100  54.8242010
   4.8639380   3.5945530  56.2290520   8.9593430  18.7104530  70.7139300
   8.8852130  19.6139670  71.0211670   8.0572270  18.3916430  70.6861370
   7.3429720   2.8882290  56.7179060   6.9951720   2.2106280  56.1381510
   7.5442490   2.4271800  57.5322450   9.5078760  17.8763040  58.3365660
  10.4029550  18.2148010  58.3584420   9.5396390  17.1542450  57.7089940
   3.1474920  13.2490090  56.5652660   3.5849790  13.7919760  57.2210240
   3.6322650  12.4237040  56.5749000   4.9582640  14.3688130  61.6774890
   4.6578180  14.2453100  62.5778800   4.8520130  13.5096720  61.2690620
  16.4873110  16.4066710  71.0431860  15.8875100  16.4659270  70.2995780
  16.6167010  15.4671690  71.1728710  17.7274560  14.1484530  56.3801570
  16.8967520  14.2161180  56.8508800  17.9046390  15.0388650  56.0768430
  17.1831020  10.8932010  58.8835770  17.9449930  11.4628660  58.9895460
  17.1985390  10.3259210  59.6544080  18.1890990  11.7482110  63.7277700
  18.5599820  10.9649430  63.3213670  18.8292920  12.4371210  63.5495000
  15.1724750  13.1318690  69.1408020  14.3584590  13.5615850  69.4033810
  15.5798950  13.7437100  68.5277070  17.2350190  11.1866380  56.0408290
  17.5099030  12.0945260  55.9127510  17.0460930  11.1228910  56.9770280
  13.6325800   4.2111230  57.3361920  14.0510680   4.0242210  56.4958580
  13.3261860   3.3590280  57.6464850  17.1315530   9.1235370  61.0337720
  16.7559130   8.3563300  60.6019010  16.4018650   9.5058070  61.5212650
  16.5215150   8.2706890  70.6677240  16.2901240   8.0419640  69.7675190
  16.7819700   9.1906440  70.6222130  16.4066490   7.3492860  64.3344960
  16.9303970   6.8555510  63.7035130  16.9925910   7.4843220  65.0792530
  16.5856210   7.4332730  67.8564510  15.6358920   7.3996270  67.9709500
  16.7669220   8.3432840  67.6214280  15.8966460   6.6066210  60.2737370
  16.3925580   6.3737080  61.0586250  15.6982530   5.7678050  59.8575010
  17.3253620   5.2427160  62.8075050  17.2152900   5.0883200  63.7457320
  18.0861210   4.7148100  62.5650460  18.2143890   3.0735080  56.0481190
  19.1393200   2.9416260  55.8399480  18.1919680   3.1527900  57.0017640
  18.2882380   3.8445740  58.6737900  17.4933880   3.7790860  59.2030810
  18.4925660   4.7796380  58.6623250  15.2300800  17.8837290  62.6676290
  15.8259870  17.5621860  61.9910710  15.4878950  17.4109110  63.4589560
   6.8369400  15.8714790  68.4176640   6.5960760  16.1389350  67.5307160
   7.7772040  16.0420520  68.4727500  18.0973560  17.8909170  69.2187280
  17.6031840  18.2878040  68.5014410  17.4886850  17.2658380  69.6124560
   2.9751400  17.2617450  69.9364700   2.3811720  17.1302150  70.6754740
   2.9675240  16.4255590  69.4706800  13.3278400   2.7620550  69.5236450
  12.9991760   1.9472310  69.1438180  14.2760700   2.7190360  69.4002140
  15.7813010  18.5332590  66.4974020  15.3215980  19.2848400  66.1232040
  15.1525470  17.8139060  66.4388820   2.6063630  14.6275830  68.8872740
   1.8797690  14.0081120  68.8198690   2.6672780  15.0216440  68.0170820
   6.2108730  16.8420830  65.6722150   6.7273750  16.2308190  65.1470410
   6.8606110  17.3449610  66.1633160   8.9504230  17.7329320  66.4991130
   9.2382040  17.4783620  65.6224140   9.4627450  17.1806680  67.0896700
  14.7202310   2.1742620  65.1236730  15.1610400   2.1187720  64.2758330
  14.4509900   3.0900630  65.1946910   8.0535460   3.8906270  62.5903670
   7.2409970   3.5163160  62.2499550   8.5577100   3.1351350  62.8924860
   2.4956330  16.6383450  59.5419640   1.9703950  17.0191480  58.8381600
   2.4200910  17.2634220  60.2629350  17.2521650  18.1970990  60.8633580
  17.4273840  17.5108730  60.2194500  16.5543220  18.7218040  60.4710250
   5.0949300  18.5865830  58.4168890   5.8268120  18.3025110  57.8692780
   5.3542970  18.3479110  59.3068270   4.2564090  14.7030560  58.4215220
   3.6272970  15.1715660  58.9701050   4.3711920  13.8579780  58.8561410
  11.7113810   8.7536220  44.5716420  11.6307860   7.8390830  44.3008130
  11.2978230   9.2503290  43.8656130   9.8431850  10.5315240  46.4525690
   9.0673950  10.0515680  46.7424260  10.4944780   9.8520890  46.2781850
   3.8597680  10.8435050  47.3301450   3.0282560  10.5883760  47.7297960
   4.4678660  10.9145820  48.0659370  13.8639280  14.9375430  45.2324820
  13.4020810  14.1662670  45.5611990  14.6764830  14.9641500  45.7377270
   3.8398940  14.8775140  47.5259470   4.1426980  13.9872880  47.3469690
   4.5842530  15.4345360  47.2981720  10.0902590  17.2233440  44.8528810
   9.4714030  17.6790940  44.2823250  10.9454370  17.3784900  44.4518510
   9.2840840  13.2072430  46.4595850   9.2149120  12.2662370  46.2984980
  10.0460700  13.2973840  47.0318420  10.3146010   6.0142810  46.6864780
  10.6910830   5.1414690  46.5738450  10.2165520   6.3501510  45.7955220
   4.4451020   4.3868440  42.1482220   4.5517770   5.2872170  42.4550980
   3.5343380   4.3386410  41.8576870  14.0970130   3.5093250  43.6193120
  14.9179750   3.0189820  43.6618600  14.1304210   4.0990910  44.3724960
   2.0934180   6.3087450  47.3934810   2.7744290   6.5725820  48.0122210
   1.7782230   5.4688320  47.7272820   6.2858750   7.3554810  46.4807400
   6.7936970   7.8535780  47.1212420   6.8171990   6.5790010  46.3046760
  18.3869680   5.5260000  50.1836750  17.6821850   5.9141710  49.6651860
  18.6527600   6.2210290  50.7857680  10.9565940  12.1072680  42.2460720
  10.3383210  12.5722130  41.6823440  11.4689190  12.8000160  42.6630230
   5.8197700  11.6348550  48.9244320   5.4867080  12.2617470  49.5665390
   5.9964380  12.1610430  48.1445990  14.3331610   5.4493630  46.3920660
  13.6287180   5.7378520  46.9723770  14.6943770   6.2593740  46.0320220
   4.2510180   3.7063330  48.7541270   4.5926990   4.5505380  48.4595140
   3.3125990   3.8547070  48.8706610   5.0316800  13.6029350  50.7393500
   5.6490800  14.2780430  50.4577950   4.1709920  14.0117330  50.6481000
  15.9494390  15.0668760  48.6548140  15.2657910  15.7367870  48.6464810
  16.4888680  15.2649410  47.8893000  17.4018530   4.8948420  46.7829870
  16.4543440   4.9287400  46.9145300  17.7268520   5.7087370  47.1679230
  13.4853130  16.9112890  47.3693320  13.4980290  16.5075180  46.5015580
  12.9328350  17.6860180  47.2654750  14.7798550  13.6329110  42.4583490
  14.6694880  12.6903440  42.5832910  14.7766800  13.9944750  43.3446250
  12.8838570  11.8142730  48.6975930  13.3007360  11.6002840  47.8629390
  13.6078390  12.0715520  49.2684550  10.3218830   9.2594430  41.8145980
   9.3948110   9.1931810  42.0434450  10.4743650  10.1974560  41.7001220
  10.3087910   5.5311430  38.8113140   9.3691580   5.6925390  38.8965600
  10.6271170   6.2497110  38.2649130  16.8300670  10.2129950  48.7892170
  16.0019300  10.2823040  48.3142300  17.4251150  10.7984260  48.3208000
  14.3516120  10.8214730  42.3181230  13.7328540  10.4834280  41.6707530
  14.3340570  10.1774490  43.0260420  13.7942680   6.9999270  49.7347040
  13.3813860   7.8252980  49.9887030  13.0618630   6.4144310  49.5423400
   5.9275470   9.7859170  44.5965710   5.5232470   9.0736420  44.1011610
   6.0138590   9.4412410  45.4853750   6.3957170  13.4726730  46.7604920
   6.0985460  12.8672200  46.0812700   7.3456990  13.5104040  46.6494280
   4.6404090   6.5602380  48.3764750   5.1918680   6.6697720  47.6018000
   5.1547600   6.9339980  49.0919980  14.4842780  17.0458600  50.4228020
  14.0073340  17.8530790  50.2300630  13.8004570  16.3936930  50.5754230
   5.4875600  13.2108420  53.4112720   4.5904130  13.4348390  53.6586120
   5.5128470  13.3343360  52.4624120  12.5280820  10.0601540  39.3253980
  12.9674100   9.2223970  39.1791800  13.2409240  10.6930940  39.4118120
   4.3146820  10.0821740  51.9870090   4.1754590  10.9544540  52.3557490
   3.4328180   9.7394550  51.8418030  10.6376200  14.9997610  43.2935220
  11.0772110  15.7421940  42.8790610  10.5763090  15.2424180  44.2174180
   6.1127170  16.0243440  54.1955240   6.0842600  16.4286390  53.3283670
   5.9492140  15.0953800  54.0326840   2.6280100   8.6804150  42.0972360
   2.5077700   9.4066240  41.4853630   2.3180990   7.9107060  41.6200270
  18.0641990  16.8070540  55.4919410  18.5401710  17.2853430  56.1708490
  18.6849150  16.7388030  54.7664910  17.4675240  13.9983390  52.6519420
  17.5938300  13.7595270  51.7336600  17.5096620  13.1667930  53.1241500
  11.3291980  17.7011390  51.2214230  11.8436650  17.6119400  52.0236660
  10.4861060  18.0471090  51.5142140  13.3046380  17.9866730  40.6498230
  13.1447520  17.6969670  41.5480060  13.1393090  17.2106860  40.1143460
   5.7834760  17.7665260  42.4269850   5.6077240  16.8500800  42.2137650
   4.9290500  18.1252550  42.6667650  13.0072510  15.4954290  39.2096230
  12.3137670  15.4931580  38.5498510  13.7495370  15.0713610  38.7790400
  12.5722440  17.1217000  43.2844720  13.0279390  16.3406380  43.5983340
  12.9114960  17.8323820  43.8285900  17.3199250   6.0515850  53.6169160
  16.7043520   6.5595520  53.0884620  16.9995670   5.1514180  53.5595100
   5.0943760   2.0239220  45.4796030   4.6511910   2.8048760  45.1480550
   5.6528750   2.3469110  46.1866970   9.3813570   4.8907740  51.0831350
   8.9192940   5.0990760  51.8951290   8.9791680   4.0767090  50.7802020
  14.3818080   6.1116690  52.2128010  13.5311670   5.8122440  52.5337080
  14.2219870   6.3558700  51.3011830  11.4767790   7.6118440  54.3126800
  11.8021200   6.7782190  53.9729030  12.2648120   8.1346960  54.4605130
   7.1319660   2.5686550  47.3385630   7.4291990   3.4749380  47.2577650
   7.6805220   2.0805330  46.7245200   4.8857980   7.1472790  43.2077280
   4.6598900   6.9309960  44.1123900   4.1050510   7.5801250  42.8623250
  12.1155740   7.1536160  41.8067930  11.5164630   7.8771960  41.6231550
  12.6635350   7.0912940  41.0244380   7.3257190   8.0458370  53.8737550
   7.2300790   7.1053100  53.7237950   8.1689170   8.2673440  53.4785620
  10.7220610   5.7899700  43.8371210  11.1150180   6.1071900  43.0239900
  11.0837460   4.9111580  43.9515730   2.4567730   4.4572040  52.0271330
   2.0631120   5.3047250  52.2344110   1.7686130   3.8198410  52.2179970
   9.0312780   4.5407010  55.0968070   8.3411100   4.3479210  55.7314160
   9.7745080   4.8241650  55.6292370  11.3075750   8.3805450  47.9321990
  10.5756870   8.8892260  48.2812090  10.9100090   7.5635430  47.6310770
   7.7453140   5.0559650  46.3374480   7.7489200   4.6149600  45.4879020
   8.6404260   5.3776980  46.4446300   3.5955520   4.9386140  45.2968690
   3.2555570   5.4161370  46.0535740   2.8332840   4.4851260  44.9369790
   7.8073290   6.0571730  39.3281240   7.9286110   6.0158210  40.2767060
   7.4221800   6.9195880  39.1727970  11.7701660   3.8339130  47.3444930
  11.7874400   4.2847780  48.1886780  11.5217240   2.9344770  47.5578370
   6.8194790   8.3672870  38.7264540   6.2511690   7.9191120  38.1000450
   7.5283790   8.7265650  38.1929690   8.0461110   9.1161430  48.0839890
   8.4131240   8.6420000  48.8301230   7.8566170   9.9903000  48.4248230
   5.8360480   8.1570070  50.4024100   5.5317550   9.0362050  50.6274460
   6.7906940   8.2169860  50.4381540   4.3642270  12.3631060  40.9990950
   3.5904530  11.8228680  40.8389670   5.0936900  11.8437670  40.6608710
  15.1230250  11.3596420  46.7917340  15.8429370  11.8551710  46.4013450
  14.9212070  10.6814310  46.1471210  10.5840190   2.7534380  40.9346730
   9.7704800   2.2547550  40.8592040  10.3902140   3.5932630  40.5183080
  10.5049050  11.4305480  52.6786340  10.4386360  10.5101150  52.4243930
   9.8754190  11.5280920  53.3930980  13.2988580   7.1254030  39.2308890
  14.1868200   7.4371260  39.0560230  13.2693670   6.2526280  38.8389470
   4.4079670  12.0311440  44.6369760   4.9258340  11.2279700  44.5826650
   3.9563690  11.9690580  45.4786590   9.2949170  13.2977720  39.9097060
   9.6364870  14.0419950  39.4140380   8.4661880  13.6108840  40.2721890
   5.0937330   9.4557050  54.4335010   4.7937470   9.6014230  53.5362830
   5.8648570   8.8962340  54.3408400  10.4365780  14.2526050  52.4290140
  10.4510320  13.3207010  52.2109050   9.7290880  14.3385810  53.0679910
  15.5702850   8.4365870  38.6988750  15.4866570   8.8680090  37.8485190
  16.2897040   8.8964220  39.1315570  16.6476990  10.8933390  51.7758720
  15.9225180  11.4862170  51.5788110  17.1752450  10.8856930  50.9772090
  16.5990100  15.2908130  41.4270880  15.9566260  14.6363750  41.7014600
  16.2120760  15.6963220  40.6511550  12.1776580  12.6193560  45.2742570
  12.5300400  12.0221690  44.6143940  11.2938910  12.2937790  45.4450820
   8.2639860  13.3791250  42.6812980   8.9510990  13.9260460  43.0620570
   7.4772280  13.9231980  42.7162590   7.5667070  10.3837280  42.2938340
   8.0229850  11.1942530  42.5198530   7.2155280  10.0660420  43.1256830
   9.8699680  15.8943620  49.5230640  10.5141900  16.1003000  50.2004060
  10.2329120  15.1332020  49.0701490  11.1431760  13.8975970  48.2408090
  11.7853990  13.1969130  48.3540260  11.6681110  14.6774410  48.0604980
  14.9887480  14.1824590  37.9647230  14.7625060  13.4655030  38.5571870
  14.5983680  13.9337030  37.1268980  12.9169380  14.6970870  51.4444150
  13.2525620  15.2837560  52.1222070  11.9969720  14.5663580  51.6741940
  14.5703730  12.0996530  39.6261390  14.2825430  12.5609220  40.4139270
  15.3655900  11.6394300  39.8945610   8.7457960  14.7462200  54.6132210
   8.4254830  14.0271440  55.1577900   8.0716320  15.4217270  54.6868270
   6.7872130  15.5922650  39.5565360   6.7782230  16.3252340  38.9409870
   5.8670490  15.3454230  39.6492320   2.3878770  10.8137540  40.3012120
   1.7806720  11.5536440  40.3107420   2.8628120  10.9036900  39.4750320
  11.9611560   4.9788360  49.9769010  12.3292380   4.1583570  50.3048580
  11.1009760   5.0390250  50.3924660  15.3273590   3.9345300  40.7856570
  14.6986750   4.0390970  40.0714800  14.8325510   4.1542080  41.5750450
   9.7731730  15.6550890  38.2190550   9.8743710  15.4514880  37.2892530
   8.8733470  15.4009170  38.4238330   7.2957620   6.2131250  42.2014450
   6.5873770   6.6817590  42.6428060   7.5802100   5.5553260  42.8359640
   8.9213550   7.6327950  50.2006980   9.4198800   8.1073770  50.8658830
   9.0636500   6.7091470  50.4077010  11.3273050   2.9381910  43.6410240
  11.2040830   2.9568040  42.6919750  12.2757610   2.9860850  43.7608640
   8.4149840  18.1737210  42.9138220   8.6691340  18.1358600  41.9917590
   7.4662320  18.0470540  42.9066470   5.4992640   4.5216330  39.5765160
   6.3483170   4.9586480  39.5105350   5.1323910   4.8336590  40.4037220
  16.1280410   3.8495910  51.0435370  15.6254010   4.5901310  51.3829180
  16.9437070   4.2379910  50.7272160  14.4202420   9.0929090  44.4896730
  13.4792560   9.1079320  44.6644420  14.7346490   8.3065050  44.9357030
   4.3984060  10.7748690  38.0500690   5.1647330  10.6630050  38.6126120
   4.4758750  10.0786660  37.3977460   3.0930820   8.2073760  38.7333580
   3.1734410   7.2601270  38.8450980   3.9850570   8.5380640  38.8394240
  16.4228000  16.2637940  46.1650990  16.5475420  17.0869110  46.6374800
  17.2893560  16.0528670  45.8175140   3.8945530  18.3569150  45.8368120
   4.6308010  17.8084610  46.1076690   4.2786450  19.2225160  45.6974110
   2.9003810  17.5415220  55.0253700   3.7016540  17.8627270  55.4389100
   2.3855630  17.1810800  55.7473610   7.0047840  17.5299460  37.6593690
   7.7976450  17.8188290  37.2075480   6.4852190  17.0991630  36.9806170
  11.7368440  13.6495090  54.9729110  11.1306600  13.6726690  54.2324860
  11.4322550  12.9178130  55.5096360  13.1668810  17.3775380  53.5838520
  14.1190560  17.2933400  53.5338760  13.0197030  18.0417090  54.2572310
  16.0578010  16.7569590  39.0830430  15.7719520  16.3434730  38.2684610
  15.8597560  17.6857300  38.9630950   7.5225240  12.7502870  37.5236040
   7.4175880  12.1355220  38.2497420   7.3549460  12.2268760  36.7399050
   7.6739560  11.4359670  53.5025270   6.9085230  12.0044670  53.4179940
   7.8555520  11.1435880  52.6093500  10.7627970  11.8122900  38.1278030
  10.2138070  12.2592200  38.7720770  11.3847230  11.3072150  38.6515700
  14.8162910  13.1665000  54.0600290  15.5572380  13.5040760  53.5567750
  14.0535590  13.3357060  53.5070060   2.6524700   8.1718270  54.8639820
   2.6930040   7.8732140  55.7725050   3.5070200   8.5725880  54.7047340
   6.4303090  10.7713820  40.0243330   6.8519510  10.6053690  40.8674720
   6.5553930   9.9614050  39.5298470   4.5930510   6.7510370  52.8314310
   4.0626970   6.2601320  52.2037650   5.2618580   7.1794570  52.2972240
   8.9430730   9.7951430  37.2720430   9.4636390   9.0800450  36.9061580
   9.5899130  10.4337300  37.5720940  13.4908570  11.2179830  52.5955500
  13.9049590  11.3724910  53.4445920  12.5559570  11.3435050  52.7581280
  13.9630740   8.5575990  54.5994650  14.5451510   7.8028310  54.5115130
  14.1392510   9.0883430  53.8226130   5.0802810   3.7172740  52.9111600
   4.9859680   3.0993490  52.1862470   4.5000200   4.4439030  52.6841510
   7.8464250   2.2745980  49.9438990   7.3981550   2.2970240  49.0984540
   7.2129450   1.8765000  50.5409290   8.2523800  11.1700310  50.5651430
   8.6711910  12.0133040  50.3927670   7.3332430  11.3072350  50.3358210
  10.5887700   8.9016490  51.9489270  10.7083910   8.3057630  52.6884110
  11.4481700   8.9386180  51.5290570  12.9275600   9.4553680  50.5251780
  12.4010820   9.9796300  49.9216920  13.2706940  10.0881070  51.1561510
   5.3261990   6.8447050  36.9701490   5.1251050   5.9814410  37.3314830
   5.1554040   6.7580410  36.0323090   6.1031220  17.4753320  51.6809160
   5.5652310  18.1999380  51.3617860   6.3565180  16.9983660  50.8906500
   7.3556470   5.4437840  53.2065090   7.9456160   5.1353690  53.8942910
   6.5376710   4.9717590  53.3624990  12.1749900   5.0603650  53.4398110
  11.4865420   4.3985190  53.3748100  12.8955920   4.6141920  53.8846570
   4.1244790   3.9447670  36.9579370   4.4270690   3.9515100  36.0498520
   4.8639380   3.5945530  37.4547030   8.9593430  18.7104530  51.9395810
   8.8852130  19.6139670  52.2468180   8.0572270  18.3916430  51.9117880
   7.3429720   2.8882290  37.9435570   6.9951720   2.2106280  37.3638020
   7.5442490   2.4271800  38.7578960   9.5078760  17.8763040  39.5622170
  10.4029550  18.2148010  39.5840930   9.5396390  17.1542450  38.9346450
   3.1474920  13.2490090  37.7909170   3.5849790  13.7919760  38.4466750
   3.6322650  12.4237040  37.8005510   4.9582640  14.3688130  42.9031400
   4.6578180  14.2453100  43.8035310   4.8520130  13.5096720  42.4947130
  16.4873110  16.4066710  52.2688370  15.8875100  16.4659270  51.5252290
  16.6167010  15.4671690  52.3985220  17.7274560  14.1484530  37.6058080
  16.8967520  14.2161180  38.0765310  17.9046390  15.0388650  37.3024940
  17.1831020  10.8932010  40.1092280  17.9449930  11.4628660  40.2151970
  17.1985390  10.3259210  40.8800590  18.1890990  11.7482110  44.9534210
  18.5599820  10.9649430  44.5470180  18.8292920  12.4371210  44.7751510
  15.1724750  13.1318690  50.3664530  14.3584590  13.5615850  50.6290320
  15.5798950  13.7437100  49.7533580  17.2350190  11.1866380  37.2664800
  17.5099030  12.0945260  37.1384020  17.0460930  11.1228910  38.2026790
  13.6325800   4.2111230  38.5618430  14.0510680   4.0242210  37.7215090
  13.3261860   3.3590280  38.8721360  17.1315530   9.1235370  42.2594230
  16.7559130   8.3563300  41.8275520  16.4018650   9.5058070  42.7469160
  16.5215150   8.2706890  51.8933750  16.2901240   8.0419640  50.9931700
  16.7819700   9.1906440  51.8478640  14.9603220   3.4963320  54.6713450
  15.8373400   3.5046720  55.0547450  14.9724060   2.7594160  54.0605800
  16.4066490   7.3492860  45.5601470  16.9303970   6.8555510  44.9291640
  16.9925910   7.4843220  46.3049040  16.5856210   7.4332730  49.0821020
  15.6358920   7.3996270  49.1966010  16.7669220   8.3432840  48.8470790
  15.8966460   6.6066210  41.4993880  16.3925580   6.3737080  42.2842760
  15.6982530   5.7678050  41.0831520  17.3253620   5.2427160  44.0331560
  17.2152900   5.0883200  44.9713830  18.0861210   4.7148100  43.7906970
  18.2143890   3.0735080  37.2737700  19.1393200   2.9416260  37.0655990
  18.1919680   3.1527900  38.2274150  18.2882380   3.8445740  39.8994410
  17.4933880   3.7790860  40.4287320  18.4925660   4.7796380  39.8879760
  15.2300800  17.8837290  43.8932800  15.8259870  17.5621860  43.2167220
  15.4878950  17.4109110  44.6846070   3.1363370  14.3155200  54.0423430
   3.0933000  13.9448110  54.9237890   3.2674380  15.2532770  54.1825250
   6.8369400  15.8714790  49.6433150   6.5960760  16.1389350  48.7563670
   7.7772040  16.0420520  49.6984010   9.0423820   2.3347480  53.3989660
   8.9812710   2.9269310  54.1485070   9.9824200   2.2273440  53.2539920
  18.0973560  17.8909170  50.4443790  17.6031840  18.2878040  49.7270920
  17.4886850  17.2658380  50.8381070   2.9751400  17.2617450  51.1621210
   2.3811720  17.1302150  51.9011250   2.9675240  16.4255590  50.6963310
  13.3278400   2.7620550  50.7492960  12.9991760   1.9472310  50.3694690
  14.2760700   2.7190360  50.6258650  15.7813010  18.5332590  47.7230530
  15.3215980  19.2848400  47.3488550  15.1525470  17.8139060  47.6645330
   2.6063630  14.6275830  50.1129250   1.8797690  14.0081120  50.0455200
   2.6672780  15.0216440  49.2427330   6.2108730  16.8420830  46.8978660
   6.7273750  16.2308190  46.3726920   6.8606110  17.3449610  47.3889670
   8.9504230  17.7329320  47.7247640   9.2382040  17.4783620  46.8480650
   9.4627450  17.1806680  48.3153210  14.7202310   2.1742620  46.3493240
  15.1610400   2.1187720  45.5014840  14.4509900   3.0900630  46.4203420
   8.0535460   3.8906270  43.8160180   7.2409970   3.5163160  43.4756060
   8.5577100   3.1351350  44.1181370   2.4956330  16.6383450  40.7676150
   1.9703950  17.0191480  40.0638110   2.4200910  17.2634220  41.4885860
   9.0176590  18.6545420  55.0915840   9.9443900  18.4189690  55.1351800
   9.0027020  19.4817420  54.6101870  17.2521650  18.1970990  42.0890090
  17.4273840  17.5108730  41.4451010  16.5543220  18.7218040  41.6966760
   5.0949300  18.5865830  39.6425400   5.8268120  18.3025110  39.0949290
   5.3542970  18.3479110  40.5324780   4.2564090  14.7030560  39.6471730
   3.6272970  15.1715660  40.1957560   4.3711920  13.8579780  40.0817920
  15.5854150  17.8815280  54.9156880  16.3779470  17.3864510  54.7082840
  15.8787300  18.5605420  55.5232490  11.7113810   8.7536220  25.7972930
  11.6307860   7.8390830  25.5264640  11.2978230   9.2503290  25.0912640
   9.8431850  10.5315240  27.6782200   9.0673950  10.0515680  27.9680770
  10.4944780   9.8520890  27.5038360   3.8597680  10.8435050  28.5557960
   3.0282560  10.5883760  28.9554470   4.4678660  10.9145820  29.2915880
  13.8639280  14.9375430  26.4581330  13.4020810  14.1662670  26.7868500
  14.6764830  14.9641500  26.9633780   3.8398940  14.8775140  28.7515980
   4.1426980  13.9872880  28.5726200   4.5842530  15.4345360  28.5238230
  10.0902590  17.2233440  26.0785320   9.4714030  17.6790940  25.5079760
  10.9454370  17.3784900  25.6775020   9.2840840  13.2072430  27.6852360
   9.2149120  12.2662370  27.5241490  10.0460700  13.2973840  28.2574930
  10.3146010   6.0142810  27.9121290  10.6910830   5.1414690  27.7994960
  10.2165520   6.3501510  27.0211730   4.4451020   4.3868440  23.3738730
   4.5517770   5.2872170  23.6807490   3.5343380   4.3386410  23.0833380
  14.0970130   3.5093250  24.8449630  14.9179750   3.0189820  24.8875110
  14.1304210   4.0990910  25.5981470   2.0934180   6.3087450  28.6191320
   2.7744290   6.5725820  29.2378720   1.7782230   5.4688320  28.9529330
   6.2858750   7.3554810  27.7063910   6.7936970   7.8535780  28.3468930
   6.8171990   6.5790010  27.5303270  18.3869680   5.5260000  31.4093260
  17.6821850   5.9141710  30.8908370  18.6527600   6.2210290  32.0114190
  10.9565940  12.1072680  23.4717230  10.3383210  12.5722130  22.9079950
  11.4689190  12.8000160  23.8886740   5.8197700  11.6348550  30.1500830
   5.4867080  12.2617470  30.7921900   5.9964380  12.1610430  29.3702500
  14.3331610   5.4493630  27.6177170  13.6287180   5.7378520  28.1980280
  14.6943770   6.2593740  27.2576730   4.2510180   3.7063330  29.9797780
   4.5926990   4.5505380  29.6851650   3.3125990   3.8547070  30.0963120
   5.0316800  13.6029350  31.9650010   5.6490800  14.2780430  31.6834460
   4.1709920  14.0117330  31.8737510  15.9494390  15.0668760  29.8804650
  15.2657910  15.7367870  29.8721320  16.4888680  15.2649410  29.1149510
  17.4018530   4.8948420  28.0086380  16.4543440   4.9287400  28.1401810
  17.7268520   5.7087370  28.3935740  13.4853130  16.9112890  28.5949830
  13.4980290  16.5075180  27.7272090  12.9328350  17.6860180  28.4911260
  14.7798550  13.6329110  23.6840000  14.6694880  12.6903440  23.8089420
  14.7766800  13.9944750  24.5702760  12.8838570  11.8142730  29.9232440
  13.3007360  11.6002840  29.0885900  13.6078390  12.0715520  30.4941060
  10.3218830   9.2594430  23.0402490   9.3948110   9.1931810  23.2690960
  10.4743650  10.1974560  22.9257730  10.3087910   5.5311430  20.0369650
   9.3691580   5.6925390  20.1222110  10.6271170   6.2497110  19.4905640
  16.8300670  10.2129950  30.0148680  16.0019300  10.2823040  29.5398810
  17.4251150  10.7984260  29.5464510  14.3516120  10.8214730  23.5437740
  13.7328540  10.4834280  22.8964040  14.3340570  10.1774490  24.2516930
  13.7942680   6.9999270  30.9603550  13.3813860   7.8252980  31.2143540
  13.0618630   6.4144310  30.7679910   5.9275470   9.7859170  25.8222220
   5.5232470   9.0736420  25.3268120   6.0138590   9.4412410  26.7110260
   6.3957170  13.4726730  27.9861430   6.0985460  12.8672200  27.3069210
   7.3456990  13.5104040  27.8750790   4.6404090   6.5602380  29.6021260
   5.1918680   6.6697720  28.8274510   5.1547600   6.9339980  30.3176490
  14.4842780  17.0458600  31.6484530  14.0073340  17.8530790  31.4557140
  13.8004570  16.3936930  31.8010740   5.4875600  13.2108420  34.6369230
   4.5904130  13.4348390  34.8842630   5.5128470  13.3343360  33.6880630
  12.5280820  10.0601540  20.5510490  12.9674100   9.2223970  20.4048310
  13.2409240  10.6930940  20.6374630   4.3146820  10.0821740  33.2126600
   4.1754590  10.9544540  33.5814000   3.4328180   9.7394550  33.0674540
  10.6376200  14.9997610  24.5191730  11.0772110  15.7421940  24.1047120
  10.5763090  15.2424180  25.4430690   6.1127170  16.0243440  35.4211750
   6.0842600  16.4286390  34.5540180   5.9492140  15.0953800  35.2583350
   2.6280100   8.6804150  23.3228870   2.5077700   9.4066240  22.7110140
   2.3180990   7.9107060  22.8456780  18.0641990  16.8070540  36.7175920
  18.5401710  17.2853430  37.3965000  18.6849150  16.7388030  35.9921420
  17.4675240  13.9983390  33.8775930  17.5938300  13.7595270  32.9593110
  17.5096620  13.1667930  34.3498010  11.3291980  17.7011390  32.4470740
  11.8436650  17.6119400  33.2493170  10.4861060  18.0471090  32.7398650
  13.3046380  17.9866730  21.8754740  13.1447520  17.6969670  22.7736570
  13.1393090  17.2106860  21.3399970   5.7834760  17.7665260  23.6526360
   5.6077240  16.8500800  23.4394160   4.9290500  18.1252550  23.8924160
  13.0072510  15.4954290  20.4352740  12.3137670  15.4931580  19.7755020
  13.7495370  15.0713610  20.0046910  12.5722440  17.1217000  24.5101230
  13.0279390  16.3406380  24.8239850  12.9114960  17.8323820  25.0542410
  17.3199250   6.0515850  34.8425670  16.7043520   6.5595520  34.3141130
  16.9995670   5.1514180  34.7851610   5.0943760   2.0239220  26.7052540
   4.6511910   2.8048760  26.3737060   5.6528750   2.3469110  27.4123480
   9.3813570   4.8907740  32.3087860   8.9192940   5.0990760  33.1207800
   8.9791680   4.0767090  32.0058530  14.3818080   6.1116690  33.4384520
  13.5311670   5.8122440  33.7593590  14.2219870   6.3558700  32.5268340
  11.4767790   7.6118440  35.5383310  11.8021200   6.7782190  35.1985540
  12.2648120   8.1346960  35.6861640   7.1319660   2.5686550  28.5642140
   7.4291990   3.4749380  28.4834160   7.6805220   2.0805330  27.9501710
   4.8857980   7.1472790  24.4333790   4.6598900   6.9309960  25.3380410
   4.1050510   7.5801250  24.0879760  12.1155740   7.1536160  23.0324440
  11.5164630   7.8771960  22.8488060  12.6635350   7.0912940  22.2500890
   7.3257190   8.0458370  35.0994060   7.2300790   7.1053100  34.9494460
   8.1689170   8.2673440  34.7042130  10.7220610   5.7899700  25.0627720
  11.1150180   6.1071900  24.2496410  11.0837460   4.9111580  25.1772240
   2.4567730   4.4572040  33.2527840   2.0631120   5.3047250  33.4600620
   1.7686130   3.8198410  33.4436480   9.0312780   4.5407010  36.3224580
   8.3411100   4.3479210  36.9570670   9.7745080   4.8241650  36.8548880
  11.3075750   8.3805450  29.1578500  10.5756870   8.8892260  29.5068600
  10.9100090   7.5635430  28.8567280   7.7453140   5.0559650  27.5630990
   7.7489200   4.6149600  26.7135530   8.6404260   5.3776980  27.6702810
   3.5955520   4.9386140  26.5225200   3.2555570   5.4161370  27.2792250
   2.8332840   4.4851260  26.1626300   7.8073290   6.0571730  20.5537750
   7.9286110   6.0158210  21.5023570   7.4221800   6.9195880  20.3984480
  11.7701660   3.8339130  28.5701440  11.7874400   4.2847780  29.4143290
  11.5217240   2.9344770  28.7834880   6.8194790   8.3672870  19.9521050
   6.2511690   7.9191120  19.3256960   7.5283790   8.7265650  19.4186200
   8.0461110   9.1161430  29.3096400   8.4131240   8.6420000  30.0557740
   7.8566170   9.9903000  29.6504740   5.8360480   8.1570070  31.6280610
   5.5317550   9.0362050  31.8530970   6.7906940   8.2169860  31.6638050
   4.3642270  12.3631060  22.2247460   3.5904530  11.8228680  22.0646180
   5.0936900  11.8437670  21.8865220  15.1230250  11.3596420  28.0173850
  15.8429370  11.8551710  27.6269960  14.9212070  10.6814310  27.3727720
  10.5840190   2.7534380  22.1603240   9.7704800   2.2547550  22.0848550
  10.3902140   3.5932630  21.7439590  10.5049050  11.4305480  33.9042850
  10.4386360  10.5101150  33.6500440   9.8754190  11.5280920  34.6187490
  13.2988580   7.1254030  20.4565400  14.1868200   7.4371260  20.2816740
  13.2693670   6.2526280  20.0645980   4.4079670  12.0311440  25.8626270
   4.9258340  11.2279700  25.8083160   3.9563690  11.9690580  26.7043100
   9.2949170  13.2977720  21.1353570   9.6364870  14.0419950  20.6396890
   8.4661880  13.6108840  21.4978400   5.0937330   9.4557050  35.6591520
   4.7937470   9.6014230  34.7619340   5.8648570   8.8962340  35.5664910
  10.4365780  14.2526050  33.6546650  10.4510320  13.3207010  33.4365560
   9.7290880  14.3385810  34.2936420  15.5702850   8.4365870  19.9245260
  15.4866570   8.8680090  19.0741700  16.2897040   8.8964220  20.3572080
  16.6476990  10.8933390  33.0015230  15.9225180  11.4862170  32.8044620
  17.1752450  10.8856930  32.2028600  16.5990100  15.2908130  22.6527390
  15.9566260  14.6363750  22.9271110  16.2120760  15.6963220  21.8768060
  12.1776580  12.6193560  26.4999080  12.5300400  12.0221690  25.8400450
  11.2938910  12.2937790  26.6707330   8.2639860  13.3791250  23.9069490
   8.9510990  13.9260460  24.2877080   7.4772280  13.9231980  23.9419100
   7.5667070  10.3837280  23.5194850   8.0229850  11.1942530  23.7455040
   7.2155280  10.0660420  24.3513340   9.8699680  15.8943620  30.7487150
  10.5141900  16.1003000  31.4260570  10.2329120  15.1332020  30.2958000
  11.1431760  13.8975970  29.4664600  11.7853990  13.1969130  29.5796770
  11.6681110  14.6774410  29.2861490  14.9887480  14.1824590  19.1903740
  14.7625060  13.4655030  19.7828380  14.5983680  13.9337030  18.3525490
  12.9169380  14.6970870  32.6700660  13.2525620  15.2837560  33.3478580
  11.9969720  14.5663580  32.8998450  14.5703730  12.0996530  20.8517900
  14.2825430  12.5609220  21.6395780  15.3655900  11.6394300  21.1202120
   8.7457960  14.7462200  35.8388720   8.4254830  14.0271440  36.3834410
   8.0716320  15.4217270  35.9124780   6.7872130  15.5922650  20.7821870
   6.7782230  16.3252340  20.1666380   5.8670490  15.3454230  20.8748830
   2.3878770  10.8137540  21.5268630   1.7806720  11.5536440  21.5363930
   2.8628120  10.9036900  20.7006830  11.9611560   4.9788360  31.2025520
  12.3292380   4.1583570  31.5305090  11.1009760   5.0390250  31.6181170
  15.3273590   3.9345300  22.0113080  14.6986750   4.0390970  21.2971310
  14.8325510   4.1542080  22.8006960   9.7731730  15.6550890  19.4447060
   9.8743710  15.4514880  18.5149040   8.8733470  15.4009170  19.6494840
   7.2957620   6.2131250  23.4270960   6.5873770   6.6817590  23.8684570
   7.5802100   5.5553260  24.0616150   8.9213550   7.6327950  31.4263490
   9.4198800   8.1073770  32.0915340   9.0636500   6.7091470  31.6333520
  11.3273050   2.9381910  24.8666750  11.2040830   2.9568040  23.9176260
  12.2757610   2.9860850  24.9865150   8.4149840  18.1737210  24.1394730
   8.6691340  18.1358600  23.2174100   7.4662320  18.0470540  24.1322980
   5.4992640   4.5216330  20.8021670   6.3483170   4.9586480  20.7361860
   5.1323910   4.8336590  21.6293730  16.1280410   3.8495910  32.2691880
  15.6254010   4.5901310  32.6085690  16.9437070   4.2379910  31.9528670
  14.4202420   9.0929090  25.7153240  13.4792560   9.1079320  25.8900930
  14.7346490   8.3065050  26.1613540   4.3984060  10.7748690  19.2757200
   5.1647330  10.6630050  19.8382630   4.4758750  10.0786660  18.6233970
   3.0930820   8.2073760  19.9590090   3.1734410   7.2601270  20.0707490
   3.9850570   8.5380640  20.0650750  16.4228000  16.2637940  27.3907500
  16.5475420  17.0869110  27.8631310  17.2893560  16.0528670  27.0431650
   3.8945530  18.3569150  27.0624630   4.6308010  17.8084610  27.3333200
   4.2786450  19.2225160  26.9230620   2.9003810  17.5415220  36.2510210
   3.7016540  17.8627270  36.6645610   2.3855630  17.1810800  36.9730120
   7.0047840  17.5299460  18.8850200   7.7976450  17.8188290  18.4331990
   6.4852190  17.0991630  18.2062680  11.7368440  13.6495090  36.1985620
  11.1306600  13.6726690  35.4581370  11.4322550  12.9178130  36.7352870
  13.1668810  17.3775380  34.8095030  14.1190560  17.2933400  34.7595270
  13.0197030  18.0417090  35.4828820  16.0578010  16.7569590  20.3086940
  15.7719520  16.3434730  19.4941120  15.8597560  17.6857300  20.1887460
   7.5225240  12.7502870  18.7492550   7.4175880  12.1355220  19.4753930
   7.3549460  12.2268760  17.9655560   7.6739560  11.4359670  34.7281780
   6.9085230  12.0044670  34.6436450   7.8555520  11.1435880  33.8350010
  10.7627970  11.8122900  19.3534540  10.2138070  12.2592200  19.9977280
  11.3847230  11.3072150  19.8772210  14.8162910  13.1665000  35.2856800
  15.5572380  13.5040760  34.7824260  14.0535590  13.3357060  34.7326570
   2.6524700   8.1718270  36.0896330   2.6930040   7.8732140  36.9981560
   3.5070200   8.5725880  35.9303850   6.4303090  10.7713820  21.2499840
   6.8519510  10.6053690  22.0931230   6.5553930   9.9614050  20.7554980
   4.5930510   6.7510370  34.0570820   4.0626970   6.2601320  33.4294160
   5.2618580   7.1794570  33.5228750   8.9430730   9.7951430  18.4976940
   9.4636390   9.0800450  18.1318090   9.5899130  10.4337300  18.7977450
  13.4908570  11.2179830  33.8212010  13.9049590  11.3724910  34.6702430
  12.5559570  11.3435050  33.9837790  13.9630740   8.5575990  35.8251160
  14.5451510   7.8028310  35.7371640  14.1392510   9.0883430  35.0482640
   5.0802810   3.7172740  34.1368110   4.9859680   3.0993490  33.4118980
   4.5000200   4.4439030  33.9098020   7.8464250   2.2745980  31.1695500
   7.3981550   2.2970240  30.3241050   7.2129450   1.8765000  31.7665800
   8.2523800  11.1700310  31.7907940   8.6711910  12.0133040  31.6184180
   7.3332430  11.3072350  31.5614720  10.5887700   8.9016490  33.1745780
  10.7083910   8.3057630  33.9140620  11.4481700   8.9386180  32.7547080
  12.9275600   9.4553680  31.7508290  12.4010820   9.9796300  31.1473430
  13.2706940  10.0881070  32.3818020   5.3261990   6.8447050  18.1958000
   5.1251050   5.9814410  18.5571340   5.1554040   6.7580410  17.2579600
   6.1031220  17.4753320  32.9065670   5.5652310  18.1999380  32.5874370
   6.3565180  16.9983660  32.1163010   7.3556470   5.4437840  34.4321600
   7.9456160   5.1353690  35.1199420   6.5376710   4.9717590  34.5881500
  12.1749900   5.0603650  34.6654620  11.4865420   4.3985190  34.6004610
  12.8955920   4.6141920  35.1103080   4.1244790   3.9447670  18.1835880
   4.4270690   3.9515100  17.2755030   4.8639380   3.5945530  18.6803540
   8.9593430  18.7104530  33.1652320   8.8852130  19.6139670  33.4724690
   8.0572270  18.3916430  33.1374390   7.3429720   2.8882290  19.1692080
   6.9951720   2.2106280  18.5894530   7.5442490   2.4271800  19.9835470
   9.5078760  17.8763040  20.7878680  10.4029550  18.2148010  20.8097440
   9.5396390  17.1542450  20.1602960   3.1474920  13.2490090  19.0165680
   3.5849790  13.7919760  19.6723260   3.6322650  12.4237040  19.0262020
   4.9582640  14.3688130  24.1287910   4.6578180  14.2453100  25.0291820
   4.8520130  13.5096720  23.7203640  16.4873110  16.4066710  33.4944880
  15.8875100  16.4659270  32.7508800  16.6167010  15.4671690  33.6241730
  17.7274560  14.1484530  18.8314590  16.8967520  14.2161180  19.3021820
  17.9046390  15.0388650  18.5281450  17.1831020  10.8932010  21.3348790
  17.9449930  11.4628660  21.4408480  17.1985390  10.3259210  22.1057100
  18.1890990  11.7482110  26.1790720  18.5599820  10.9649430  25.7726690
  18.8292920  12.4371210  26.0008020  15.1724750  13.1318690  31.5921040
  14.3584590  13.5615850  31.8546830  15.5798950  13.7437100  30.9790090
  17.2350190  11.1866380  18.4921310  17.5099030  12.0945260  18.3640530
  17.0460930  11.1228910  19.4283300  13.6325800   4.2111230  19.7874940
  14.0510680   4.0242210  18.9471600  13.3261860   3.3590280  20.0977870
  17.1315530   9.1235370  23.4850740  16.7559130   8.3563300  23.0532030
  16.4018650   9.5058070  23.9725670  16.5215150   8.2706890  33.1190260
  16.2901240   8.0419640  32.2188210  16.7819700   9.1906440  33.0735150
  14.9603220   3.4963320  35.8969960  15.8373400   3.5046720  36.2803960
  14.9724060   2.7594160  35.2862310  16.4066490   7.3492860  26.7857980
  16.9303970   6.8555510  26.1548150  16.9925910   7.4843220  27.5305550
  16.5856210   7.4332730  30.3077530  15.6358920   7.3996270  30.4222520
  16.7669220   8.3432840  30.0727300  15.8966460   6.6066210  22.7250390
  16.3925580   6.3737080  23.5099270  15.6982530   5.7678050  22.3088030
  17.3253620   5.2427160  25.2588070  17.2152900   5.0883200  26.1970340
  18.0861210   4.7148100  25.0163480  18.2143890   3.0735080  18.4994210
  19.1393200   2.9416260  18.2912500  18.1919680   3.1527900  19.4530660
  18.2882380   3.8445740  21.1250920  17.4933880   3.7790860  21.6543830
  18.4925660   4.7796380  21.1136270  15.2300800  17.8837290  25.1189310
  15.8259870  17.5621860  24.4423730  15.4878950  17.4109110  25.9102580
   3.1363370  14.3155200  35.2679940   3.0933000  13.9448110  36.1494400
   3.2674380  15.2532770  35.4081760   6.8369400  15.8714790  30.8689660
   6.5960760  16.1389350  29.9820180   7.7772040  16.0420520  30.9240520
   9.0423820   2.3347480  34.6246170   8.9812710   2.9269310  35.3741580
   9.9824200   2.2273440  34.4796430  18.0973560  17.8909170  31.6700300
  17.6031840  18.2878040  30.9527430  17.4886850  17.2658380  32.0637580
   2.9751400  17.2617450  32.3877720   2.3811720  17.1302150  33.1267760
   2.9675240  16.4255590  31.9219820  13.3278400   2.7620550  31.9749470
  12.9991760   1.9472310  31.5951200  14.2760700   2.7190360  31.8515160
  15.7813010  18.5332590  28.9487040  15.3215980  19.2848400  28.5745060
  15.1525470  17.8139060  28.8901840   2.6063630  14.6275830  31.3385760
   1.8797690  14.0081120  31.2711710   2.6672780  15.0216440  30.4683840
   6.2108730  16.8420830  28.1235170   6.7273750  16.2308190  27.5983430
   6.8606110  17.3449610  28.6146180   8.9504230  17.7329320  28.9504150
   9.2382040  17.4783620  28.0737160   9.4627450  17.1806680  29.5409720
  14.7202310   2.1742620  27.5749750  15.1610400   2.1187720  26.7271350
  14.4509900   3.0900630  27.6459930   8.0535460   3.8906270  25.0416690
   7.2409970   3.5163160  24.7012570   8.5577100   3.1351350  25.3437880
   2.4956330  16.6383450  21.9932660   1.9703950  17.0191480  21.2894620
   2.4200910  17.2634220  22.7142370   9.0176590  18.6545420  36.3172350
   9.9443900  18.4189690  36.3608310   9.0027020  19.4817420  35.8358380
  17.2521650  18.1970990  23.3146600  17.4273840  17.5108730  22.6707520
  16.5543220  18.7218040  22.9223270   5.0949300  18.5865830  20.8681910
   5.8268120  18.3025110  20.3205800   5.3542970  18.3479110  21.7581290
   4.2564090  14.7030560  20.8728240   3.6272970  15.1715660  21.4214070
   4.3711920  13.8579780  21.3074430  15.5854150  17.8815280  36.1413390
  16.3779470  17.3864510  35.9339350  15.8787300  18.5605420  36.7489000
  11.7113810   8.7536220   7.0229440  11.6307860   7.8390830   6.7521150
  11.2978230   9.2503290   6.3169150   9.8431850  10.5315240   8.9038710
   9.0673950  10.0515680   9.1937280  10.4944780   9.8520890   8.7294870
   3.8597680  10.8435050   9.7814470   3.0282560  10.5883760  10.1810980
   4.4678660  10.9145820  10.5172390  13.8639280  14.9375430   7.6837840
  13.4020810  14.1662670   8.0125010  14.6764830  14.9641500   8.1890290
   3.8398940  14.8775140   9.9772490   4.1426980  13.9872880   9.7982710
   4.5842530  15.4345360   9.7494740  10.0902590  17.2233440   7.3041830
   9.4714030  17.6790940   6.7336270  10.9454370  17.3784900   6.9031530
   9.2840840  13.2072430   8.9108870   9.2149120  12.2662370   8.7498000
  10.0460700  13.2973840   9.4831440  10.3146010   6.0142810   9.1377800
  10.6910830   5.1414690   9.0251470  10.2165520   6.3501510   8.2468240
   4.4451020   4.3868440   4.5995240   4.5517770   5.2872170   4.9064000
   3.5343380   4.3386410   4.3089890  14.0970130   3.5093250   6.0706140
  14.9179750   3.0189820   6.1131620  14.1304210   4.0990910   6.8237980
   2.0934180   6.3087450   9.8447830   2.7744290   6.5725820  10.4635230
   1.7782230   5.4688320  10.1785840   6.2858750   7.3554810   8.9320420
   6.7936970   7.8535780   9.5725440   6.8171990   6.5790010   8.7559780
  18.3869680   5.5260000  12.6349770  17.6821850   5.9141710  12.1164880
  18.6527600   6.2210290  13.2370700  10.9565940  12.1072680   4.6973740
  10.3383210  12.5722130   4.1336460  11.4689190  12.8000160   5.1143250
   5.8197700  11.6348550  11.3757340   5.4867080  12.2617470  12.0178410
   5.9964380  12.1610430  10.5959010  14.3331610   5.4493630   8.8433680
  13.6287180   5.7378520   9.4236790  14.6943770   6.2593740   8.4833240
   4.2510180   3.7063330  11.2054290   4.5926990   4.5505380  10.9108160
   3.3125990   3.8547070  11.3219630   5.0316800  13.6029350  13.1906520
   5.6490800  14.2780430  12.9090970   4.1709920  14.0117330  13.0994020
  15.9494390  15.0668760  11.1061160  15.2657910  15.7367870  11.0977830
  16.4888680  15.2649410  10.3406020  17.4018530   4.8948420   9.2342890
  16.4543440   4.9287400   9.3658320  17.7268520   5.7087370   9.6192250
  13.4853130  16.9112890   9.8206340  13.4980290  16.5075180   8.9528600
  12.9328350  17.6860180   9.7167770  14.7798550  13.6329110   4.9096510
  14.6694880  12.6903440   5.0345930  14.7766800  13.9944750   5.7959270
  12.8838570  11.8142730  11.1488950  13.3007360  11.6002840  10.3142410
  13.6078390  12.0715520  11.7197570  10.3218830   9.2594430   4.2659000
   9.3948110   9.1931810   4.4947470  10.4743650  10.1974560   4.1514240
  16.8300670  10.2129950  11.2405190  16.0019300  10.2823040  10.7655320
  17.4251150  10.7984260  10.7721020  14.3516120  10.8214730   4.7694250
  13.7328540  10.4834280   4.1220550  14.3340570  10.1774490   5.4773440
  13.7942680   6.9999270  12.1860060  13.3813860   7.8252980  12.4400050
  13.0618630   6.4144310  11.9936420   5.9275470   9.7859170   7.0478730
   5.5232470   9.0736420   6.5524630   6.0138590   9.4412410   7.9366770
   6.3957170  13.4726730   9.2117940   6.0985460  12.8672200   8.5325720
   7.3456990  13.5104040   9.1007300   4.6404090   6.5602380  10.8277770
   5.1918680   6.6697720  10.0531020   5.1547600   6.9339980  11.5433000
  14.4842780  17.0458600  12.8741040  14.0073340  17.8530790  12.6813650
  13.8004570  16.3936930  13.0267250   5.4875600  13.2108420  15.8625740
   4.5904130  13.4348390  16.1099140   5.5128470  13.3343360  14.9137140
  12.5280820  10.0601540   1.7767000  12.9674100   9.2223970   1.6304820
  13.2409240  10.6930940   1.8631140   4.3146820  10.0821740  14.4383110
   4.1754590  10.9544540  14.8070510   3.4328180   9.7394550  14.2931050
  10.6376200  14.9997610   5.7448240  11.0772110  15.7421940   5.3303630
  10.5763090  15.2424180   6.6687200   6.1127170  16.0243440  16.6468260
   6.0842600  16.4286390  15.7796690   5.9492140  15.0953800  16.4839860
   2.6280100   8.6804150   4.5485380   2.5077700   9.4066240   3.9366650
   2.3180990   7.9107060   4.0713290  18.0641990  16.8070540  17.9432430
  18.5401710  17.2853430  18.6221510  18.6849150  16.7388030  17.2177930
  17.4675240  13.9983390  15.1032440  17.5938300  13.7595270  14.1849620
  17.5096620  13.1667930  15.5754520  11.3291980  17.7011390  13.6727250
  11.8436650  17.6119400  14.4749680  10.4861060  18.0471090  13.9655160
  13.3046380  17.9866730   3.1011250  13.1447520  17.6969670   3.9993080
  13.1393090  17.2106860   2.5656480   5.7834760  17.7665260   4.8782870
   5.6077240  16.8500800   4.6650670   4.9290500  18.1252550   5.1180670
  12.5722440  17.1217000   5.7357740  13.0279390  16.3406380   6.0496360
  12.9114960  17.8323820   6.2798920  17.3199250   6.0515850  16.0682180
  16.7043520   6.5595520  15.5397640  16.9995670   5.1514180  16.0108120
   5.0943760   2.0239220   7.9309050   4.6511910   2.8048760   7.5993570
   5.6528750   2.3469110   8.6379990   9.3813570   4.8907740  13.5344370
   8.9192940   5.0990760  14.3464310   8.9791680   4.0767090  13.2315040
  14.3818080   6.1116690  14.6641030  13.5311670   5.8122440  14.9850100
  14.2219870   6.3558700  13.7524850  11.4767790   7.6118440  16.7639820
  11.8021200   6.7782190  16.4242050  12.2648120   8.1346960  16.9118150
   7.1319660   2.5686550   9.7898650   7.4291990   3.4749380   9.7090670
   7.6805220   2.0805330   9.1758220   4.8857980   7.1472790   5.6590300
   4.6598900   6.9309960   6.5636920   4.1050510   7.5801250   5.3136270
  12.1155740   7.1536160   4.2580950  11.5164630   7.8771960   4.0744570
  12.6635350   7.0912940   3.4757400   7.3257190   8.0458370  16.3250570
   7.2300790   7.1053100  16.1750970   8.1689170   8.2673440  15.9298640
  10.7220610   5.7899700   6.2884230  11.1150180   6.1071900   5.4752920
  11.0837460   4.9111580   6.4028750   2.4567730   4.4572040  14.4784350
   2.0631120   5.3047250  14.6857130   1.7686130   3.8198410  14.6692990
   9.0312780   4.5407010  17.5481090   8.3411100   4.3479210  18.1827180
   9.7745080   4.8241650  18.0805390  11.3075750   8.3805450  10.3835010
  10.5756870   8.8892260  10.7325110  10.9100090   7.5635430  10.0823790
   7.7453140   5.0559650   8.7887500   7.7489200   4.6149600   7.9392040
   8.6404260   5.3776980   8.8959320   3.5955520   4.9386140   7.7481710
   3.2555570   5.4161370   8.5048760   2.8332840   4.4851260   7.3882810
   7.8073290   6.0571730   1.7794260   7.9286110   6.0158210   2.7280080
   7.4221800   6.9195880   1.6240990  11.7701660   3.8339130   9.7957950
  11.7874400   4.2847780  10.6399800  11.5217240   2.9344770  10.0091390
   8.0461110   9.1161430  10.5352910   8.4131240   8.6420000  11.2814250
   7.8566170   9.9903000  10.8761250   5.8360480   8.1570070  12.8537120
   5.5317550   9.0362050  13.0787480   6.7906940   8.2169860  12.8894560
   4.3642270  12.3631060   3.4503970   3.5904530  11.8228680   3.2902690
   5.0936900  11.8437670   3.1121730  15.1230250  11.3596420   9.2430360
  15.8429370  11.8551710   8.8526470  14.9212070  10.6814310   8.5984230
  10.5840190   2.7534380   3.3859750   9.7704800   2.2547550   3.3105060
  10.3902140   3.5932630   2.9696100  10.5049050  11.4305480  15.1299360
  10.4386360  10.5101150  14.8756950   9.8754190  11.5280920  15.8444000
   4.4079670  12.0311440   7.0882780   4.9258340  11.2279700   7.0339670
   3.9563690  11.9690580   7.9299610   9.2949170  13.2977720   2.3610080
   9.6364870  14.0419950   1.8653400   8.4661880  13.6108840   2.7234910
   5.0937330   9.4557050  16.8848030   4.7937470   9.6014230  15.9875850
   5.8648570   8.8962340  16.7921420  10.4365780  14.2526050  14.8803160
  10.4510320  13.3207010  14.6622070   9.7290880  14.3385810  15.5192930
  16.6476990  10.8933390  14.2271740  15.9225180  11.4862170  14.0301130
  17.1752450  10.8856930  13.4285110  16.5990100  15.2908130   3.8783900
  15.9566260  14.6363750   4.1527620  16.2120760  15.6963220   3.1024570
  12.1776580  12.6193560   7.7255590  12.5300400  12.0221690   7.0656960
  11.2938910  12.2937790   7.8963840   8.2639860  13.3791250   5.1326000
   8.9510990  13.9260460   5.5133590   7.4772280  13.9231980   5.1675610
   7.5667070  10.3837280   4.7451360   8.0229850  11.1942530   4.9711550
   7.2155280  10.0660420   5.5769850   9.8699680  15.8943620  11.9743660
  10.5141900  16.1003000  12.6517080  10.2329120  15.1332020  11.5214510
  11.1431760  13.8975970  10.6921110  11.7853990  13.1969130  10.8053280
  11.6681110  14.6774410  10.5118000  12.9169380  14.6970870  13.8957170
  13.2525620  15.2837560  14.5735090  11.9969720  14.5663580  14.1254960
  14.5703730  12.0996530   2.0774410  14.2825430  12.5609220   2.8652290
  15.3655900  11.6394300   2.3458630   8.7457960  14.7462200  17.0645230
   8.4254830  14.0271440  17.6090920   8.0716320  15.4217270  17.1381290
   6.7872130  15.5922650   2.0078380   6.7782230  16.3252340   1.3922890
   5.8670490  15.3454230   2.1005340   2.3878770  10.8137540   2.7525140
   1.7806720  11.5536440   2.7620440   2.8628120  10.9036900   1.9263340
  11.9611560   4.9788360  12.4282030  12.3292380   4.1583570  12.7561600
  11.1009760   5.0390250  12.8437680  15.3273590   3.9345300   3.2369590
  14.6986750   4.0390970   2.5227820  14.8325510   4.1542080   4.0263470
   7.2957620   6.2131250   4.6527470   6.5873770   6.6817590   5.0941080
   7.5802100   5.5553260   5.2872660   8.9213550   7.6327950  12.6520000
   9.4198800   8.1073770  13.3171850   9.0636500   6.7091470  12.8590030
  11.3273050   2.9381910   6.0923260  11.2040830   2.9568040   5.1432770
  12.2757610   2.9860850   6.2121660   8.4149840  18.1737210   5.3651240
   8.6691340  18.1358600   4.4430610   7.4662320  18.0470540   5.3579490
   5.4992640   4.5216330   2.0278180   6.3483170   4.9586480   1.9618370
   5.1323910   4.8336590   2.8550240  16.1280410   3.8495910  13.4948390
  15.6254010   4.5901310  13.8342200  16.9437070   4.2379910  13.1785180
  14.4202420   9.0929090   6.9409750  13.4792560   9.1079320   7.1157440
  14.7346490   8.3065050   7.3870050  16.4228000  16.2637940   8.6164010
  16.5475420  17.0869110   9.0887820  17.2893560  16.0528670   8.2688160
   3.8945530  18.3569150   8.2881140   4.6308010  17.8084610   8.5589710
   4.2786450  19.2225160   8.1487130   2.9003810  17.5415220  17.4766720
   3.7016540  17.8627270  17.8902120   2.3855630  17.1810800  18.1986630
  11.7368440  13.6495090  17.4242130  11.1306600  13.6726690  16.6837880
  11.4322550  12.9178130  17.9609380  13.1668810  17.3775380  16.0351540
  14.1190560  17.2933400  15.9851780  13.0197030  18.0417090  16.7085330
   7.6739560  11.4359670  15.9538290   6.9085230  12.0044670  15.8692960
   7.8555520  11.1435880  15.0606520  14.8162910  13.1665000  16.5113310
  15.5572380  13.5040760  16.0080770  14.0535590  13.3357060  15.9583080
   2.6524700   8.1718270  17.3152840   2.6930040   7.8732140  18.2238070
   3.5070200   8.5725880  17.1560360   6.4303090  10.7713820   2.4756350
   6.8519510  10.6053690   3.3187740   6.5553930   9.9614050   1.9811490
   4.5930510   6.7510370  15.2827330   4.0626970   6.2601320  14.6550670
   5.2618580   7.1794570  14.7485260  13.4908570  11.2179830  15.0468520
  13.9049590  11.3724910  15.8958940  12.5559570  11.3435050  15.2094300
  13.9630740   8.5575990  17.0507670  14.5451510   7.8028310  16.9628150
  14.1392510   9.0883430  16.2739150   5.0802810   3.7172740  15.3624620
   4.9859680   3.0993490  14.6375490   4.5000200   4.4439030  15.1354530
   7.8464250   2.2745980  12.3952010   7.3981550   2.2970240  11.5497560
   7.2129450   1.8765000  12.9922310   8.2523800  11.1700310  13.0164450
   8.6711910  12.0133040  12.8440690   7.3332430  11.3072350  12.7871230
  10.5887700   8.9016490  14.4002290  10.7083910   8.3057630  15.1397130
  11.4481700   8.9386180  13.9803590  12.9275600   9.4553680  12.9764800
  12.4010820   9.9796300  12.3729940  13.2706940  10.0881070  13.6074530
   6.1031220  17.4753320  14.1322180   5.5652310  18.1999380  13.8130880
   6.3565180  16.9983660  13.3419520   7.3556470   5.4437840  15.6578110
   7.9456160   5.1353690  16.3455930   6.5376710   4.9717590  15.8138010
  12.1749900   5.0603650  15.8911130  11.4865420   4.3985190  15.8261120
  12.8955920   4.6141920  16.3359590   8.9593430  18.7104530  14.3908830
   8.8852130  19.6139670  14.6981200   8.0572270  18.3916430  14.3630900
   9.5078760  17.8763040   2.0135190  10.4029550  18.2148010   2.0353950
   9.5396390  17.1542450   1.3859470   4.9582640  14.3688130   5.3544420
   4.6578180  14.2453100   6.2548330   4.8520130  13.5096720   4.9460150
  16.4873110  16.4066710  14.7201390  15.8875100  16.4659270  13.9765310
  16.6167010  15.4671690  14.8498240  17.1831020  10.8932010   2.5605300
  17.9449930  11.4628660   2.6664990  17.1985390  10.3259210   3.3313610
  18.1890990  11.7482110   7.4047230  18.5599820  10.9649430   6.9983200
  18.8292920  12.4371210   7.2264530  15.1724750  13.1318690  12.8177550
  14.3584590  13.5615850  13.0803340  15.5798950  13.7437100  12.2046600
  17.1315530   9.1235370   4.7107250  16.7559130   8.3563300   4.2788540
  16.4018650   9.5058070   5.1982180  16.5215150   8.2706890  14.3446770
  16.2901240   8.0419640  13.4444720  16.7819700   9.1906440  14.2991660
  14.9603220   3.4963320  17.1226470  15.8373400   3.5046720  17.5060470
  14.9724060   2.7594160  16.5118820  16.4066490   7.3492860   8.0114490
  16.9303970   6.8555510   7.3804660  16.9925910   7.4843220   8.7562060
  16.5856210   7.4332730  11.5334040  15.6358920   7.3996270  11.6479030
  16.7669220   8.3432840  11.2983810  15.8966460   6.6066210   3.9506900
  16.3925580   6.3737080   4.7355780  15.6982530   5.7678050   3.5344540
  17.3253620   5.2427160   6.4844580  17.2152900   5.0883200   7.4226850
  18.0861210   4.7148100   6.2419990  18.2882380   3.8445740   2.3507430
  17.4933880   3.7790860   2.8800340  18.4925660   4.7796380   2.3392780
  15.2300800  17.8837290   6.3445820  15.8259870  17.5621860   5.6680240
  15.4878950  17.4109110   7.1359090   3.1363370  14.3155200  16.4936450
   3.0933000  13.9448110  17.3750910   3.2674380  15.2532770  16.6338270
   6.8369400  15.8714790  12.0946170   6.5960760  16.1389350  11.2076690
   7.7772040  16.0420520  12.1497030   9.0423820   2.3347480  15.8502680
   8.9812710   2.9269310  16.5998090   9.9824200   2.2273440  15.7052940
  18.0973560  17.8909170  12.8956810  17.6031840  18.2878040  12.1783940
  17.4886850  17.2658380  13.2894090   2.9751400  17.2617450  13.6134230
   2.3811720  17.1302150  14.3524270   2.9675240  16.4255590  13.1476330
  13.3278400   2.7620550  13.2005980  12.9991760   1.9472310  12.8207710
  14.2760700   2.7190360  13.0771670  15.7813010  18.5332590  10.1743550
  15.3215980  19.2848400   9.8001570  15.1525470  17.8139060  10.1158350
   2.6063630  14.6275830  12.5642270   1.8797690  14.0081120  12.4968220
   2.6672780  15.0216440  11.6940350   6.2108730  16.8420830   9.3491680
   6.7273750  16.2308190   8.8239940   6.8606110  17.3449610   9.8402690
   8.9504230  17.7329320  10.1760660   9.2382040  17.4783620   9.2993670
   9.4627450  17.1806680  10.7666230  14.7202310   2.1742620   8.8006260
  15.1610400   2.1187720   7.9527860  14.4509900   3.0900630   8.8716440
   8.0535460   3.8906270   6.2673200   7.2409970   3.5163160   5.9269080
   8.5577100   3.1351350   6.5694390   2.4956330  16.6383450   3.2189170
   1.9703950  17.0191480   2.5151130   2.4200910  17.2634220   3.9398880
   9.0176590  18.6545420  17.5428860   9.9443900  18.4189690  17.5864820
   9.0027020  19.4817420  17.0614890  17.2521650  18.1970990   4.5403110
  17.4273840  17.5108730   3.8964030  16.5543220  18.7218040   4.1479780
   5.0949300  18.5865830   2.0938420   5.8268120  18.3025110   1.5462310
   5.3542970  18.3479110   2.9837800   4.2564090  14.7030560   2.0984750
   3.6272970  15.1715660   2.6470580   4.3711920  13.8579780   2.5330940
  15.5854150  17.8815280  17.3669900  16.3779470  17.3864510  17.1595860
  15.8787300  18.5605420  17.9745510
  74.1575480  75.3614920  73.7644580  90.0000000  90.0000000  90.0000000
