%VERSION  VERSION_STAMP = V0001.000  DATE = 11/17/25  23:57:27                  
%FLAG TITLE                                                                     
%FORMAT(20a4)                                                                   
default_name                                                                    
%FLAG POINTERS                                                                  
%FORMAT(10I8)                                                                   
   31127       9   31104      21      45      27      88      30       0       0
   41666   10365      21      27      30       7       9       8       9       0
       0       0       0       0       0       0       0       1      39       0
       0
%FLAG ATOM_NAME                                                                 
%FORMAT(20a4)                                                                   
N   C   O   C1  N1  O1  C2  N2  O2  C3  O3  C4  O4  C5  O5  C6  C7  C8  C9  C10 
C11 HC10HC11HC12HC13HC14HC15HC16HC17HC18HC19HC2 HC3 HC4 HC5 HC6 HC7 HC8 HC9 ZN  
Na+ O   H1  H2  O   H1  H2  O   H1  H2  O   H1  H2  O   H1  H2  O   H1  H2  O   
H1  H2  O   H1  H2  O   H1  H2  O   H1  H2  O   H1  H2  O   H1  H2  O   H1  H2  
O   H1  H2  O   H1  H2  O   H1  H2  O   H1  H2  O   H1  H2  O   H1  H2  O   H1  
H2  O   H1  H2  O   H1  H2  O   H1  H2  O   H1  H2  O   H1  H2  O   H1  H2  O   
H1  H2  O   H1  H2  O   H1  H2  O   H1  H2  O   H1  H2  O   H1  H2  O   H1  H2  
O   H1  H2  O   H1  H2  O   H1  H2  O   H1  H2  O   H1  H2  O   H1  H2  O   H1  
H2  O   H1  H2  O   H1  H2  O   H1  H2  O   H1  H2  O   H1  H2  O   H1  H2  O   
H1  H2  O   H1  H2  O   H1  H2  O   H1  H2  O   H1  H2  O   H1  H2  O   H1  H2  
O   H1  H2  O   H1  H2  O   H1  H2  O   H1  H2  O   H1  H2  O   H1  H2  O   H1  
H2  O   H1  H2  O   H1  H2  O   H1  H2  O   H1  H2  O   H1  H2  O   H1  H2  O   
H1  H2  O   H1  H2  O   H1  H2  O   H1  H2  O   H1  H2  O   H1  H2  O   H1  H2  
O   H1  H2  O   H1  H2  O   H1  H2  O   H1  H2  O   H1  H2  O   H1  H2  O   H1  
H2  O   H1  H2  O   H1  H2  O   H1  H2  O   H1  H2  O   H1  H2  O   H1  H2  O   
H1  H2  O   H1  H2  O   H1  H2  O   H1  H2  O   H1  H2  O   H1  H2  O   H1  H2  
O   H1  H2  O   H1  H2  O   H1  H2  O   H1  H2  O   H1  H2  O   H1  H2  O   H1  
H2  O   H1  H2  O   H1  H2  O   H1  H2  O   H1  H2  O   H1  H2  O   H1  H2  O   
H1  H2  O   H1  H2  O   H1  H2  O   H1  H2  O   H1  H2  O   H1  H2  O   H1  H2  
O   H1  H2  O   H1  H2  O   H1  H2  O   H1  H2  O   H1  H2  O   H1  H2  O   H1  
H2  O   H1  H2  O   H1  H2  O   H1  H2  O   H1  H2  O   H1  H2  O   H1  H2  O   
H1  H2  O   H1  H2  O   H1  H2  O   H1  H2  O   H1  H2  O   H1  H2  O   H1  H2  
O   H1  H2  O   H1  H2  O   H1  H2  O   H1  H2  O   H1  H2  O   H1  H2  O   H1  
H2  O   H1  H2  O   H1  H2  O   H1  H2  O   H1  H2  O   H1  H2  O   H1  H2  O   
H1  H2  O   H1  H2  O   H1  H2  O   H1  H2  O   H1  H2  O   H1  H2  O   H1  H2  
O   H1  H2  O   H1  H2  O   H1  H2  O   H1  H2  O   H1  H2  O   H1  H2  O   H1  
H2  O   H1  H2  O   H1  H2  O   H1  H2  O   H1  H2  O   H1  H2  O   H1  H2  O   
H1  H2  O   H1  H2  O   H1  H2  O   H1  H2  O   H1  H2  O   H1  H2  O   H1  H2  
O   H1  H2  O   H1  H2  O   H1  H2  O   H1  H2  O   H1  H2  O   H1  H2  O   H1  
H2  O   H1  H2  O   H1  H2  O   H1  H2  O   H1  H2  O   H1  H2  O   H1  H2  O   
H1  H2  O   H1  H2  O   H1  H2  O   H1  H2  O   H1  H2  O   H1  H2  O   H1  H2  
O   H1  H2  O   H1  H2  O   H1  H2  O   H1  H2  O   H1  H2  O   H1  H2  O   H1  
H2  O   H1  H2  O   H1  H2  O   H1  H2  O   H1  H2  O   H1  H2  O   H1  H2  O   
H1  H2  O   H1  H2  O   H1  H2  O   H1  H2  O   H1  H2  O   H1  H2  O   H1  H2  
O   H1  H2  O   H1  H2  O   H1  H2  O   H1  H2  O   H1  H2  O   H1  H2  O   H1  
H2  O   H1  H2  O   H1  H2  O   H1  H2  O   H1  H2  O   H1  H2  O   H1  H2  O   
H1  H2  O   H1  H2  O   H1  H2  O   H1  H2  O   H1  H2  O   H1  H2  O   H1  H2  
O   H1  H2  O   H1  H2  O   H1  H2  O   H1  H2  O   H1  H2  O   H1  H2  O   H1  
H2  O   H1  H2  O   H1  H2  O   H1  H2  O   H1  H2  O   H1  H2  O   H1  H2  O   
H1  H2  O   H1  H2  O   H1  H2  O   H1  H2  O   H1  H2  O   H1  H2  O   H1  H2  
O   H1  H2  O   H1  H2  O   H1  H2  O   H1  H2  O   H1  H2  O   H1  H2  O   H1  
H2  O   H1  H2  O   H1  H2  O   H1  H2  O   H1  H2  O   H1  H2  O   H1  H2  O   
H1  H2  O   H1  H2  O   H1  H2  O   H1  H2  O   H1  H2  O   H1  H2  O   H1  H2  
O   H1  H2  O   H1  H2  O   H1  H2  O   H1  H2  O   H1  H2  O   H1  H2  O   H1  
H2  O   H1  H2  O   H1  H2  O   H1  H2  O   H1  H2  O   H1  H2  O   H1  H2  O   
H1  H2  O   H1  H2  O   H1  H2  O   H1  H2  O   H1  H2  O   H1  H2  O   H1  H2  
O   H1  H2  O   H1  H2  O   H1  H2  O   H1  H2  O   H1  H2  O   H1  H2  O   H1  
H2  O   H1  H2  O   H1  H2  O   H1  H2  O   H1  H2  O   H1  H2  O   H1  H2  O   
H1  H2  O   H1  H2  O   H1  H2  O   H1  H2  O   H1  H2  O   H1  H2  O   H1  H2  
O   H1  H2  O   H1  H2  O   H1  H2  O   H1  H2  O   H1  H2  O   H1  H2  O   H1  
H2  O   H1  H2  O   H1  H2  O   H1  H2  O   H1  H2  O   H1  H2  O   H1  H2  O   
H1  H2  O   H1  H2  O   H1  H2  O   H1  H2  O   H1  H2  O   H1  H2  O   H1  H2  
O   H1  H2  O   H1  H2  O   H1  H2  O   H1  H2  O   H1  H2  O   H1  H2  O   H1  
H2  O   H1  H2  O   H1  H2  O   H1  H2  O   H1  H2  O   H1  H2  O   H1  H2  O   
H1  H2  O   H1  H2  O   H1  H2  O   H1  H2  O   H1  H2  O   H1  H2  O   H1  H2  
O   H1  H2  O   H1  H2  O   H1  H2  O   H1  H2  O   H1  H2  O   H1  H2  O   H1  
H2  O   H1  H2  O   H1  H2  O   H1  H2  O   H1  H2  O   H1  H2  O   H1  H2  O   
H1  H2  O   H1  H2  O   H1  H2  O   H1  H2  O   H1  H2  O   H1  H2  O   H1  H2  
O   H1  H2  O   H1  H2  O   H1  H2  O   H1  H2  O   H1  H2  O   H1  H2  O   H1  
H2  O   H1  H2  O   H1  H2  O   H1  H2  O   H1  H2  O   H1  H2  O   H1  H2  O   
H1  H2  O   H1  H2  O   H1  H2  O   H1  H2  O   H1  H2  O   H1  H2  O   H1  H2  
O   H1  H2  O   H1  H2  O   H1  H2  O   H1  H2  O   H1  H2  O   H1  H2  O   H1  
H2  O   H1  H2  O   H1  H2  O   H1  H2  O   H1  H2  O   H1  H2  O   H1  H2  O   
H1  H2  O   H1  H2  O   H1  H2  O   H1  H2  O   H1  H2  O   H1  H2  O   H1  H2  
O   H1  H2  O   H1  H2  O   H1  H2  O   H1  H2  O   H1  H2  O   H1  H2  O   H1  
H2  O   H1  H2  O   H1  H2  O   H1  H2  O   H1  H2  O   H1  H2  O   H1  H2  O   
H1  H2  O   H1  H2  O   H1  H2  O   H1  H2  O   H1  H2  O   H1  H2  O   H1  H2  
O   H1  H2  O   H1  H2  O   H1  H2  O   H1  H2  O   H1  H2  O   H1  H2  O   H1  
H2  O   H1  H2  O   H1  H2  O   H1  H2  O   H1  H2  O   H1  H2  O   H1  H2  O   
H1  H2  O   H1  H2  O   H1  H2  O   H1  H2  O   H1  H2  O   H1  H2  O   H1  H2  
O   H1  H2  O   H1  H2  O   H1  H2  O   H1  H2  O   H1  H2  O   H1  H2  O   H1  
H2  O   H1  H2  O   H1  H2  O   H1  H2  O   H1  H2  O   H1  H2  O   H1  H2  O   
H1  H2  O   H1  H2  O   H1  H2  O   H1  H2  O   H1  H2  O   H1  H2  O   H1  H2  
O   H1  H2  O   H1  H2  O   H1  H2  O   H1  H2  O   H1  H2  O   H1  H2  O   H1  
H2  O   H1  H2  O   H1  H2  O   H1  H2  O   H1  H2  O   H1  H2  O   H1  H2  O   
H1  H2  O   H1  H2  O   H1  H2  O   H1  H2  O   H1  H2  O   H1  H2  O   H1  H2  
O   H1  H2  O   H1  H2  O   H1  H2  O   H1  H2  O   H1  H2  O   H1  H2  O   H1  
H2  O   H1  H2  O   H1  H2  O   H1  H2  O   H1  H2  O   H1  H2  O   H1  H2  O   
H1  H2  O   H1  H2  O   H1  H2  O   H1  H2  O   H1  H2  O   H1  H2  O   H1  H2  
O   H1  H2  O   H1  H2  O   H1  H2  O   H1  H2  O   H1  H2  O   H1  H2  O   H1  
H2  O   H1  H2  O   H1  H2  O   H1  H2  O   H1  H2  O   H1  H2  O   H1  H2  O   
H1  H2  O   H1  H2  O   H1  H2  O   H1  H2  O   H1  H2  O   H1  H2  O   H1  H2  
O   H1  H2  O   H1  H2  O   H1  H2  O   H1  H2  O   H1  H2  O   H1  H2  O   H1  
H2  O   H1  H2  O   H1  H2  O   H1  H2  O   H1  H2  O   H1  H2  O   H1  H2  O   
H1  H2  O   H1  H2  O   H1  H2  O   H1  H2  O   H1  H2  O   H1  H2  O   H1  H2  
O   H1  H2  O   H1  H2  O   H1  H2  O   H1  H2  O   H1  H2  O   H1  H2  O   H1  
H2  O   H1  H2  O   H1  H2  O   H1  H2  O   H1  H2  O   H1  H2  O   H1  H2  O   
H1  H2  O   H1  H2  O   H1  H2  O   H1  H2  O   H1  H2  O   H1  H2  O   H1  H2  
O   H1  H2  O   H1  H2  O   H1  H2  O   H1  H2  O   H1  H2  O   H1  H2  O   H1  
H2  O   H1  H2  O   H1  H2  O   H1  H2  O   H1  H2  O   H1  H2  O   H1  H2  O   
H1  H2  O   H1  H2  O   H1  H2  O   H1  H2  O   H1  H2  O   H1  H2  O   H1  H2  
O   H1  H2  O   H1  H2  O   H1  H2  O   H1  H2  O   H1  H2  O   H1  H2  O   H1  
H2  O   H1  H2  O   H1  H2  O   H1  H2  O   H1  H2  O   H1  H2  O   H1  H2  O   
H1  H2  O   H1  H2  O   H1  H2  O   H1  H2  O   H1  H2  O   H1  H2  O   H1  H2  
O   H1  H2  O   H1  H2  O   H1  H2  O   H1  H2  O   H1  H2  O   H1  H2  O   H1  
H2  O   H1  H2  O   H1  H2  O   H1  H2  O   H1  H2  O   H1  H2  O   H1  H2  O   
H1  H2  O   H1  H2  O   H1  H2  O   H1  H2  O   H1  H2  O   H1  H2  O   H1  H2  
O   H1  H2  O   H1  H2  O   H1  H2  O   H1  H2  O   H1  H2  O   H1  H2  O   H1  
H2  O   H1  H2  O   H1  H2  O   H1  H2  O   H1  H2  O   H1  H2  O   H1  H2  O   
H1  H2  O   H1  H2  O   H1  H2  O   H1  H2  O   H1  H2  O   H1  H2  O   H1  H2  
O   H1  H2  O   H1  H2  O   H1  H2  O   H1  H2  O   H1  H2  O   H1  H2  O   H1  
H2  O   H1  H2  O   H1  H2  O   H1  H2  O   H1  H2  O   H1  H2  O   H1  H2  O   
H1  H2  O   H1  H2  O   H1  H2  O   H1  H2  O   H1  H2  O   H1  H2  O   H1  H2  
O   H1  H2  O   H1  H2  O   H1  H2  O   H1  H2  O   H1  H2  O   H1  H2  O   H1  
H2  O   H1  H2  O   H1  H2  O   H1  H2  O   H1  H2  O   H1  H2  O   H1  H2  O   
H1  H2  O   H1  H2  O   H1  H2  O   H1  H2  O   H1  H2  O   H1  H2  O   H1  H2  
O   H1  H2  O   H1  H2  O   H1  H2  O   H1  H2  O   H1  H2  O   H1  H2  O   H1  
H2  O   H1  H2  O   H1  H2  O   H1  H2  O   H1  H2  O   H1  H2  O   H1  H2  O   
H1  H2  O   H1  H2  O   H1  H2  O   H1  H2  O   H1  H2  O   H1  H2  O   H1  H2  
O   H1  H2  O   H1  H2  O   H1  H2  O   H1  H2  O   H1  H2  O   H1  H2  O   H1  
H2  O   H1  H2  O   H1  H2  O   H1  H2  O   H1  H2  O   H1  H2  O   H1  H2  O   
H1  H2  O   H1  H2  O   H1  H2  O   H1  H2  O   H1  H2  O   H1  H2  O   H1  H2  
O   H1  H2  O   H1  H2  O   H1  H2  O   H1  H2  O   H1  H2  O   H1  H2  O   H1  
H2  O   H1  H2  O   H1  H2  O   H1  H2  O   H1  H2  O   H1  H2  O   H1  H2  O   
H1  H2  O   H1  H2  O   H1  H2  O   H1  H2  O   H1  H2  O   H1  H2  O   H1  H2  
O   H1  H2  O   H1  H2  O   H1  H2  O   H1  H2  O   H1  H2  O   H1  H2  O   H1  
H2  O   H1  H2  O   H1  H2  O   H1  H2  O   H1  H2  O   H1  H2  O   H1  H2  O   
H1  H2  O   H1  H2  O   H1  H2  O   H1  H2  O   H1  H2  O   H1  H2  O   H1  H2  
O   H1  H2  O   H1  H2  O   H1  H2  O   H1  H2  O   H1  H2  O   H1  H2  O   H1  
H2  O   H1  H2  O   H1  H2  O   H1  H2  O   H1  H2  O   H1  H2  O   H1  H2  O   
H1  H2  O   H1  H2  O   H1  H2  O   H1  H2  O   H1  H2  O   H1  H2  O   H1  H2  
O   H1  H2  O   H1  H2  O   H1  H2  O   H1  H2  O   H1  H2  O   H1  H2  O   H1  
H2  O   H1  H2  O   H1  H2  O   H1  H2  O   H1  H2  O   H1  H2  O   H1  H2  O   
H1  H2  O   H1  H2  O   H1  H2  O   H1  H2  O   H1  H2  O   H1  H2  O   H1  H2  
O   H1  H2  O   H1  H2  O   H1  H2  O   H1  H2  O   H1  H2  O   H1  H2  O   H1  
H2  O   H1  H2  O   H1  H2  O   H1  H2  O   H1  H2  O   H1  H2  O   H1  H2  O   
H1  H2  O   H1  H2  O   H1  H2  O   H1  H2  O   H1  H2  O   H1  H2  O   H1  H2  
O   H1  H2  O   H1  H2  O   H1  H2  O   H1  H2  O   H1  H2  O   H1  H2  O   H1  
H2  O   H1  H2  O   H1  H2  O   H1  H2  O   H1  H2  O   H1  H2  O   H1  H2  O   
H1  H2  O   H1  H2  O   H1  H2  O   H1  H2  O   H1  H2  O   H1  H2  O   H1  H2  
O   H1  H2  O   H1  H2  O   H1  H2  O   H1  H2  O   H1  H2  O   H1  H2  O   H1  
H2  O   H1  H2  O   H1  H2  O   H1  H2  O   H1  H2  O   H1  H2  O   H1  H2  O   
H1  H2  O   H1  H2  O   H1  H2  O   H1  H2  O   H1  H2  O   H1  H2  O   H1  H2  
O   H1  H2  O   H1  H2  O   H1  H2  O   H1  H2  O   H1  H2  O   H1  H2  O   H1  
H2  O   H1  H2  O   H1  H2  O   H1  H2  O   H1  H2  O   H1  H2  O   H1  H2  O   
H1  H2  O   H1  H2  O   H1  H2  O   H1  H2  O   H1  H2  O   H1  H2  O   H1  H2  
O   H1  H2  O   H1  H2  O   H1  H2  O   H1  H2  O   H1  H2  O   H1  H2  O   H1  
H2  O   H1  H2  O   H1  H2  O   H1  H2  O   H1  H2  O   H1  H2  O   H1  H2  O   
H1  H2  O   H1  H2  O   H1  H2  O   H1  H2  O   H1  H2  O   H1  H2  O   H1  H2  
O   H1  H2  O   H1  H2  O   H1  H2  O   H1  H2  O   H1  H2  O   H1  H2  O   H1  
H2  O   H1  H2  O   H1  H2  O   H1  H2  O   H1  H2  O   H1  H2  O   H1  H2  O   
H1  H2  O   H1  H2  O   H1  H2  O   H1  H2  O   H1  H2  O   H1  H2  O   H1  H2  
O   H1  H2  O   H1  H2  O   H1  H2  O   H1  H2  O   H1  H2  O   H1  H2  O   H1  
H2  O   H1  H2  O   H1  H2  O   H1  H2  O   H1  H2  O   H1  H2  O   H1  H2  O   
H1  H2  O   H1  H2  O   H1  H2  O   H1  H2  O   H1  H2  O   H1  H2  O   H1  H2  
O   H1  H2  O   H1  H2  O   H1  H2  O   H1  H2  O   H1  H2  O   H1  H2  O   H1  
H2  O   H1  H2  O   H1  H2  O   H1  H2  O   H1  H2  O   H1  H2  O   H1  H2  O   
H1  H2  O   H1  H2  O   H1  H2  O   H1  H2  O   H1  H2  O   H1  H2  O   H1  H2  
O   H1  H2  O   H1  H2  O   H1  H2  O   H1  H2  O   H1  H2  O   H1  H2  O   H1  
H2  O   H1  H2  O   H1  H2  O   H1  H2  O   H1  H2  O   H1  H2  O   H1  H2  O   
H1  H2  O   H1  H2  O   H1  H2  O   H1  H2  O   H1  H2  O   H1  H2  O   H1  H2  
O   H1  H2  O   H1  H2  O   H1  H2  O   H1  H2  O   H1  H2  O   H1  H2  O   H1  
H2  O   H1  H2  O   H1  H2  O   H1  H2  O   H1  H2  O   H1  H2  O   H1  H2  O   
H1  H2  O   H1  H2  O   H1  H2  O   H1  H2  O   H1  H2  O   H1  H2  O   H1  H2  
O   H1  H2  O   H1  H2  O   H1  H2  O   H1  H2  O   H1  H2  O   H1  H2  O   H1  
H2  O   H1  H2  O   H1  H2  O   H1  H2  O   H1  H2  O   H1  H2  O   H1  H2  O   
H1  H2  O   H1  H2  O   H1  H2  O   H1  H2  O   H1  H2  O   H1  H2  O   H1  H2  
O   H1  H2  O   H1  H2  O   H1  H2  O   H1  H2  O   H1  H2  O   H1  H2  O   H1  
H2  O   H1  H2  O   H1  H2  O   H1  H2  O   H1  H2  O   H1  H2  O   H1  H2  O   
H1  H2  O   H1  H2  O   H1  H2  O   H1  H2  O   H1  H2  O   H1  H2  O   H1  H2  
O   H1  H2  O   H1  H2  O   H1  H2  O   H1  H2  O   H1  H2  O   H1  H2  O   H1  
H2  O   H1  H2  O   H1  H2  O   H1  H2  O   H1  H2  O   H1  H2  O   H1  H2  O   
H1  H2  O   H1  H2  O   H1  H2  O   H1  H2  O   H1  H2  O   H1  H2  O   H1  H2  
O   H1  H2  O   H1  H2  O   H1  H2  O   H1  H2  O   H1  H2  O   H1  H2  O   H1  
H2  O   H1  H2  O   H1  H2  O   H1  H2  O   H1  H2  O   H1  H2  O   H1  H2  O   
H1  H2  O   H1  H2  O   H1  H2  O   H1  H2  O   H1  H2  O   H1  H2  O   H1  H2  
O   H1  H2  O   H1  H2  O   H1  H2  O   H1  H2  O   H1  H2  O   H1  H2  O   H1  
H2  O   H1  H2  O   H1  H2  O   H1  H2  O   H1  H2  O   H1  H2  O   H1  H2  O   
H1  H2  O   H1  H2  O   H1  H2  O   H1  H2  O   H1  H2  O   H1  H2  O   H1  H2  
O   H1  H2  O   H1  H2  O   H1  H2  O   H1  H2  O   H1  H2  O   H1  H2  O   H1  
H2  O   H1  H2  O   H1  H2  O   H1  H2  O   H1  H2  O   H1  H2  O   H1  H2  O   
H1  H2  O   H1  H2  O   H1  H2  O   H1  H2  O   H1  H2  O   H1  H2  O   H1  H2  
O   H1  H2  O   H1  H2  O   H1  H2  O   H1  H2  O   H1  H2  O   H1  H2  O   H1  
H2  O   H1  H2  O   H1  H2  O   H1  H2  O   H1  H2  O   H1  H2  O   H1  H2  O   
H1  H2  O   H1  H2  O   H1  H2  O   H1  H2  O   H1  H2  O   H1  H2  O   H1  H2  
O   H1  H2  O   H1  H2  O   H1  H2  O   H1  H2  O   H1  H2  O   H1  H2  O   H1  
H2  O   H1  H2  O   H1  H2  O   H1  H2  O   H1  H2  O   H1  H2  O   H1  H2  O   
H1  H2  O   H1  H2  O   H1  H2  O   H1  H2  O   H1  H2  O   H1  H2  O   H1  H2  
O   H1  H2  O   H1  H2  O   H1  H2  O   H1  H2  O   H1  H2  O   H1  H2  O   H1  
H2  O   H1  H2  O   H1  H2  O   H1  H2  O   H1  H2  O   H1  H2  O   H1  H2  O   
H1  H2  O   H1  H2  O   H1  H2  O   H1  H2  O   H1  H2  O   H1  H2  O   H1  H2  
O   H1  H2  O   H1  H2  O   H1  H2  O   H1  H2  O   H1  H2  O   H1  H2  O   H1  
H2  O   H1  H2  O   H1  H2  O   H1  H2  O   H1  H2  O   H1  H2  O   H1  H2  O   
H1  H2  O   H1  H2  O   H1  H2  O   H1  H2  O   H1  H2  O   H1  H2  O   H1  H2  
O   H1  H2  O   H1  H2  O   H1  H2  O   H1  H2  O   H1  H2  O   H1  H2  O   H1  
H2  O   H1  H2  O   H1  H2  O   H1  H2  O   H1  H2  O   H1  H2  O   H1  H2  O   
H1  H2  O   H1  H2  O   H1  H2  O   H1  H2  O   H1  H2  O   H1  H2  O   H1  H2  
O   H1  H2  O   H1  H2  O   H1  H2  O   H1  H2  O   H1  H2  O   H1  H2  O   H1  
H2  O   H1  H2  O   H1  H2  O   H1  H2  O   H1  H2  O   H1  H2  O   H1  H2  O   
H1  H2  O   H1  H2  O   H1  H2  O   H1  H2  O   H1  H2  O   H1  H2  O   H1  H2  
O   H1  H2  O   H1  H2  O   H1  H2  O   H1  H2  O   H1  H2  O   H1  H2  O   H1  
H2  O   H1  H2  O   H1  H2  O   H1  H2  O   H1  H2  O   H1  H2  O   H1  H2  O   
H1  H2  O   H1  H2  O   H1  H2  O   H1  H2  O   H1  H2  O   H1  H2  O   H1  H2  
O   H1  H2  O   H1  H2  O   H1  H2  O   H1  H2  O   H1  H2  O   H1  H2  O   H1  
H2  O   H1  H2  O   H1  H2  O   H1  H2  O   H1  H2  O   H1  H2  O   H1  H2  O   
H1  H2  O   H1  H2  O   H1  H2  O   H1  H2  O   H1  H2  O   H1  H2  O   H1  H2  
O   H1  H2  O   H1  H2  O   H1  H2  O   H1  H2  O   H1  H2  O   H1  H2  O   H1  
H2  O   H1  H2  O   H1  H2  O   H1  H2  O   H1  H2  O   H1  H2  O   H1  H2  O   
H1  H2  O   H1  H2  O   H1  H2  O   H1  H2  O   H1  H2  O   H1  H2  O   H1  H2  
O   H1  H2  O   H1  H2  O   H1  H2  O   H1  H2  O   H1  H2  O   H1  H2  O   H1  
H2  O   H1  H2  O   H1  H2  O   H1  H2  O   H1  H2  O   H1  H2  O   H1  H2  O   
H1  H2  O   H1  H2  O   H1  H2  O   H1  H2  O   H1  H2  O   H1  H2  O   H1  H2  
O   H1  H2  O   H1  H2  O   H1  H2  O   H1  H2  O   H1  H2  O   H1  H2  O   H1  
H2  O   H1  H2  O   H1  H2  O   H1  H2  O   H1  H2  O   H1  H2  O   H1  H2  O   
H1  H2  O   H1  H2  O   H1  H2  O   H1  H2  O   H1  H2  O   H1  H2  O   H1  H2  
O   H1  H2  O   H1  H2  O   H1  H2  O   H1  H2  O   H1  H2  O   H1  H2  O   H1  
H2  O   H1  H2  O   H1  H2  O   H1  H2  O   H1  H2  O   H1  H2  O   H1  H2  O   
H1  H2  O   H1  H2  O   H1  H2  O   H1  H2  O   H1  H2  O   H1  H2  O   H1  H2  
O   H1  H2  O   H1  H2  O   H1  H2  O   H1  H2  O   H1  H2  O   H1  H2  O   H1  
H2  O   H1  H2  O   H1  H2  O   H1  H2  O   H1  H2  O   H1  H2  O   H1  H2  O   
H1  H2  O   H1  H2  O   H1  H2  O   H1  H2  O   H1  H2  O   H1  H2  O   H1  H2  
O   H1  H2  O   H1  H2  O   H1  H2  O   H1  H2  O   H1  H2  O   H1  H2  O   H1  
H2  O   H1  H2  O   H1  H2  O   H1  H2  O   H1  H2  O   H1  H2  O   H1  H2  O   
H1  H2  O   H1  H2  O   H1  H2  O   H1  H2  O   H1  H2  O   H1  H2  O   H1  H2  
O   H1  H2  O   H1  H2  O   H1  H2  O   H1  H2  O   H1  H2  O   H1  H2  O   H1  
H2  O   H1  H2  O   H1  H2  O   H1  H2  O   H1  H2  O   H1  H2  O   H1  H2  O   
H1  H2  O   H1  H2  O   H1  H2  O   H1  H2  O   H1  H2  O   H1  H2  O   H1  H2  
O   H1  H2  O   H1  H2  O   H1  H2  O   H1  H2  O   H1  H2  O   H1  H2  O   H1  
H2  O   H1  H2  O   H1  H2  O   H1  H2  O   H1  H2  O   H1  H2  O   H1  H2  O   
H1  H2  O   H1  H2  O   H1  H2  O   H1  H2  O   H1  H2  O   H1  H2  O   H1  H2  
O   H1  H2  O   H1  H2  O   H1  H2  O   H1  H2  O   H1  H2  O   H1  H2  O   H1  
H2  O   H1  H2  O   H1  H2  O   H1  H2  O   H1  H2  O   H1  H2  O   H1  H2  O   
H1  H2  O   H1  H2  O   H1  H2  O   H1  H2  O   H1  H2  O   H1  H2  O   H1  H2  
O   H1  H2  O   H1  H2  O   H1  H2  O   H1  H2  O   H1  H2  O   H1  H2  O   H1  
H2  O   H1  H2  O   H1  H2  O   H1  H2  O   H1  H2  O   H1  H2  O   H1  H2  O   
H1  H2  O   H1  H2  O   H1  H2  O   H1  H2  O   H1  H2  O   H1  H2  O   H1  H2  
O   H1  H2  O   H1  H2  O   H1  H2  O   H1  H2  O   H1  H2  O   H1  H2  O   H1  
H2  O   H1  H2  O   H1  H2  O   H1  H2  O   H1  H2  O   H1  H2  O   H1  H2  O   
H1  H2  O   H1  H2  O   H1  H2  O   H1  H2  O   H1  H2  O   H1  H2  O   H1  H2  
O   H1  H2  O   H1  H2  O   H1  H2  O   H1  H2  O   H1  H2  O   H1  H2  O   H1  
H2  O   H1  H2  O   H1  H2  O   H1  H2  O   H1  H2  O   H1  H2  O   H1  H2  O   
H1  H2  O   H1  H2  O   H1  H2  O   H1  H2  O   H1  H2  O   H1  H2  O   H1  H2  
O   H1  H2  O   H1  H2  O   H1  H2  O   H1  H2  O   H1  H2  O   H1  H2  O   H1  
H2  O   H1  H2  O   H1  H2  O   H1  H2  O   H1  H2  O   H1  H2  O   H1  H2  O   
H1  H2  O   H1  H2  O   H1  H2  O   H1  H2  O   H1  H2  O   H1  H2  O   H1  H2  
O   H1  H2  O   H1  H2  O   H1  H2  O   H1  H2  O   H1  H2  O   H1  H2  O   H1  
H2  O   H1  H2  O   H1  H2  O   H1  H2  O   H1  H2  O   H1  H2  O   H1  H2  O   
H1  H2  O   H1  H2  O   H1  H2  O   H1  H2  O   H1  H2  O   H1  H2  O   H1  H2  
O   H1  H2  O   H1  H2  O   H1  H2  O   H1  H2  O   H1  H2  O   H1  H2  O   H1  
H2  O   H1  H2  O   H1  H2  O   H1  H2  O   H1  H2  O   H1  H2  O   H1  H2  O   
H1  H2  O   H1  H2  O   H1  H2  O   H1  H2  O   H1  H2  O   H1  H2  O   H1  H2  
O   H1  H2  O   H1  H2  O   H1  H2  O   H1  H2  O   H1  H2  O   H1  H2  O   H1  
H2  O   H1  H2  O   H1  H2  O   H1  H2  O   H1  H2  O   H1  H2  O   H1  H2  O   
H1  H2  O   H1  H2  O   H1  H2  O   H1  H2  O   H1  H2  O   H1  H2  O   H1  H2  
O   H1  H2  O   H1  H2  O   H1  H2  O   H1  H2  O   H1  H2  O   H1  H2  O   H1  
H2  O   H1  H2  O   H1  H2  O   H1  H2  O   H1  H2  O   H1  H2  O   H1  H2  O   
H1  H2  O   H1  H2  O   H1  H2  O   H1  H2  O   H1  H2  O   H1  H2  O   H1  H2  
O   H1  H2  O   H1  H2  O   H1  H2  O   H1  H2  O   H1  H2  O   H1  H2  O   H1  
H2  O   H1  H2  O   H1  H2  O   H1  H2  O   H1  H2  O   H1  H2  O   H1  H2  O   
H1  H2  O   H1  H2  O   H1  H2  O   H1  H2  O   H1  H2  O   H1  H2  O   H1  H2  
O   H1  H2  O   H1  H2  O   H1  H2  O   H1  H2  O   H1  H2  O   H1  H2  O   H1  
H2  O   H1  H2  O   H1  H2  O   H1  H2  O   H1  H2  O   H1  H2  O   H1  H2  O   
H1  H2  O   H1  H2  O   H1  H2  O   H1  H2  O   H1  H2  O   H1  H2  O   H1  H2  
O   H1  H2  O   H1  H2  O   H1  H2  O   H1  H2  O   H1  H2  O   H1  H2  O   H1  
H2  O   H1  H2  O   H1  H2  O   H1  H2  O   H1  H2  O   H1  H2  O   H1  H2  O   
H1  H2  O   H1  H2  O   H1  H2  O   H1  H2  O   H1  H2  O   H1  H2  O   H1  H2  
O   H1  H2  O   H1  H2  O   H1  H2  O   H1  H2  O   H1  H2  O   H1  H2  O   H1  
H2  O   H1  H2  O   H1  H2  O   H1  H2  O   H1  H2  O   H1  H2  O   H1  H2  O   
H1  H2  O   H1  H2  O   H1  H2  O   H1  H2  O   H1  H2  O   H1  H2  O   H1  H2  
O   H1  H2  O   H1  H2  O   H1  H2  O   H1  H2  O   H1  H2  O   H1  H2  O   H1  
H2  O   H1  H2  O   H1  H2  O   H1  H2  O   H1  H2  O   H1  H2  O   H1  H2  O   
H1  H2  O   H1  H2  O   H1  H2  O   H1  H2  O   H1  H2  O   H1  H2  O   H1  H2  
O   H1  H2  O   H1  H2  O   H1  H2  O   H1  H2  O   H1  H2  O   H1  H2  O   H1  
H2  O   H1  H2  O   H1  H2  O   H1  H2  O   H1  H2  O   H1  H2  O   H1  H2  O   
H1  H2  O   H1  H2  O   H1  H2  O   H1  H2  O   H1  H2  O   H1  H2  O   H1  H2  
O   H1  H2  O   H1  H2  O   H1  H2  O   H1  H2  O   H1  H2  O   H1  H2  O   H1  
H2  O   H1  H2  O   H1  H2  O   H1  H2  O   H1  H2  O   H1  H2  O   H1  H2  O   
H1  H2  O   H1  H2  O   H1  H2  O   H1  H2  O   H1  H2  O   H1  H2  O   H1  H2  
O   H1  H2  O   H1  H2  O   H1  H2  O   H1  H2  O   H1  H2  O   H1  H2  O   H1  
H2  O   H1  H2  O   H1  H2  O   H1  H2  O   H1  H2  O   H1  H2  O   H1  H2  O   
H1  H2  O   H1  H2  O   H1  H2  O   H1  H2  O   H1  H2  O   H1  H2  O   H1  H2  
O   H1  H2  O   H1  H2  O   H1  H2  O   H1  H2  O   H1  H2  O   H1  H2  O   H1  
H2  O   H1  H2  O   H1  H2  O   H1  H2  O   H1  H2  O   H1  H2  O   H1  H2  O   
H1  H2  O   H1  H2  O   H1  H2  O   H1  H2  O   H1  H2  O   H1  H2  O   H1  H2  
O   H1  H2  O   H1  H2  O   H1  H2  O   H1  H2  O   H1  H2  O   H1  H2  O   H1  
H2  O   H1  H2  O   H1  H2  O   H1  H2  O   H1  H2  O   H1  H2  O   H1  H2  O   
H1  H2  O   H1  H2  O   H1  H2  O   H1  H2  O   H1  H2  O   H1  H2  O   H1  H2  
O   H1  H2  O   H1  H2  O   H1  H2  O   H1  H2  O   H1  H2  O   H1  H2  O   H1  
H2  O   H1  H2  O   H1  H2  O   H1  H2  O   H1  H2  O   H1  H2  O   H1  H2  O   
H1  H2  O   H1  H2  O   H1  H2  O   H1  H2  O   H1  H2  O   H1  H2  O   H1  H2  
O   H1  H2  O   H1  H2  O   H1  H2  O   H1  H2  O   H1  H2  O   H1  H2  O   H1  
H2  O   H1  H2  O   H1  H2  O   H1  H2  O   H1  H2  O   H1  H2  O   H1  H2  O   
H1  H2  O   H1  H2  O   H1  H2  O   H1  H2  O   H1  H2  O   H1  H2  O   H1  H2  
O   H1  H2  O   H1  H2  O   H1  H2  O   H1  H2  O   H1  H2  O   H1  H2  O   H1  
H2  O   H1  H2  O   H1  H2  O   H1  H2  O   H1  H2  O   H1  H2  O   H1  H2  O   
H1  H2  O   H1  H2  O   H1  H2  O   H1  H2  O   H1  H2  O   H1  H2  O   H1  H2  
O   H1  H2  O   H1  H2  O   H1  H2  O   H1  H2  O   H1  H2  O   H1  H2  O   H1  
H2  O   H1  H2  O   H1  H2  O   H1  H2  O   H1  H2  O   H1  H2  O   H1  H2  O   
H1  H2  O   H1  H2  O   H1  H2  O   H1  H2  O   H1  H2  O   H1  H2  O   H1  H2  
O   H1  H2  O   H1  H2  O   H1  H2  O   H1  H2  O   H1  H2  O   H1  H2  O   H1  
H2  O   H1  H2  O   H1  H2  O   H1  H2  O   H1  H2  O   H1  H2  O   H1  H2  O   
H1  H2  O   H1  H2  O   H1  H2  O   H1  H2  O   H1  H2  O   H1  H2  O   H1  H2  
O   H1  H2  O   H1  H2  O   H1  H2  O   H1  H2  O   H1  H2  O   H1  H2  O   H1  
H2  O   H1  H2  O   H1  H2  O   H1  H2  O   H1  H2  O   H1  H2  O   H1  H2  O   
H1  H2  O   H1  H2  O   H1  H2  O   H1  H2  O   H1  H2  O   H1  H2  O   H1  H2  
O   H1  H2  O   H1  H2  O   H1  H2  O   H1  H2  O   H1  H2  O   H1  H2  O   H1  
H2  O   H1  H2  O   H1  H2  O   H1  H2  O   H1  H2  O   H1  H2  O   H1  H2  O   
H1  H2  O   H1  H2  O   H1  H2  O   H1  H2  O   H1  H2  O   H1  H2  O   H1  H2  
O   H1  H2  O   H1  H2  O   H1  H2  O   H1  H2  O   H1  H2  O   H1  H2  O   H1  
H2  O   H1  H2  O   H1  H2  O   H1  H2  O   H1  H2  O   H1  H2  O   H1  H2  O   
H1  H2  O   H1  H2  O   H1  H2  O   H1  H2  O   H1  H2  O   H1  H2  O   H1  H2  
O   H1  H2  O   H1  H2  O   H1  H2  O   H1  H2  O   H1  H2  O   H1  H2  O   H1  
H2  O   H1  H2  O   H1  H2  O   H1  H2  O   H1  H2  O   H1  H2  O   H1  H2  O   
H1  H2  O   H1  H2  O   H1  H2  O   H1  H2  O   H1  H2  O   H1  H2  O   H1  H2  
O   H1  H2  O   H1  H2  O   H1  H2  O   H1  H2  O   H1  H2  O   H1  H2  O   H1  
H2  O   H1  H2  O   H1  H2  O   H1  H2  O   H1  H2  O   H1  H2  O   H1  H2  O   
H1  H2  O   H1  H2  O   H1  H2  O   H1  H2  O   H1  H2  O   H1  H2  O   H1  H2  
O   H1  H2  O   H1  H2  O   H1  H2  O   H1  H2  O   H1  H2  O   H1  H2  O   H1  
H2  O   H1  H2  O   H1  H2  O   H1  H2  O   H1  H2  O   H1  H2  O   H1  H2  O   
H1  H2  O   H1  H2  O   H1  H2  O   H1  H2  O   H1  H2  O   H1  H2  O   H1  H2  
O   H1  H2  O   H1  H2  O   H1  H2  O   H1  H2  O   H1  H2  O   H1  H2  O   H1  
H2  O   H1  H2  O   H1  H2  O   H1  H2  O   H1  H2  O   H1  H2  O   H1  H2  O   
H1  H2  O   H1  H2  O   H1  H2  O   H1  H2  O   H1  H2  O   H1  H2  O   H1  H2  
O   H1  H2  O   H1  H2  O   H1  H2  O   H1  H2  O   H1  H2  O   H1  H2  O   H1  
H2  O   H1  H2  O   H1  H2  O   H1  H2  O   H1  H2  O   H1  H2  O   H1  H2  O   
H1  H2  O   H1  H2  O   H1  H2  O   H1  H2  O   H1  H2  O   H1  H2  O   H1  H2  
O   H1  H2  O   H1  H2  O   H1  H2  O   H1  H2  O   H1  H2  O   H1  H2  O   H1  
H2  O   H1  H2  O   H1  H2  O   H1  H2  O   H1  H2  O   H1  H2  O   H1  H2  O   
H1  H2  O   H1  H2  O   H1  H2  O   H1  H2  O   H1  H2  O   H1  H2  O   H1  H2  
O   H1  H2  O   H1  H2  O   H1  H2  O   H1  H2  O   H1  H2  O   H1  H2  O   H1  
H2  O   H1  H2  O   H1  H2  O   H1  H2  O   H1  H2  O   H1  H2  O   H1  H2  O   
H1  H2  O   H1  H2  O   H1  H2  O   H1  H2  O   H1  H2  O   H1  H2  O   H1  H2  
O   H1  H2  O   H1  H2  O   H1  H2  O   H1  H2  O   H1  H2  O   H1  H2  O   H1  
H2  O   H1  H2  O   H1  H2  O   H1  H2  O   H1  H2  O   H1  H2  O   H1  H2  O   
H1  H2  O   H1  H2  O   H1  H2  O   H1  H2  O   H1  H2  O   H1  H2  O   H1  H2  
O   H1  H2  O   H1  H2  O   H1  H2  O   H1  H2  O   H1  H2  O   H1  H2  O   H1  
H2  O   H1  H2  O   H1  H2  O   H1  H2  O   H1  H2  O   H1  H2  O   H1  H2  O   
H1  H2  O   H1  H2  O   H1  H2  O   H1  H2  O   H1  H2  O   H1  H2  O   H1  H2  
O   H1  H2  O   H1  H2  O   H1  H2  O   H1  H2  O   H1  H2  O   H1  H2  O   H1  
H2  O   H1  H2  O   H1  H2  O   H1  H2  O   H1  H2  O   H1  H2  O   H1  H2  O   
H1  H2  O   H1  H2  O   H1  H2  O   H1  H2  O   H1  H2  O   H1  H2  O   H1  H2  
O   H1  H2  O   H1  H2  O   H1  H2  O   H1  H2  O   H1  H2  O   H1  H2  O   H1  
H2  O   H1  H2  O   H1  H2  O   H1  H2  O   H1  H2  O   H1  H2  O   H1  H2  O   
H1  H2  O   H1  H2  O   H1  H2  O   H1  H2  O   H1  H2  O   H1  H2  O   H1  H2  
O   H1  H2  O   H1  H2  O   H1  H2  O   H1  H2  O   H1  H2  O   H1  H2  O   H1  
H2  O   H1  H2  O   H1  H2  O   H1  H2  O   H1  H2  O   H1  H2  O   H1  H2  O   
H1  H2  O   H1  H2  O   H1  H2  O   H1  H2  O   H1  H2  O   H1  H2  O   H1  H2  
O   H1  H2  O   H1  H2  O   H1  H2  O   H1  H2  O   H1  H2  O   H1  H2  O   H1  
H2  O   H1  H2  O   H1  H2  O   H1  H2  O   H1  H2  O   H1  H2  O   H1  H2  O   
H1  H2  O   H1  H2  O   H1  H2  O   H1  H2  O   H1  H2  O   H1  H2  O   H1  H2  
O   H1  H2  O   H1  H2  O   H1  H2  O   H1  H2  O   H1  H2  O   H1  H2  O   H1  
H2  O   H1  H2  O   H1  H2  O   H1  H2  O   H1  H2  O   H1  H2  O   H1  H2  O   
H1  H2  O   H1  H2  O   H1  H2  O   H1  H2  O   H1  H2  O   H1  H2  O   H1  H2  
O   H1  H2  O   H1  H2  O   H1  H2  O   H1  H2  O   H1  H2  O   H1  H2  O   H1  
H2  O   H1  H2  O   H1  H2  O   H1  H2  O   H1  H2  O   H1  H2  O   H1  H2  O   
H1  H2  O   H1  H2  O   H1  H2  O   H1  H2  O   H1  H2  O   H1  H2  O   H1  H2  
O   H1  H2  O   H1  H2  O   H1  H2  O   H1  H2  O   H1  H2  O   H1  H2  O   H1  
H2  O   H1  H2  O   H1  H2  O   H1  H2  O   H1  H2  O   H1  H2  O   H1  H2  O   
H1  H2  O   H1  H2  O   H1  H2  O   H1  H2  O   H1  H2  O   H1  H2  O   H1  H2  
O   H1  H2  O   H1  H2  O   H1  H2  O   H1  H2  O   H1  H2  O   H1  H2  O   H1  
H2  O   H1  H2  O   H1  H2  O   H1  H2  O   H1  H2  O   H1  H2  O   H1  H2  O   
H1  H2  O   H1  H2  O   H1  H2  O   H1  H2  O   H1  H2  O   H1  H2  O   H1  H2  
O   H1  H2  O   H1  H2  O   H1  H2  O   H1  H2  O   H1  H2  O   H1  H2  O   H1  
H2  O   H1  H2  O   H1  H2  O   H1  H2  O   H1  H2  O   H1  H2  O   H1  H2  O   
H1  H2  O   H1  H2  O   H1  H2  O   H1  H2  O   H1  H2  O   H1  H2  O   H1  H2  
O   H1  H2  O   H1  H2  O   H1  H2  O   H1  H2  O   H1  H2  O   H1  H2  O   H1  
H2  O   H1  H2  O   H1  H2  O   H1  H2  O   H1  H2  O   H1  H2  O   H1  H2  O   
H1  H2  O   H1  H2  O   H1  H2  O   H1  H2  O   H1  H2  O   H1  H2  O   H1  H2  
O   H1  H2  O   H1  H2  O   H1  H2  O   H1  H2  O   H1  H2  O   H1  H2  O   H1  
H2  O   H1  H2  O   H1  H2  O   H1  H2  O   H1  H2  O   H1  H2  O   H1  H2  O   
H1  H2  O   H1  H2  O   H1  H2  O   H1  H2  O   H1  H2  O   H1  H2  O   H1  H2  
O   H1  H2  O   H1  H2  O   H1  H2  O   H1  H2  O   H1  H2  O   H1  H2  O   H1  
H2  O   H1  H2  O   H1  H2  O   H1  H2  O   H1  H2  O   H1  H2  O   H1  H2  O   
H1  H2  O   H1  H2  O   H1  H2  O   H1  H2  O   H1  H2  O   H1  H2  O   H1  H2  
O   H1  H2  O   H1  H2  O   H1  H2  O   H1  H2  O   H1  H2  O   H1  H2  O   H1  
H2  O   H1  H2  O   H1  H2  O   H1  H2  O   H1  H2  O   H1  H2  O   H1  H2  O   
H1  H2  O   H1  H2  O   H1  H2  O   H1  H2  O   H1  H2  O   H1  H2  O   H1  H2  
O   H1  H2  O   H1  H2  O   H1  H2  O   H1  H2  O   H1  H2  O   H1  H2  O   H1  
H2  O   H1  H2  O   H1  H2  O   H1  H2  O   H1  H2  O   H1  H2  O   H1  H2  O   
H1  H2  O   H1  H2  O   H1  H2  O   H1  H2  O   H1  H2  O   H1  H2  O   H1  H2  
O   H1  H2  O   H1  H2  O   H1  H2  O   H1  H2  O   H1  H2  O   H1  H2  O   H1  
H2  O   H1  H2  O   H1  H2  O   H1  H2  O   H1  H2  O   H1  H2  O   H1  H2  O   
H1  H2  O   H1  H2  O   H1  H2  O   H1  H2  O   H1  H2  O   H1  H2  O   H1  H2  
O   H1  H2  O   H1  H2  O   H1  H2  O   H1  H2  O   H1  H2  O   H1  H2  O   H1  
H2  O   H1  H2  O   H1  H2  O   H1  H2  O   H1  H2  O   H1  H2  O   H1  H2  O   
H1  H2  O   H1  H2  O   H1  H2  O   H1  H2  O   H1  H2  O   H1  H2  O   H1  H2  
O   H1  H2  O   H1  H2  O   H1  H2  O   H1  H2  O   H1  H2  O   H1  H2  O   H1  
H2  O   H1  H2  O   H1  H2  O   H1  H2  O   H1  H2  O   H1  H2  O   H1  H2  O   
H1  H2  O   H1  H2  O   H1  H2  O   H1  H2  O   H1  H2  O   H1  H2  O   H1  H2  
O   H1  H2  O   H1  H2  O   H1  H2  O   H1  H2  O   H1  H2  O   H1  H2  O   H1  
H2  O   H1  H2  O   H1  H2  O   H1  H2  O   H1  H2  O   H1  H2  O   H1  H2  O   
H1  H2  O   H1  H2  O   H1  H2  O   H1  H2  O   H1  H2  O   H1  H2  O   H1  H2  
O   H1  H2  O   H1  H2  O   H1  H2  O   H1  H2  O   H1  H2  O   H1  H2  O   H1  
H2  O   H1  H2  O   H1  H2  O   H1  H2  O   H1  H2  O   H1  H2  O   H1  H2  O   
H1  H2  O   H1  H2  O   H1  H2  O   H1  H2  O   H1  H2  O   H1  H2  O   H1  H2  
O   H1  H2  O   H1  H2  O   H1  H2  O   H1  H2  O   H1  H2  O   H1  H2  O   H1  
H2  O   H1  H2  O   H1  H2  O   H1  H2  O   H1  H2  O   H1  H2  O   H1  H2  O   
H1  H2  O   H1  H2  O   H1  H2  O   H1  H2  O   H1  H2  O   H1  H2  O   H1  H2  
O   H1  H2  O   H1  H2  O   H1  H2  O   H1  H2  O   H1  H2  O   H1  H2  O   H1  
H2  O   H1  H2  O   H1  H2  O   H1  H2  O   H1  H2  O   H1  H2  O   H1  H2  O   
H1  H2  O   H1  H2  O   H1  H2  O   H1  H2  O   H1  H2  O   H1  H2  O   H1  H2  
O   H1  H2  O   H1  H2  O   H1  H2  O   H1  H2  O   H1  H2  O   H1  H2  O   H1  
H2  O   H1  H2  O   H1  H2  O   H1  H2  O   H1  H2  O   H1  H2  O   H1  H2  O   
H1  H2  O   H1  H2  O   H1  H2  O   H1  H2  O   H1  H2  O   H1  H2  O   H1  H2  
O   H1  H2  O   H1  H2  O   H1  H2  O   H1  H2  O   H1  H2  O   H1  H2  O   H1  
H2  O   H1  H2  O   H1  H2  O   H1  H2  O   H1  H2  O   H1  H2  O   H1  H2  O   
H1  H2  O   H1  H2  O   H1  H2  O   H1  H2  O   H1  H2  O   H1  H2  O   H1  H2  
O   H1  H2  O   H1  H2  O   H1  H2  O   H1  H2  O   H1  H2  O   H1  H2  O   H1  
H2  O   H1  H2  O   H1  H2  O   H1  H2  O   H1  H2  O   H1  H2  O   H1  H2  O   
H1  H2  O   H1  H2  O   H1  H2  O   H1  H2  O   H1  H2  O   H1  H2  O   H1  H2  
O   H1  H2  O   H1  H2  O   H1  H2  O   H1  H2  O   H1  H2  O   H1  H2  O   H1  
H2  O   H1  H2  O   H1  H2  O   H1  H2  O   H1  H2  O   H1  H2  O   H1  H2  O   
H1  H2  O   H1  H2  O   H1  H2  O   H1  H2  O   H1  H2  O   H1  H2  O   H1  H2  
O   H1  H2  O   H1  H2  O   H1  H2  O   H1  H2  O   H1  H2  O   H1  H2  O   H1  
H2  O   H1  H2  O   H1  H2  O   H1  H2  O   H1  H2  O   H1  H2  O   H1  H2  O   
H1  H2  O   H1  H2  O   H1  H2  O   H1  H2  O   H1  H2  O   H1  H2  O   H1  H2  
O   H1  H2  O   H1  H2  O   H1  H2  O   H1  H2  O   H1  H2  O   H1  H2  O   H1  
H2  O   H1  H2  O   H1  H2  O   H1  H2  O   H1  H2  O   H1  H2  O   H1  H2  O   
H1  H2  O   H1  H2  O   H1  H2  O   H1  H2  O   H1  H2  O   H1  H2  O   H1  H2  
O   H1  H2  O   H1  H2  O   H1  H2  O   H1  H2  O   H1  H2  O   H1  H2  O   H1  
H2  O   H1  H2  O   H1  H2  O   H1  H2  O   H1  H2  O   H1  H2  O   H1  H2  O   
H1  H2  O   H1  H2  O   H1  H2  O   H1  H2  O   H1  H2  O   H1  H2  O   H1  H2  
O   H1  H2  O   H1  H2  O   H1  H2  O   H1  H2  O   H1  H2  O   H1  H2  O   H1  
H2  O   H1  H2  O   H1  H2  O   H1  H2  O   H1  H2  O   H1  H2  O   H1  H2  O   
H1  H2  O   H1  H2  O   H1  H2  O   H1  H2  O   H1  H2  O   H1  H2  O   H1  H2  
O   H1  H2  O   H1  H2  O   H1  H2  O   H1  H2  O   H1  H2  O   H1  H2  O   H1  
H2  O   H1  H2  O   H1  H2  O   H1  H2  O   H1  H2  O   H1  H2  O   H1  H2  O   
H1  H2  O   H1  H2  O   H1  H2  O   H1  H2  O   H1  H2  O   H1  H2  O   H1  H2  
O   H1  H2  O   H1  H2  O   H1  H2  O   H1  H2  O   H1  H2  O   H1  H2  O   H1  
H2  O   H1  H2  O   H1  H2  O   H1  H2  O   H1  H2  O   H1  H2  O   H1  H2  O   
H1  H2  O   H1  H2  O   H1  H2  O   H1  H2  O   H1  H2  O   H1  H2  O   H1  H2  
O   H1  H2  O   H1  H2  O   H1  H2  O   H1  H2  O   H1  H2  O   H1  H2  O   H1  
H2  O   H1  H2  O   H1  H2  O   H1  H2  O   H1  H2  O   H1  H2  O   H1  H2  O   
H1  H2  O   H1  H2  O   H1  H2  O   H1  H2  O   H1  H2  O   H1  H2  O   H1  H2  
O   H1  H2  O   H1  H2  O   H1  H2  O   H1  H2  O   H1  H2  O   H1  H2  O   H1  
H2  O   H1  H2  O   H1  H2  O   H1  H2  O   H1  H2  O   H1  H2  O   H1  H2  O   
H1  H2  O   H1  H2  O   H1  H2  O   H1  H2  O   H1  H2  O   H1  H2  O   H1  H2  
O   H1  H2  O   H1  H2  O   H1  H2  O   H1  H2  O   H1  H2  O   H1  H2  O   H1  
H2  O   H1  H2  O   H1  H2  O   H1  H2  O   H1  H2  O   H1  H2  O   H1  H2  O   
H1  H2  O   H1  H2  O   H1  H2  O   H1  H2  O   H1  H2  O   H1  H2  O   H1  H2  
O   H1  H2  O   H1  H2  O   H1  H2  O   H1  H2  O   H1  H2  O   H1  H2  O   H1  
H2  O   H1  H2  O   H1  H2  O   H1  H2  O   H1  H2  O   H1  H2  O   H1  H2  O   
H1  H2  O   H1  H2  O   H1  H2  O   H1  H2  O   H1  H2  O   H1  H2  O   H1  H2  
O   H1  H2  O   H1  H2  O   H1  H2  O   H1  H2  O   H1  H2  O   H1  H2  O   H1  
H2  O   H1  H2  O   H1  H2  O   H1  H2  O   H1  H2  O   H1  H2  O   H1  H2  O   
H1  H2  O   H1  H2  O   H1  H2  O   H1  H2  O   H1  H2  O   H1  H2  O   H1  H2  
O   H1  H2  O   H1  H2  O   H1  H2  O   H1  H2  O   H1  H2  O   H1  H2  O   H1  
H2  O   H1  H2  O   H1  H2  O   H1  H2  O   H1  H2  O   H1  H2  O   H1  H2  O   
H1  H2  O   H1  H2  O   H1  H2  O   H1  H2  O   H1  H2  O   H1  H2  O   H1  H2  
O   H1  H2  O   H1  H2  O   H1  H2  O   H1  H2  O   H1  H2  O   H1  H2  O   H1  
H2  O   H1  H2  O   H1  H2  O   H1  H2  O   H1  H2  O   H1  H2  O   H1  H2  O   
H1  H2  O   H1  H2  O   H1  H2  O   H1  H2  O   H1  H2  O   H1  H2  O   H1  H2  
O   H1  H2  O   H1  H2  O   H1  H2  O   H1  H2  O   H1  H2  O   H1  H2  O   H1  
H2  O   H1  H2  O   H1  H2  O   H1  H2  O   H1  H2  O   H1  H2  O   H1  H2  O   
H1  H2  O   H1  H2  O   H1  H2  O   H1  H2  O   H1  H2  O   H1  H2  O   H1  H2  
O   H1  H2  O   H1  H2  O   H1  H2  O   H1  H2  O   H1  H2  O   H1  H2  O   H1  
H2  O   H1  H2  O   H1  H2  O   H1  H2  O   H1  H2  O   H1  H2  O   H1  H2  O   
H1  H2  O   H1  H2  O   H1  H2  O   H1  H2  O   H1  H2  O   H1  H2  O   H1  H2  
O   H1  H2  O   H1  H2  O   H1  H2  O   H1  H2  O   H1  H2  O   H1  H2  O   H1  
H2  O   H1  H2  O   H1  H2  O   H1  H2  O   H1  H2  O   H1  H2  O   H1  H2  O   
H1  H2  O   H1  H2  O   H1  H2  O   H1  H2  O   H1  H2  O   H1  H2  O   H1  H2  
O   H1  H2  O   H1  H2  O   H1  H2  O   H1  H2  O   H1  H2  O   H1  H2  O   H1  
H2  O   H1  H2  O   H1  H2  O   H1  H2  O   H1  H2  O   H1  H2  O   H1  H2  O   
H1  H2  O   H1  H2  O   H1  H2  O   H1  H2  O   H1  H2  O   H1  H2  O   H1  H2  
O   H1  H2  O   H1  H2  O   H1  H2  O   H1  H2  O   H1  H2  O   H1  H2  O   H1  
H2  O   H1  H2  O   H1  H2  O   H1  H2  O   H1  H2  O   H1  H2  O   H1  H2  O   
H1  H2  O   H1  H2  O   H1  H2  O   H1  H2  O   H1  H2  O   H1  H2  O   H1  H2  
O   H1  H2  O   H1  H2  O   H1  H2  O   H1  H2  O   H1  H2  O   H1  H2  O   H1  
H2  O   H1  H2  O   H1  H2  O   H1  H2  O   H1  H2  O   H1  H2  O   H1  H2  O   
H1  H2  O   H1  H2  O   H1  H2  O   H1  H2  O   H1  H2  O   H1  H2  O   H1  H2  
O   H1  H2  O   H1  H2  O   H1  H2  O   H1  H2  O   H1  H2  O   H1  H2  O   H1  
H2  O   H1  H2  O   H1  H2  O   H1  H2  O   H1  H2  O   H1  H2  O   H1  H2  O   
H1  H2  O   H1  H2  O   H1  H2  O   H1  H2  O   H1  H2  O   H1  H2  O   H1  H2  
O   H1  H2  O   H1  H2  O   H1  H2  O   H1  H2  O   H1  H2  O   H1  H2  O   H1  
H2  O   H1  H2  O   H1  H2  O   H1  H2  O   H1  H2  O   H1  H2  O   H1  H2  O   
H1  H2  O   H1  H2  O   H1  H2  O   H1  H2  O   H1  H2  O   H1  H2  O   H1  H2  
O   H1  H2  O   H1  H2  O   H1  H2  O   H1  H2  O   H1  H2  O   H1  H2  O   H1  
H2  O   H1  H2  O   H1  H2  O   H1  H2  O   H1  H2  O   H1  H2  O   H1  H2  O   
H1  H2  O   H1  H2  O   H1  H2  O   H1  H2  O   H1  H2  O   H1  H2  O   H1  H2  
O   H1  H2  O   H1  H2  O   H1  H2  O   H1  H2  O   H1  H2  O   H1  H2  O   H1  
H2  O   H1  H2  O   H1  H2  O   H1  H2  O   H1  H2  O   H1  H2  O   H1  H2  O   
H1  H2  O   H1  H2  O   H1  H2  O   H1  H2  O   H1  H2  O   H1  H2  O   H1  H2  
O   H1  H2  O   H1  H2  O   H1  H2  O   H1  H2  O   H1  H2  O   H1  H2  O   H1  
H2  O   H1  H2  O   H1  H2  O   H1  H2  O   H1  H2  O   H1  H2  O   H1  H2  O   
H1  H2  O   H1  H2  O   H1  H2  O   H1  H2  O   H1  H2  O   H1  H2  O   H1  H2  
O   H1  H2  O   H1  H2  O   H1  H2  O   H1  H2  O   H1  H2  O   H1  H2  O   H1  
H2  O   H1  H2  O   H1  H2  O   H1  H2  O   H1  H2  O   H1  H2  O   H1  H2  O   
H1  H2  O   H1  H2  O   H1  H2  O   H1  H2  O   H1  H2  O   H1  H2  O   H1  H2  
O   H1  H2  O   H1  H2  O   H1  H2  O   H1  H2  O   H1  H2  O   H1  H2  O   H1  
H2  O   H1  H2  O   H1  H2  O   H1  H2  O   H1  H2  O   H1  H2  O   H1  H2  O   
H1  H2  O   H1  H2  O   H1  H2  O   H1  H2  O   H1  H2  O   H1  H2  O   H1  H2  
O   H1  H2  O   H1  H2  O   H1  H2  O   H1  H2  O   H1  H2  O   H1  H2  O   H1  
H2  O   H1  H2  O   H1  H2  O   H1  H2  O   H1  H2  O   H1  H2  O   H1  H2  O   
H1  H2  O   H1  H2  O   H1  H2  O   H1  H2  O   H1  H2  O   H1  H2  O   H1  H2  
O   H1  H2  O   H1  H2  O   H1  H2  O   H1  H2  O   H1  H2  O   H1  H2  O   H1  
H2  O   H1  H2  O   H1  H2  O   H1  H2  O   H1  H2  O   H1  H2  O   H1  H2  O   
H1  H2  O   H1  H2  O   H1  H2  O   H1  H2  O   H1  H2  O   H1  H2  O   H1  H2  
O   H1  H2  O   H1  H2  O   H1  H2  O   H1  H2  O   H1  H2  O   H1  H2  O   H1  
H2  O   H1  H2  O   H1  H2  O   H1  H2  O   H1  H2  O   H1  H2  O   H1  H2  O   
H1  H2  O   H1  H2  O   H1  H2  O   H1  H2  O   H1  H2  O   H1  H2  O   H1  H2  
O   H1  H2  O   H1  H2  O   H1  H2  O   H1  H2  O   H1  H2  O   H1  H2  O   H1  
H2  O   H1  H2  O   H1  H2  O   H1  H2  O   H1  H2  O   H1  H2  O   H1  H2  O   
H1  H2  O   H1  H2  O   H1  H2  O   H1  H2  O   H1  H2  O   H1  H2  O   H1  H2  
O   H1  H2  O   H1  H2  O   H1  H2  O   H1  H2  O   H1  H2  O   H1  H2  O   H1  
H2  O   H1  H2  O   H1  H2  O   H1  H2  O   H1  H2  O   H1  H2  O   H1  H2  O   
H1  H2  O   H1  H2  O   H1  H2  O   H1  H2  O   H1  H2  O   H1  H2  O   H1  H2  
O   H1  H2  O   H1  H2  O   H1  H2  O   H1  H2  O   H1  H2  O   H1  H2  O   H1  
H2  O   H1  H2  O   H1  H2  O   H1  H2  O   H1  H2  O   H1  H2  O   H1  H2  O   
H1  H2  O   H1  H2  O   H1  H2  O   H1  H2  O   H1  H2  O   H1  H2  O   H1  H2  
O   H1  H2  O   H1  H2  O   H1  H2  O   H1  H2  O   H1  H2  O   H1  H2  O   H1  
H2  O   H1  H2  O   H1  H2  O   H1  H2  O   H1  H2  O   H1  H2  O   H1  H2  O   
H1  H2  O   H1  H2  O   H1  H2  O   H1  H2  O   H1  H2  O   H1  H2  O   H1  H2  
O   H1  H2  O   H1  H2  O   H1  H2  O   H1  H2  O   H1  H2  O   H1  H2  O   H1  
H2  O   H1  H2  O   H1  H2  O   H1  H2  O   H1  H2  O   H1  H2  O   H1  H2  O   
H1  H2  O   H1  H2  O   H1  H2  O   H1  H2  O   H1  H2  O   H1  H2  O   H1  H2  
O   H1  H2  O   H1  H2  O   H1  H2  O   H1  H2  O   H1  H2  O   H1  H2  O   H1  
H2  O   H1  H2  O   H1  H2  O   H1  H2  O   H1  H2  O   H1  H2  O   H1  H2  O   
H1  H2  O   H1  H2  O   H1  H2  O   H1  H2  O   H1  H2  O   H1  H2  O   H1  H2  
O   H1  H2  O   H1  H2  O   H1  H2  O   H1  H2  O   H1  H2  O   H1  H2  O   H1  
H2  O   H1  H2  O   H1  H2  O   H1  H2  O   H1  H2  O   H1  H2  O   H1  H2  O   
H1  H2  O   H1  H2  O   H1  H2  O   H1  H2  O   H1  H2  O   H1  H2  O   H1  H2  
O   H1  H2  O   H1  H2  O   H1  H2  O   H1  H2  O   H1  H2  O   H1  H2  O   H1  
H2  O   H1  H2  O   H1  H2  O   H1  H2  O   H1  H2  O   H1  H2  O   H1  H2  O   
H1  H2  O   H1  H2  O   H1  H2  O   H1  H2  O   H1  H2  O   H1  H2  O   H1  H2  
O   H1  H2  O   H1  H2  O   H1  H2  O   H1  H2  O   H1  H2  O   H1  H2  O   H1  
H2  O   H1  H2  O   H1  H2  O   H1  H2  O   H1  H2  O   H1  H2  O   H1  H2  O   
H1  H2  O   H1  H2  O   H1  H2  O   H1  H2  O   H1  H2  O   H1  H2  O   H1  H2  
O   H1  H2  O   H1  H2  O   H1  H2  O   H1  H2  O   H1  H2  O   H1  H2  O   H1  
H2  O   H1  H2  O   H1  H2  O   H1  H2  O   H1  H2  O   H1  H2  O   H1  H2  O   
H1  H2  O   H1  H2  O   H1  H2  O   H1  H2  O   H1  H2  O   H1  H2  O   H1  H2  
O   H1  H2  O   H1  H2  O   H1  H2  O   H1  H2  O   H1  H2  O   H1  H2  O   H1  
H2  O   H1  H2  O   H1  H2  O   H1  H2  O   H1  H2  O   H1  H2  O   H1  H2  O   
H1  H2  O   H1  H2  O   H1  H2  O   H1  H2  O   H1  H2  O   H1  H2  O   H1  H2  
O   H1  H2  O   H1  H2  O   H1  H2  O   H1  H2  O   H1  H2  O   H1  H2  O   H1  
H2  O   H1  H2  O   H1  H2  O   H1  H2  O   H1  H2  O   H1  H2  O   H1  H2  O   
H1  H2  O   H1  H2  O   H1  H2  O   H1  H2  O   H1  H2  O   H1  H2  O   H1  H2  
O   H1  H2  O   H1  H2  O   H1  H2  O   H1  H2  O   H1  H2  O   H1  H2  O   H1  
H2  O   H1  H2  O   H1  H2  O   H1  H2  O   H1  H2  O   H1  H2  O   H1  H2  O   
H1  H2  O   H1  H2  O   H1  H2  O   H1  H2  O   H1  H2  O   H1  H2  O   H1  H2  
O   H1  H2  O   H1  H2  O   H1  H2  O   H1  H2  O   H1  H2  O   H1  H2  O   H1  
H2  O   H1  H2  O   H1  H2  O   H1  H2  O   H1  H2  O   H1  H2  O   H1  H2  O   
H1  H2  O   H1  H2  O   H1  H2  O   H1  H2  O   H1  H2  O   H1  H2  O   H1  H2  
O   H1  H2  O   H1  H2  O   H1  H2  O   H1  H2  O   H1  H2  O   H1  H2  O   H1  
H2  O   H1  H2  O   H1  H2  O   H1  H2  O   H1  H2  O   H1  H2  O   H1  H2  O   
H1  H2  O   H1  H2  O   H1  H2  O   H1  H2  O   H1  H2  O   H1  H2  O   H1  H2  
O   H1  H2  O   H1  H2  O   H1  H2  O   H1  H2  O   H1  H2  O   H1  H2  O   H1  
H2  O   H1  H2  O   H1  H2  O   H1  H2  O   H1  H2  O   H1  H2  O   H1  H2  O   
H1  H2  O   H1  H2  O   H1  H2  O   H1  H2  O   H1  H2  O   H1  H2  O   H1  H2  
O   H1  H2  O   H1  H2  O   H1  H2  O   H1  H2  O   H1  H2  O   H1  H2  O   H1  
H2  O   H1  H2  O   H1  H2  O   H1  H2  O   H1  H2  O   H1  H2  O   H1  H2  O   
H1  H2  O   H1  H2  O   H1  H2  O   H1  H2  O   H1  H2  O   H1  H2  O   H1  H2  
O   H1  H2  O   H1  H2  O   H1  H2  O   H1  H2  O   H1  H2  O   H1  H2  O   H1  
H2  O   H1  H2  O   H1  H2  O   H1  H2  O   H1  H2  O   H1  H2  O   H1  H2  O   
H1  H2  O   H1  H2  O   H1  H2  O   H1  H2  O   H1  H2  O   H1  H2  O   H1  H2  
O   H1  H2  O   H1  H2  O   H1  H2  O   H1  H2  O   H1  H2  O   H1  H2  O   H1  
H2  O   H1  H2  O   H1  H2  O   H1  H2  O   H1  H2  O   H1  H2  O   H1  H2  O   
H1  H2  O   H1  H2  O   H1  H2  O   H1  H2  O   H1  H2  O   H1  H2  O   H1  H2  
O   H1  H2  O   H1  H2  O   H1  H2  O   H1  H2  O   H1  H2  O   H1  H2  O   H1  
H2  O   H1  H2  O   H1  H2  O   H1  H2  O   H1  H2  O   H1  H2  O   H1  H2  O   
H1  H2  O   H1  H2  O   H1  H2  O   H1  H2  O   H1  H2  O   H1  H2  O   H1  H2  
O   H1  H2  O   H1  H2  O   H1  H2  O   H1  H2  O   H1  H2  O   H1  H2  O   H1  
H2  O   H1  H2  O   H1  H2  O   H1  H2  O   H1  H2  O   H1  H2  O   H1  H2  O   
H1  H2  O   H1  H2  O   H1  H2  O   H1  H2  O   H1  H2  O   H1  H2  O   H1  H2  
O   H1  H2  O   H1  H2  O   H1  H2  O   H1  H2  O   H1  H2  O   H1  H2  O   H1  
H2  O   H1  H2  O   H1  H2  O   H1  H2  O   H1  H2  O   H1  H2  O   H1  H2  O   
H1  H2  O   H1  H2  O   H1  H2  O   H1  H2  O   H1  H2  O   H1  H2  O   H1  H2  
O   H1  H2  O   H1  H2  O   H1  H2  O   H1  H2  O   H1  H2  O   H1  H2  O   H1  
H2  O   H1  H2  O   H1  H2  O   H1  H2  O   H1  H2  O   H1  H2  O   H1  H2  O   
H1  H2  O   H1  H2  O   H1  H2  O   H1  H2  O   H1  H2  O   H1  H2  O   H1  H2  
O   H1  H2  O   H1  H2  O   H1  H2  O   H1  H2  O   H1  H2  O   H1  H2  O   H1  
H2  O   H1  H2  O   H1  H2  O   H1  H2  O   H1  H2  O   H1  H2  O   H1  H2  O   
H1  H2  O   H1  H2  O   H1  H2  O   H1  H2  O   H1  H2  O   H1  H2  O   H1  H2  
O   H1  H2  O   H1  H2  O   H1  H2  O   H1  H2  O   H1  H2  O   H1  H2  O   H1  
H2  O   H1  H2  O   H1  H2  O   H1  H2  O   H1  H2  O   H1  H2  O   H1  H2  O   
H1  H2  O   H1  H2  O   H1  H2  O   H1  H2  O   H1  H2  O   H1  H2  O   H1  H2  
O   H1  H2  O   H1  H2  O   H1  H2  O   H1  H2  O   H1  H2  O   H1  H2  O   H1  
H2  O   H1  H2  O   H1  H2  O   H1  H2  O   H1  H2  O   H1  H2  O   H1  H2  O   
H1  H2  O   H1  H2  O   H1  H2  O   H1  H2  O   H1  H2  O   H1  H2  O   H1  H2  
O   H1  H2  O   H1  H2  O   H1  H2  O   H1  H2  O   H1  H2  O   H1  H2  O   H1  
H2  O   H1  H2  O   H1  H2  O   H1  H2  O   H1  H2  O   H1  H2  O   H1  H2  O   
H1  H2  O   H1  H2  O   H1  H2  O   H1  H2  O   H1  H2  O   H1  H2  O   H1  H2  
O   H1  H2  O   H1  H2  O   H1  H2  O   H1  H2  O   H1  H2  O   H1  H2  O   H1  
H2  O   H1  H2  O   H1  H2  O   H1  H2  O   H1  H2  O   H1  H2  O   H1  H2  O   
H1  H2  O   H1  H2  O   H1  H2  O   H1  H2  O   H1  H2  O   H1  H2  O   H1  H2  
O   H1  H2  O   H1  H2  O   H1  H2  O   H1  H2  O   H1  H2  O   H1  H2  O   H1  
H2  O   H1  H2  O   H1  H2  O   H1  H2  O   H1  H2  O   H1  H2  O   H1  H2  O   
H1  H2  O   H1  H2  O   H1  H2  O   H1  H2  O   H1  H2  O   H1  H2  O   H1  H2  
O   H1  H2  O   H1  H2  O   H1  H2  O   H1  H2  O   H1  H2  O   H1  H2  O   H1  
H2  O   H1  H2  O   H1  H2  O   H1  H2  O   H1  H2  O   H1  H2  O   H1  H2  O   
H1  H2  O   H1  H2  O   H1  H2  O   H1  H2  O   H1  H2  O   H1  H2  O   H1  H2  
O   H1  H2  O   H1  H2  O   H1  H2  O   H1  H2  O   H1  H2  O   H1  H2  O   H1  
H2  O   H1  H2  O   H1  H2  O   H1  H2  O   H1  H2  O   H1  H2  O   H1  H2  O   
H1  H2  O   H1  H2  O   H1  H2  O   H1  H2  O   H1  H2  O   H1  H2  O   H1  H2  
O   H1  H2  O   H1  H2  O   H1  H2  O   H1  H2  O   H1  H2  O   H1  H2  O   H1  
H2  O   H1  H2  O   H1  H2  O   H1  H2  O   H1  H2  O   H1  H2  O   H1  H2  O   
H1  H2  O   H1  H2  O   H1  H2  O   H1  H2  O   H1  H2  O   H1  H2  O   H1  H2  
O   H1  H2  O   H1  H2  O   H1  H2  O   H1  H2  O   H1  H2  O   H1  H2  O   H1  
H2  O   H1  H2  O   H1  H2  O   H1  H2  O   H1  H2  O   H1  H2  O   H1  H2  O   
H1  H2  O   H1  H2  O   H1  H2  O   H1  H2  O   H1  H2  O   H1  H2  O   H1  H2  
O   H1  H2  O   H1  H2  O   H1  H2  O   H1  H2  O   H1  H2  O   H1  H2  O   H1  
H2  O   H1  H2  O   H1  H2  O   H1  H2  O   H1  H2  O   H1  H2  O   H1  H2  O   
H1  H2  O   H1  H2  O   H1  H2  O   H1  H2  O   H1  H2  O   H1  H2  O   H1  H2  
O   H1  H2  O   H1  H2  O   H1  H2  O   H1  H2  O   H1  H2  O   H1  H2  O   H1  
H2  O   H1  H2  O   H1  H2  O   H1  H2  O   H1  H2  O   H1  H2  O   H1  H2  O   
H1  H2  O   H1  H2  O   H1  H2  O   H1  H2  O   H1  H2  O   H1  H2  O   H1  H2  
O   H1  H2  O   H1  H2  O   H1  H2  O   H1  H2  O   H1  H2  O   H1  H2  O   H1  
H2  O   H1  H2  O   H1  H2  O   H1  H2  O   H1  H2  O   H1  H2  O   H1  H2  O   
H1  H2  O   H1  H2  O   H1  H2  O   H1  H2  O   H1  H2  O   H1  H2  O   H1  H2  
O   H1  H2  O   H1  H2  O   H1  H2  O   H1  H2  O   H1  H2  O   H1  H2  O   H1  
H2  O   H1  H2  O   H1  H2  O   H1  H2  O   H1  H2  O   H1  H2  O   H1  H2  O   
H1  H2  O   H1  H2  O   H1  H2  O   H1  H2  O   H1  H2  O   H1  H2  O   H1  H2  
O   H1  H2  O   H1  H2  O   H1  H2  O   H1  H2  O   H1  H2  O   H1  H2  O   H1  
H2  O   H1  H2  O   H1  H2  O   H1  H2  O   H1  H2  O   H1  H2  O   H1  H2  O   
H1  H2  O   H1  H2  O   H1  H2  O   H1  H2  O   H1  H2  O   H1  H2  O   H1  H2  
O   H1  H2  O   H1  H2  O   H1  H2  O   H1  H2  O   H1  H2  O   H1  H2  O   H1  
H2  O   H1  H2  O   H1  H2  O   H1  H2  O   H1  H2  O   H1  H2  O   H1  H2  O   
H1  H2  O   H1  H2  O   H1  H2  O   H1  H2  O   H1  H2  O   H1  H2  O   H1  H2  
O   H1  H2  O   H1  H2  O   H1  H2  O   H1  H2  O   H1  H2  O   H1  H2  O   H1  
H2  O   H1  H2  O   H1  H2  O   H1  H2  O   H1  H2  O   H1  H2  O   H1  H2  O   
H1  H2  O   H1  H2  O   H1  H2  O   H1  H2  O   H1  H2  O   H1  H2  O   H1  H2  
O   H1  H2  O   H1  H2  O   H1  H2  O   H1  H2  O   H1  H2  O   H1  H2  O   H1  
H2  O   H1  H2  O   H1  H2  O   H1  H2  O   H1  H2  O   H1  H2  O   H1  H2  O   
H1  H2  O   H1  H2  O   H1  H2  O   H1  H2  O   H1  H2  O   H1  H2  O   H1  H2  
O   H1  H2  O   H1  H2  O   H1  H2  O   H1  H2  O   H1  H2  O   H1  H2  O   H1  
H2  O   H1  H2  O   H1  H2  O   H1  H2  O   H1  H2  O   H1  H2  O   H1  H2  O   
H1  H2  O   H1  H2  O   H1  H2  O   H1  H2  O   H1  H2  O   H1  H2  O   H1  H2  
O   H1  H2  O   H1  H2  O   H1  H2  O   H1  H2  O   H1  H2  O   H1  H2  O   H1  
H2  O   H1  H2  O   H1  H2  O   H1  H2  O   H1  H2  O   H1  H2  O   H1  H2  O   
H1  H2  O   H1  H2  O   H1  H2  O   H1  H2  O   H1  H2  O   H1  H2  O   H1  H2  
O   H1  H2  O   H1  H2  O   H1  H2  O   H1  H2  O   H1  H2  O   H1  H2  O   H1  
H2  O   H1  H2  O   H1  H2  O   H1  H2  O   H1  H2  O   H1  H2  O   H1  H2  O   
H1  H2  O   H1  H2  O   H1  H2  O   H1  H2  O   H1  H2  O   H1  H2  O   H1  H2  
O   H1  H2  O   H1  H2  O   H1  H2  O   H1  H2  O   H1  H2  O   H1  H2  O   H1  
H2  O   H1  H2  O   H1  H2  O   H1  H2  O   H1  H2  O   H1  H2  O   H1  H2  O   
H1  H2  O   H1  H2  O   H1  H2  O   H1  H2  O   H1  H2  O   H1  H2  O   H1  H2  
O   H1  H2  O   H1  H2  O   H1  H2  O   H1  H2  O   H1  H2  O   H1  H2  O   H1  
H2  O   H1  H2  O   H1  H2  O   H1  H2  O   H1  H2  O   H1  H2  O   H1  H2  O   
H1  H2  O   H1  H2  O   H1  H2  O   H1  H2  O   H1  H2  O   H1  H2  O   H1  H2  
O   H1  H2  O   H1  H2  O   H1  H2  O   H1  H2  O   H1  H2  O   H1  H2  O   H1  
H2  O   H1  H2  O   H1  H2  O   H1  H2  O   H1  H2  O   H1  H2  O   H1  H2  O   
H1  H2  O   H1  H2  O   H1  H2  O   H1  H2  O   H1  H2  O   H1  H2  O   H1  H2  
O   H1  H2  O   H1  H2  O   H1  H2  O   H1  H2  O   H1  H2  O   H1  H2  O   H1  
H2  O   H1  H2  O   H1  H2  O   H1  H2  O   H1  H2  O   H1  H2  O   H1  H2  O   
H1  H2  O   H1  H2  O   H1  H2  O   H1  H2  O   H1  H2  O   H1  H2  O   H1  H2  
O   H1  H2  O   H1  H2  O   H1  H2  O   H1  H2  O   H1  H2  O   H1  H2  O   H1  
H2  O   H1  H2  O   H1  H2  O   H1  H2  O   H1  H2  O   H1  H2  O   H1  H2  O   
H1  H2  O   H1  H2  O   H1  H2  O   H1  H2  O   H1  H2  O   H1  H2  O   H1  H2  
O   H1  H2  O   H1  H2  O   H1  H2  O   H1  H2  O   H1  H2  O   H1  H2  O   H1  
H2  O   H1  H2  O   H1  H2  O   H1  H2  O   H1  H2  O   H1  H2  O   H1  H2  O   
H1  H2  O   H1  H2  O   H1  H2  O   H1  H2  O   H1  H2  O   H1  H2  O   H1  H2  
O   H1  H2  O   H1  H2  O   H1  H2  O   H1  H2  O   H1  H2  O   H1  H2  O   H1  
H2  O   H1  H2  O   H1  H2  O   H1  H2  O   H1  H2  O   H1  H2  O   H1  H2  O   
H1  H2  O   H1  H2  O   H1  H2  O   H1  H2  O   H1  H2  O   H1  H2  O   H1  H2  
O   H1  H2  O   H1  H2  O   H1  H2  O   H1  H2  O   H1  H2  O   H1  H2  O   H1  
H2  O   H1  H2  O   H1  H2  O   H1  H2  O   H1  H2  O   H1  H2  O   H1  H2  O   
H1  H2  O   H1  H2  O   H1  H2  O   H1  H2  O   H1  H2  O   H1  H2  O   H1  H2  
O   H1  H2  O   H1  H2  O   H1  H2  O   H1  H2  O   H1  H2  O   H1  H2  O   H1  
H2  O   H1  H2  O   H1  H2  O   H1  H2  O   H1  H2  O   H1  H2  O   H1  H2  O   
H1  H2  O   H1  H2  O   H1  H2  O   H1  H2  O   H1  H2  O   H1  H2  O   H1  H2  
O   H1  H2  O   H1  H2  O   H1  H2  O   H1  H2  O   H1  H2  O   H1  H2  O   H1  
H2  O   H1  H2  O   H1  H2  O   H1  H2  O   H1  H2  O   H1  H2  O   H1  H2  O   
H1  H2  O   H1  H2  O   H1  H2  O   H1  H2  O   H1  H2  O   H1  H2  O   H1  H2  
O   H1  H2  O   H1  H2  O   H1  H2  O   H1  H2  O   H1  H2  O   H1  H2  O   H1  
H2  O   H1  H2  O   H1  H2  O   H1  H2  O   H1  H2  O   H1  H2  O   H1  H2  O   
H1  H2  O   H1  H2  O   H1  H2  O   H1  H2  O   H1  H2  O   H1  H2  O   H1  H2  
O   H1  H2  O   H1  H2  O   H1  H2  O   H1  H2  O   H1  H2  O   H1  H2  O   H1  
H2  O   H1  H2  O   H1  H2  O   H1  H2  O   H1  H2  O   H1  H2  O   H1  H2  O   
H1  H2  O   H1  H2  O   H1  H2  O   H1  H2  O   H1  H2  O   H1  H2  O   H1  H2  
O   H1  H2  O   H1  H2  O   H1  H2  O   H1  H2  O   H1  H2  O   H1  H2  O   H1  
H2  O   H1  H2  O   H1  H2  O   H1  H2  O   H1  H2  O   H1  H2  O   H1  H2  O   
H1  H2  O   H1  H2  O   H1  H2  O   H1  H2  O   H1  H2  O   H1  H2  O   H1  H2  
O   H1  H2  O   H1  H2  O   H1  H2  O   H1  H2  O   H1  H2  O   H1  H2  O   H1  
H2  O   H1  H2  O   H1  H2  O   H1  H2  O   H1  H2  O   H1  H2  O   H1  H2  O   
H1  H2  O   H1  H2  O   H1  H2  O   H1  H2  O   H1  H2  O   H1  H2  O   H1  H2  
O   H1  H2  O   H1  H2  O   H1  H2  O   H1  H2  O   H1  H2  O   H1  H2  O   H1  
H2  O   H1  H2  O   H1  H2  O   H1  H2  O   H1  H2  O   H1  H2  O   H1  H2  O   
H1  H2  O   H1  H2  O   H1  H2  O   H1  H2  O   H1  H2  O   H1  H2  O   H1  H2  
O   H1  H2  O   H1  H2  O   H1  H2  O   H1  H2  O   H1  H2  O   H1  H2  O   H1  
H2  O   H1  H2  O   H1  H2  O   H1  H2  O   H1  H2  O   H1  H2  O   H1  H2  O   
H1  H2  O   H1  H2  O   H1  H2  O   H1  H2  O   H1  H2  O   H1  H2  O   H1  H2  
O   H1  H2  O   H1  H2  O   H1  H2  O   H1  H2  O   H1  H2  O   H1  H2  O   H1  
H2  O   H1  H2  O   H1  H2  O   H1  H2  O   H1  H2  O   H1  H2  O   H1  H2  O   
H1  H2  O   H1  H2  O   H1  H2  O   H1  H2  O   H1  H2  O   H1  H2  O   H1  H2  
O   H1  H2  O   H1  H2  O   H1  H2  O   H1  H2  O   H1  H2  O   H1  H2  O   H1  
H2  O   H1  H2  O   H1  H2  O   H1  H2  O   H1  H2  O   H1  H2  O   H1  H2  O   
H1  H2  O   H1  H2  O   H1  H2  O   H1  H2  O   H1  H2  O   H1  H2  O   H1  H2  
O   H1  H2  O   H1  H2  O   H1  H2  O   H1  H2  O   H1  H2  O   H1  H2  O   H1  
H2  O   H1  H2  O   H1  H2  O   H1  H2  O   H1  H2  O   H1  H2  O   H1  H2  O   
H1  H2  O   H1  H2  O   H1  H2  O   H1  H2  O   H1  H2  O   H1  H2  O   H1  H2  
O   H1  H2  O   H1  H2  O   H1  H2  O   H1  H2  O   H1  H2  O   H1  H2  O   H1  
H2  O   H1  H2  O   H1  H2  O   H1  H2  O   H1  H2  O   H1  H2  O   H1  H2  O   
H1  H2  O   H1  H2  O   H1  H2  O   H1  H2  O   H1  H2  O   H1  H2  O   H1  H2  
O   H1  H2  O   H1  H2  O   H1  H2  O   H1  H2  O   H1  H2  O   H1  H2  O   H1  
H2  O   H1  H2  O   H1  H2  O   H1  H2  O   H1  H2  O   H1  H2  O   H1  H2  O   
H1  H2  O   H1  H2  O   H1  H2  O   H1  H2  O   H1  H2  O   H1  H2  O   H1  H2  
O   H1  H2  O   H1  H2  O   H1  H2  O   H1  H2  O   H1  H2  O   H1  H2  O   H1  
H2  O   H1  H2  O   H1  H2  O   H1  H2  O   H1  H2  O   H1  H2  O   H1  H2  O   
H1  H2  O   H1  H2  O   H1  H2  O   H1  H2  O   H1  H2  O   H1  H2  O   H1  H2  
O   H1  H2  O   H1  H2  O   H1  H2  O   H1  H2  O   H1  H2  O   H1  H2  O   H1  
H2  O   H1  H2  O   H1  H2  O   H1  H2  O   H1  H2  O   H1  H2  O   H1  H2  O   
H1  H2  O   H1  H2  O   H1  H2  O   H1  H2  O   H1  H2  O   H1  H2  O   H1  H2  
O   H1  H2  O   H1  H2  O   H1  H2  O   H1  H2  O   H1  H2  O   H1  H2  O   H1  
H2  O   H1  H2  O   H1  H2  O   H1  H2  O   H1  H2  O   H1  H2  O   H1  H2  O   
H1  H2  O   H1  H2  O   H1  H2  O   H1  H2  O   H1  H2  O   H1  H2  O   H1  H2  
O   H1  H2  O   H1  H2  O   H1  H2  O   H1  H2  O   H1  H2  O   H1  H2  O   H1  
H2  O   H1  H2  O   H1  H2  O   H1  H2  O   H1  H2  O   H1  H2  O   H1  H2  O   
H1  H2  O   H1  H2  O   H1  H2  O   H1  H2  O   H1  H2  O   H1  H2  O   H1  H2  
O   H1  H2  O   H1  H2  O   H1  H2  O   H1  H2  O   H1  H2  O   H1  H2  O   H1  
H2  O   H1  H2  O   H1  H2  O   H1  H2  O   H1  H2  O   H1  H2  O   H1  H2  O   
H1  H2  O   H1  H2  O   H1  H2  O   H1  H2  O   H1  H2  O   H1  H2  O   H1  H2  
O   H1  H2  O   H1  H2  O   H1  H2  O   H1  H2  O   H1  H2  O   H1  H2  O   H1  
H2  O   H1  H2  O   H1  H2  O   H1  H2  O   H1  H2  O   H1  H2  O   H1  H2  O   
H1  H2  O   H1  H2  O   H1  H2  O   H1  H2  O   H1  H2  O   H1  H2  O   H1  H2  
O   H1  H2  O   H1  H2  O   H1  H2  O   H1  H2  O   H1  H2  O   H1  H2  O   H1  
H2  O   H1  H2  O   H1  H2  O   H1  H2  O   H1  H2  O   H1  H2  O   H1  H2  O   
H1  H2  O   H1  H2  O   H1  H2  O   H1  H2  O   H1  H2  O   H1  H2  O   H1  H2  
O   H1  H2  O   H1  H2  O   H1  H2  O   H1  H2  O   H1  H2  O   H1  H2  O   H1  
H2  O   H1  H2  O   H1  H2  O   H1  H2  O   H1  H2  O   H1  H2  O   H1  H2  O   
H1  H2  O   H1  H2  O   H1  H2  O   H1  H2  O   H1  H2  O   H1  H2  O   H1  H2  
O   H1  H2  O   H1  H2  O   H1  H2  O   H1  H2  O   H1  H2  O   H1  H2  O   H1  
H2  O   H1  H2  O   H1  H2  O   H1  H2  O   H1  H2  O   H1  H2  O   H1  H2  O   
H1  H2  O   H1  H2  O   H1  H2  O   H1  H2  O   H1  H2  O   H1  H2  O   H1  H2  
O   H1  H2  O   H1  H2  O   H1  H2  O   H1  H2  O   H1  H2  O   H1  H2  O   H1  
H2  O   H1  H2  O   H1  H2  O   H1  H2  O   H1  H2  O   H1  H2  O   H1  H2  O   
H1  H2  O   H1  H2  O   H1  H2  O   H1  H2  O   H1  H2  O   H1  H2  O   H1  H2  
O   H1  H2  O   H1  H2  O   H1  H2  O   H1  H2  O   H1  H2  O   H1  H2  O   H1  
H2  O   H1  H2  O   H1  H2  O   H1  H2  O   H1  H2  O   H1  H2  O   H1  H2  O   
H1  H2  O   H1  H2  O   H1  H2  O   H1  H2  O   H1  H2  O   H1  H2  O   H1  H2  
O   H1  H2  O   H1  H2  O   H1  H2  O   H1  H2  O   H1  H2  O   H1  H2  O   H1  
H2  O   H1  H2  O   H1  H2  O   H1  H2  O   H1  H2  O   H1  H2  O   H1  H2  O   
H1  H2  O   H1  H2  O   H1  H2  O   H1  H2  O   H1  H2  O   H1  H2  O   H1  H2  
O   H1  H2  O   H1  H2  O   H1  H2  O   H1  H2  O   H1  H2  O   H1  H2  O   H1  
H2  O   H1  H2  O   H1  H2  O   H1  H2  O   H1  H2  O   H1  H2  O   H1  H2  O   
H1  H2  O   H1  H2  O   H1  H2  O   H1  H2  O   H1  H2  O   H1  H2  O   H1  H2  
O   H1  H2  O   H1  H2  O   H1  H2  O   H1  H2  O   H1  H2  O   H1  H2  O   H1  
H2  O   H1  H2  O   H1  H2  O   H1  H2  O   H1  H2  O   H1  H2  O   H1  H2  O   
H1  H2  O   H1  H2  O   H1  H2  O   H1  H2  O   H1  H2  O   H1  H2  O   H1  H2  
O   H1  H2  O   H1  H2  O   H1  H2  O   H1  H2  O   H1  H2  O   H1  H2  O   H1  
H2  O   H1  H2  O   H1  H2  O   H1  H2  O   H1  H2  O   H1  H2  O   H1  H2  O   
H1  H2  O   H1  H2  O   H1  H2  O   H1  H2  O   H1  H2  O   H1  H2  O   H1  H2  
O   H1  H2  O   H1  H2  O   H1  H2  O   H1  H2  O   H1  H2  O   H1  H2  O   H1  
H2  O   H1  H2  O   H1  H2  O   H1  H2  O   H1  H2  O   H1  H2  O   H1  H2  O   
H1  H2  O   H1  H2  O   H1  H2  O   H1  H2  O   H1  H2  O   H1  H2  O   H1  H2  
O   H1  H2  O   H1  H2  O   H1  H2  O   H1  H2  O   H1  H2  O   H1  H2  O   H1  
H2  O   H1  H2  O   H1  H2  O   H1  H2  O   H1  H2  O   H1  H2  O   H1  H2  O   
H1  H2  O   H1  H2  O   H1  H2  O   H1  H2  O   H1  H2  O   H1  H2  O   H1  H2  
O   H1  H2  O   H1  H2  O   H1  H2  O   H1  H2  O   H1  H2  O   H1  H2  O   H1  
H2  O   H1  H2  O   H1  H2  O   H1  H2  O   H1  H2  O   H1  H2  O   H1  H2  O   
H1  H2  O   H1  H2  O   H1  H2  O   H1  H2  O   H1  H2  O   H1  H2  O   H1  H2  
O   H1  H2  O   H1  H2  O   H1  H2  O   H1  H2  O   H1  H2  O   H1  H2  O   H1  
H2  O   H1  H2  O   H1  H2  O   H1  H2  O   H1  H2  O   H1  H2  O   H1  H2  O   
H1  H2  O   H1  H2  O   H1  H2  O   H1  H2  O   H1  H2  O   H1  H2  O   H1  H2  
O   H1  H2  O   H1  H2  O   H1  H2  O   H1  H2  O   H1  H2  O   H1  H2  O   H1  
H2  O   H1  H2  O   H1  H2  O   H1  H2  O   H1  H2  O   H1  H2  O   H1  H2  O   
H1  H2  O   H1  H2  O   H1  H2  O   H1  H2  O   H1  H2  O   H1  H2  O   H1  H2  
O   H1  H2  O   H1  H2  O   H1  H2  O   H1  H2  O   H1  H2  O   H1  H2  O   H1  
H2  O   H1  H2  O   H1  H2  O   H1  H2  O   H1  H2  O   H1  H2  O   H1  H2  O   
H1  H2  O   H1  H2  O   H1  H2  O   H1  H2  O   H1  H2  O   H1  H2  O   H1  H2  
O   H1  H2  O   H1  H2  O   H1  H2  O   H1  H2  O   H1  H2  O   H1  H2  O   H1  
H2  O   H1  H2  O   H1  H2  O   H1  H2  O   H1  H2  O   H1  H2  O   H1  H2  O   
H1  H2  O   H1  H2  O   H1  H2  O   H1  H2  O   H1  H2  O   H1  H2  O   H1  H2  
O   H1  H2  O   H1  H2  O   H1  H2  O   H1  H2  O   H1  H2  O   H1  H2  O   H1  
H2  O   H1  H2  O   H1  H2  O   H1  H2  O   H1  H2  O   H1  H2  O   H1  H2  O   
H1  H2  O   H1  H2  O   H1  H2  O   H1  H2  O   H1  H2  O   H1  H2  O   H1  H2  
O   H1  H2  O   H1  H2  O   H1  H2  O   H1  H2  O   H1  H2  O   H1  H2  O   H1  
H2  O   H1  H2  O   H1  H2  O   H1  H2  O   H1  H2  O   H1  H2  O   H1  H2  O   
H1  H2  O   H1  H2  O   H1  H2  O   H1  H2  O   H1  H2  O   H1  H2  O   H1  H2  
O   H1  H2  O   H1  H2  O   H1  H2  O   H1  H2  O   H1  H2  O   H1  H2  O   H1  
H2  O   H1  H2  O   H1  H2  O   H1  H2  O   H1  H2  O   H1  H2  O   H1  H2  O   
H1  H2  O   H1  H2  O   H1  H2  O   H1  H2  O   H1  H2  O   H1  H2  O   H1  H2  
O   H1  H2  O   H1  H2  O   H1  H2  O   H1  H2  O   H1  H2  O   H1  H2  O   H1  
H2  O   H1  H2  O   H1  H2  O   H1  H2  O   H1  H2  O   H1  H2  O   H1  H2  O   
H1  H2  O   H1  H2  O   H1  H2  O   H1  H2  O   H1  H2  O   H1  H2  O   H1  H2  
O   H1  H2  O   H1  H2  O   H1  H2  O   H1  H2  O   H1  H2  O   H1  H2  O   H1  
H2  O   H1  H2  O   H1  H2  O   H1  H2  O   H1  H2  O   H1  H2  O   H1  H2  O   
H1  H2  O   H1  H2  O   H1  H2  O   H1  H2  O   H1  H2  O   H1  H2  O   H1  H2  
O   H1  H2  O   H1  H2  O   H1  H2  O   H1  H2  O   H1  H2  O   H1  H2  O   H1  
H2  O   H1  H2  O   H1  H2  O   H1  H2  O   H1  H2  O   H1  H2  O   H1  H2  O   
H1  H2  O   H1  H2  O   H1  H2  O   H1  H2  O   H1  H2  O   H1  H2  O   H1  H2  
O   H1  H2  O   H1  H2  O   H1  H2  O   H1  H2  O   H1  H2  O   H1  H2  O   H1  
H2  O   H1  H2  O   H1  H2  O   H1  H2  O   H1  H2  O   H1  H2  O   H1  H2  O   
H1  H2  O   H1  H2  O   H1  H2  O   H1  H2  O   H1  H2  O   H1  H2  O   H1  H2  
O   H1  H2  O   H1  H2  O   H1  H2  O   H1  H2  O   H1  H2  O   H1  H2  O   H1  
H2  O   H1  H2  O   H1  H2  O   H1  H2  O   H1  H2  O   H1  H2  O   H1  H2  O   
H1  H2  O   H1  H2  O   H1  H2  O   H1  H2  O   H1  H2  O   H1  H2  O   H1  H2  
O   H1  H2  O   H1  H2  O   H1  H2  O   H1  H2  O   H1  H2  O   H1  H2  O   H1  
H2  O   H1  H2  O   H1  H2  O   H1  H2  O   H1  H2  O   H1  H2  O   H1  H2  O   
H1  H2  O   H1  H2  O   H1  H2  O   H1  H2  O   H1  H2  O   H1  H2  O   H1  H2  
O   H1  H2  O   H1  H2  O   H1  H2  O   H1  H2  O   H1  H2  O   H1  H2  O   H1  
H2  O   H1  H2  O   H1  H2  O   H1  H2  O   H1  H2  O   H1  H2  O   H1  H2  O   
H1  H2  O   H1  H2  O   H1  H2  O   H1  H2  O   H1  H2  O   H1  H2  O   H1  H2  
O   H1  H2  O   H1  H2  O   H1  H2  O   H1  H2  O   H1  H2  O   H1  H2  O   H1  
H2  O   H1  H2  O   H1  H2  O   H1  H2  O   H1  H2  O   H1  H2  O   H1  H2  O   
H1  H2  O   H1  H2  O   H1  H2  O   H1  H2  O   H1  H2  O   H1  H2  O   H1  H2  
O   H1  H2  O   H1  H2  O   H1  H2  O   H1  H2  O   H1  H2  O   H1  H2  O   H1  
H2  O   H1  H2  O   H1  H2  O   H1  H2  O   H1  H2  O   H1  H2  O   H1  H2  O   
H1  H2  O   H1  H2  O   H1  H2  O   H1  H2  O   H1  H2  O   H1  H2  O   H1  H2  
O   H1  H2  O   H1  H2  O   H1  H2  O   H1  H2  O   H1  H2  O   H1  H2  O   H1  
H2  O   H1  H2  O   H1  H2  O   H1  H2  O   H1  H2  O   H1  H2  O   H1  H2  O   
H1  H2  O   H1  H2  O   H1  H2  O   H1  H2  O   H1  H2  O   H1  H2  O   H1  H2  
O   H1  H2  O   H1  H2  O   H1  H2  O   H1  H2  O   H1  H2  O   H1  H2  O   H1  
H2  O   H1  H2  O   H1  H2  O   H1  H2  O   H1  H2  O   H1  H2  O   H1  H2  O   
H1  H2  O   H1  H2  O   H1  H2  O   H1  H2  O   H1  H2  O   H1  H2  O   H1  H2  
O   H1  H2  O   H1  H2  O   H1  H2  O   H1  H2  O   H1  H2  O   H1  H2  O   H1  
H2  O   H1  H2  O   H1  H2  O   H1  H2  O   H1  H2  O   H1  H2  O   H1  H2  O   
H1  H2  O   H1  H2  O   H1  H2  O   H1  H2  O   H1  H2  O   H1  H2  O   H1  H2  
O   H1  H2  O   H1  H2  O   H1  H2  O   H1  H2  O   H1  H2  O   H1  H2  O   H1  
H2  O   H1  H2  O   H1  H2  O   H1  H2  O   H1  H2  O   H1  H2  O   H1  H2  O   
H1  H2  O   H1  H2  O   H1  H2  O   H1  H2  O   H1  H2  O   H1  H2  O   H1  H2  
O   H1  H2  O   H1  H2  O   H1  H2  O   H1  H2  O   H1  H2  O   H1  H2  O   H1  
H2  O   H1  H2  O   H1  H2  O   H1  H2  O   H1  H2  O   H1  H2  O   H1  H2  O   
H1  H2  O   H1  H2  O   H1  H2  O   H1  H2  O   H1  H2  O   H1  H2  O   H1  H2  
O   H1  H2  O   H1  H2  O   H1  H2  O   H1  H2  O   H1  H2  O   H1  H2  O   H1  
H2  O   H1  H2  O   H1  H2  O   H1  H2  O   H1  H2  O   H1  H2  O   H1  H2  O   
H1  H2  O   H1  H2  O   H1  H2  O   H1  H2  O   H1  H2  O   H1  H2  O   H1  H2  
O   H1  H2  O   H1  H2  O   H1  H2  O   H1  H2  O   H1  H2  O   H1  H2  O   H1  
H2  O   H1  H2  O   H1  H2  O   H1  H2  O   H1  H2  O   H1  H2  O   H1  H2  O   
H1  H2  O   H1  H2  O   H1  H2  O   H1  H2  O   H1  H2  O   H1  H2  O   H1  H2  
O   H1  H2  O   H1  H2  O   H1  H2  O   H1  H2  O   H1  H2  O   H1  H2  O   H1  
H2  O   H1  H2  O   H1  H2  O   H1  H2  O   H1  H2  O   H1  H2  O   H1  H2  O   
H1  H2  O   H1  H2  O   H1  H2  O   H1  H2  O   H1  H2  O   H1  H2  O   H1  H2  
O   H1  H2  O   H1  H2  O   H1  H2  O   H1  H2  O   H1  H2  O   H1  H2  O   H1  
H2  O   H1  H2  O   H1  H2  O   H1  H2  O   H1  H2  O   H1  H2  O   H1  H2  O   
H1  H2  O   H1  H2  O   H1  H2  O   H1  H2  O   H1  H2  O   H1  H2  O   H1  H2  
O   H1  H2  O   H1  H2  O   H1  H2  O   H1  H2  O   H1  H2  O   H1  H2  O   H1  
H2  O   H1  H2  O   H1  H2  O   H1  H2  O   H1  H2  O   H1  H2  O   H1  H2  O   
H1  H2  O   H1  H2  O   H1  H2  O   H1  H2  O   H1  H2  O   H1  H2  O   H1  H2  
O   H1  H2  O   H1  H2  O   H1  H2  O   H1  H2  O   H1  H2  O   H1  H2  O   H1  
H2  O   H1  H2  O   H1  H2  O   H1  H2  O   H1  H2  O   H1  H2  O   H1  H2  O   
H1  H2  O   H1  H2  O   H1  H2  O   H1  H2  O   H1  H2  O   H1  H2  O   H1  H2  
O   H1  H2  O   H1  H2  O   H1  H2  O   H1  H2  O   H1  H2  O   H1  H2  O   H1  
H2  O   H1  H2  O   H1  H2  O   H1  H2  O   H1  H2  O   H1  H2  O   H1  H2  O   
H1  H2  O   H1  H2  O   H1  H2  O   H1  H2  O   H1  H2  O   H1  H2  O   H1  H2  
O   H1  H2  O   H1  H2  O   H1  H2  O   H1  H2  O   H1  H2  O   H1  H2  O   H1  
H2  O   H1  H2  O   H1  H2  O   H1  H2  O   H1  H2  O   H1  H2  O   H1  H2  O   
H1  H2  O   H1  H2  O   H1  H2  O   H1  H2  O   H1  H2  O   H1  H2  O   H1  H2  
O   H1  H2  O   H1  H2  O   H1  H2  O   H1  H2  O   H1  H2  O   H1  H2  O   H1  
H2  O   H1  H2  O   H1  H2  O   H1  H2  O   H1  H2  O   H1  H2  O   H1  H2  O   
H1  H2  O   H1  H2  O   H1  H2  O   H1  H2  O   H1  H2  O   H1  H2  O   H1  H2  
O   H1  H2  O   H1  H2  O   H1  H2  O   H1  H2  O   H1  H2  O   H1  H2  O   H1  
H2  O   H1  H2  O   H1  H2  O   H1  H2  O   H1  H2  O   H1  H2  O   H1  H2  O   
H1  H2  O   H1  H2  O   H1  H2  O   H1  H2  O   H1  H2  O   H1  H2  O   H1  H2  
O   H1  H2  O   H1  H2  O   H1  H2  O   H1  H2  O   H1  H2  O   H1  H2  O   H1  
H2  O   H1  H2  O   H1  H2  O   H1  H2  O   H1  H2  O   H1  H2  O   H1  H2  O   
H1  H2  O   H1  H2  O   H1  H2  O   H1  H2  O   H1  H2  O   H1  H2  O   H1  H2  
O   H1  H2  O   H1  H2  O   H1  H2  O   H1  H2  O   H1  H2  O   H1  H2  O   H1  
H2  O   H1  H2  O   H1  H2  O   H1  H2  O   H1  H2  O   H1  H2  O   H1  H2  O   
H1  H2  O   H1  H2  O   H1  H2  O   H1  H2  O   H1  H2  O   H1  H2  O   H1  H2  
O   H1  H2  O   H1  H2  O   H1  H2  O   H1  H2  O   H1  H2  O   H1  H2  O   H1  
H2  O   H1  H2  O   H1  H2  O   H1  H2  O   H1  H2  O   H1  H2  O   H1  H2  O   
H1  H2  O   H1  H2  O   H1  H2  O   H1  H2  O   H1  H2  O   H1  H2  O   H1  H2  
O   H1  H2  O   H1  H2  O   H1  H2  O   H1  H2  O   H1  H2  O   H1  H2  O   H1  
H2  O   H1  H2  O   H1  H2  O   H1  H2  O   H1  H2  O   H1  H2  O   H1  H2  O   
H1  H2  O   H1  H2  O   H1  H2  O   H1  H2  O   H1  H2  O   H1  H2  O   H1  H2  
O   H1  H2  O   H1  H2  O   H1  H2  O   H1  H2  O   H1  H2  O   H1  H2  O   H1  
H2  O   H1  H2  O   H1  H2  O   H1  H2  O   H1  H2  O   H1  H2  O   H1  H2  O   
H1  H2  O   H1  H2  O   H1  H2  O   H1  H2  O   H1  H2  O   H1  H2  O   H1  H2  
O   H1  H2  O   H1  H2  O   H1  H2  O   H1  H2  O   H1  H2  O   H1  H2  O   H1  
H2  O   H1  H2  O   H1  H2  O   H1  H2  O   H1  H2  O   H1  H2  O   H1  H2  O   
H1  H2  O   H1  H2  O   H1  H2  O   H1  H2  O   H1  H2  O   H1  H2  O   H1  H2  
O   H1  H2  O   H1  H2  O   H1  H2  O   H1  H2  O   H1  H2  O   H1  H2  O   H1  
H2  O   H1  H2  O   H1  H2  O   H1  H2  O   H1  H2  O   H1  H2  O   H1  H2  O   
H1  H2  O   H1  H2  O   H1  H2  O   H1  H2  O   H1  H2  O   H1  H2  O   H1  H2  
O   H1  H2  O   H1  H2  O   H1  H2  O   H1  H2  O   H1  H2  O   H1  H2  O   H1  
H2  O   H1  H2  O   H1  H2  O   H1  H2  O   H1  H2  O   H1  H2  O   H1  H2  O   
H1  H2  O   H1  H2  O   H1  H2  O   H1  H2  O   H1  H2  O   H1  H2  O   H1  H2  
O   H1  H2  O   H1  H2  O   H1  H2  O   H1  H2  O   H1  H2  O   H1  H2  O   H1  
H2  O   H1  H2  O   H1  H2  O   H1  H2  O   H1  H2  O   H1  H2  O   H1  H2  O   
H1  H2  O   H1  H2  O   H1  H2  O   H1  H2  O   H1  H2  O   H1  H2  O   H1  H2  
O   H1  H2  O   H1  H2  O   H1  H2  O   H1  H2  O   H1  H2  O   H1  H2  O   H1  
H2  O   H1  H2  O   H1  H2  O   H1  H2  O   H1  H2  O   H1  H2  O   H1  H2  O   
H1  H2  O   H1  H2  O   H1  H2  O   H1  H2  O   H1  H2  O   H1  H2  O   H1  H2  
O   H1  H2  O   H1  H2  O   H1  H2  O   H1  H2  O   H1  H2  O   H1  H2  O   H1  
H2  O   H1  H2  O   H1  H2  O   H1  H2  O   H1  H2  O   H1  H2  O   H1  H2  O   
H1  H2  O   H1  H2  O   H1  H2  O   H1  H2  O   H1  H2  O   H1  H2  O   H1  H2  
O   H1  H2  O   H1  H2  O   H1  H2  O   H1  H2  O   H1  H2  O   H1  H2  O   H1  
H2  O   H1  H2  O   H1  H2  O   H1  H2  O   H1  H2  O   H1  H2  O   H1  H2  O   
H1  H2  O   H1  H2  O   H1  H2  O   H1  H2  O   H1  H2  O   H1  H2  O   H1  H2  
O   H1  H2  O   H1  H2  O   H1  H2  O   H1  H2  O   H1  H2  O   H1  H2  O   H1  
H2  O   H1  H2  O   H1  H2  O   H1  H2  O   H1  H2  O   H1  H2  O   H1  H2  O   
H1  H2  O   H1  H2  O   H1  H2  O   H1  H2  O   H1  H2  O   H1  H2  O   H1  H2  
O   H1  H2  O   H1  H2  O   H1  H2  O   H1  H2  O   H1  H2  O   H1  H2  O   H1  
H2  O   H1  H2  O   H1  H2  O   H1  H2  O   H1  H2  O   H1  H2  O   H1  H2  O   
H1  H2  O   H1  H2  O   H1  H2  O   H1  H2  O   H1  H2  O   H1  H2  O   H1  H2  
O   H1  H2  O   H1  H2  O   H1  H2  O   H1  H2  O   H1  H2  O   H1  H2  O   H1  
H2  O   H1  H2  O   H1  H2  O   H1  H2  O   H1  H2  O   H1  H2  O   H1  H2  O   
H1  H2  O   H1  H2  O   H1  H2  O   H1  H2  O   H1  H2  O   H1  H2  O   H1  H2  
O   H1  H2  O   H1  H2  O   H1  H2  O   H1  H2  O   H1  H2  O   H1  H2  O   H1  
H2  O   H1  H2  O   H1  H2  O   H1  H2  O   H1  H2  O   H1  H2  O   H1  H2  O   
H1  H2  O   H1  H2  O   H1  H2  O   H1  H2  O   H1  H2  O   H1  H2  O   H1  H2  
O   H1  H2  O   H1  H2  O   H1  H2  O   H1  H2  O   H1  H2  O   H1  H2  O   H1  
H2  O   H1  H2  O   H1  H2  O   H1  H2  O   H1  H2  O   H1  H2  O   H1  H2  O   
H1  H2  O   H1  H2  O   H1  H2  O   H1  H2  O   H1  H2  O   H1  H2  O   H1  H2  
O   H1  H2  O   H1  H2  O   H1  H2  O   H1  H2  O   H1  H2  O   H1  H2  O   H1  
H2  O   H1  H2  O   H1  H2  O   H1  H2  O   H1  H2  O   H1  H2  O   H1  H2  O   
H1  H2  O   H1  H2  O   H1  H2  O   H1  H2  O   H1  H2  O   H1  H2  O   H1  H2  
O   H1  H2  O   H1  H2  O   H1  H2  O   H1  H2  O   H1  H2  O   H1  H2  O   H1  
H2  O   H1  H2  O   H1  H2  O   H1  H2  O   H1  H2  O   H1  H2  O   H1  H2  O   
H1  H2  O   H1  H2  O   H1  H2  O   H1  H2  O   H1  H2  O   H1  H2  O   H1  H2  
O   H1  H2  O   H1  H2  O   H1  H2  O   H1  H2  O   H1  H2  O   H1  H2  O   H1  
H2  O   H1  H2  O   H1  H2  O   H1  H2  O   H1  H2  O   H1  H2  O   H1  H2  O   
H1  H2  O   H1  H2  O   H1  H2  O   H1  H2  O   H1  H2  O   H1  H2  O   H1  H2  
O   H1  H2  O   H1  H2  O   H1  H2  O   H1  H2  O   H1  H2  O   H1  H2  O   H1  
H2  O   H1  H2  O   H1  H2  O   H1  H2  O   H1  H2  O   H1  H2  O   H1  H2  O   
H1  H2  O   H1  H2  O   H1  H2  O   H1  H2  O   H1  H2  O   H1  H2  O   H1  H2  
O   H1  H2  O   H1  H2  O   H1  H2  O   H1  H2  O   H1  H2  O   H1  H2  O   H1  
H2  O   H1  H2  O   H1  H2  O   H1  H2  O   H1  H2  O   H1  H2  O   H1  H2  O   
H1  H2  O   H1  H2  O   H1  H2  O   H1  H2  O   H1  H2  O   H1  H2  O   H1  H2  
O   H1  H2  O   H1  H2  O   H1  H2  O   H1  H2  O   H1  H2  O   H1  H2  O   H1  
H2  O   H1  H2  O   H1  H2  O   H1  H2  O   H1  H2  O   H1  H2  O   H1  H2  O   
H1  H2  O   H1  H2  O   H1  H2  O   H1  H2  O   H1  H2  O   H1  H2  O   H1  H2  
O   H1  H2  O   H1  H2  O   H1  H2  O   H1  H2  O   H1  H2  O   H1  H2  O   H1  
H2  O   H1  H2  O   H1  H2  O   H1  H2  O   H1  H2  O   H1  H2  O   H1  H2  O   
H1  H2  O   H1  H2  O   H1  H2  O   H1  H2  O   H1  H2  O   H1  H2  O   H1  H2  
O   H1  H2  O   H1  H2  O   H1  H2  O   H1  H2  O   H1  H2  O   H1  H2  O   H1  
H2  O   H1  H2  O   H1  H2  O   H1  H2  O   H1  H2  O   H1  H2  O   H1  H2  O   
H1  H2  O   H1  H2  O   H1  H2  O   H1  H2  O   H1  H2  O   H1  H2  O   H1  H2  
O   H1  H2  O   H1  H2  O   H1  H2  O   H1  H2  O   H1  H2  O   H1  H2  O   H1  
H2  O   H1  H2  O   H1  H2  O   H1  H2  O   H1  H2  O   H1  H2  O   H1  H2  O   
H1  H2  O   H1  H2  O   H1  H2  O   H1  H2  O   H1  H2  O   H1  H2  O   H1  H2  
O   H1  H2  O   H1  H2  O   H1  H2  O   H1  H2  O   H1  H2  O   H1  H2  O   H1  
H2  O   H1  H2  O   H1  H2  O   H1  H2  O   H1  H2  O   H1  H2  O   H1  H2  O   
H1  H2  O   H1  H2  O   H1  H2  O   H1  H2  O   H1  H2  O   H1  H2  O   H1  H2  
O   H1  H2  O   H1  H2  O   H1  H2  O   H1  H2  O   H1  H2  O   H1  H2  O   H1  
H2  O   H1  H2  O   H1  H2  O   H1  H2  O   H1  H2  O   H1  H2  O   H1  H2  O   
H1  H2  O   H1  H2  O   H1  H2  O   H1  H2  O   H1  H2  O   H1  H2  O   H1  H2  
O   H1  H2  O   H1  H2  O   H1  H2  O   H1  H2  O   H1  H2  O   H1  H2  O   H1  
H2  O   H1  H2  O   H1  H2  O   H1  H2  O   H1  H2  O   H1  H2  O   H1  H2  O   
H1  H2  O   H1  H2  O   H1  H2  O   H1  H2  O   H1  H2  O   H1  H2  O   H1  H2  
O   H1  H2  O   H1  H2  O   H1  H2  O   H1  H2  O   H1  H2  O   H1  H2  O   H1  
H2  O   H1  H2  O   H1  H2  O   H1  H2  O   H1  H2  O   H1  H2  O   H1  H2  O   
H1  H2  O   H1  H2  O   H1  H2  O   H1  H2  O   H1  H2  O   H1  H2  O   H1  H2  
O   H1  H2  O   H1  H2  O   H1  H2  O   H1  H2  O   H1  H2  O   H1  H2  O   H1  
H2  O   H1  H2  O   H1  H2  O   H1  H2  O   H1  H2  O   H1  H2  O   H1  H2  O   
H1  H2  O   H1  H2  O   H1  H2  O   H1  H2  O   H1  H2  O   H1  H2  O   H1  H2  
O   H1  H2  O   H1  H2  O   H1  H2  O   H1  H2  O   H1  H2  O   H1  H2  O   H1  
H2  O   H1  H2  O   H1  H2  O   H1  H2  O   H1  H2  O   H1  H2  O   H1  H2  O   
H1  H2  O   H1  H2  O   H1  H2  O   H1  H2  O   H1  H2  O   H1  H2  O   H1  H2  
O   H1  H2  O   H1  H2  O   H1  H2  O   H1  H2  O   H1  H2  O   H1  H2  O   H1  
H2  O   H1  H2  O   H1  H2  O   H1  H2  O   H1  H2  O   H1  H2  O   H1  H2  O   
H1  H2  O   H1  H2  O   H1  H2  O   H1  H2  O   H1  H2  O   H1  H2  O   H1  H2  
O   H1  H2  O   H1  H2  O   H1  H2  O   H1  H2  O   H1  H2  O   H1  H2  O   H1  
H2  O   H1  H2  O   H1  H2  O   H1  H2  O   H1  H2  O   H1  H2  O   H1  H2  O   
H1  H2  O   H1  H2  O   H1  H2  O   H1  H2  O   H1  H2  O   H1  H2  O   H1  H2  
O   H1  H2  O   H1  H2  O   H1  H2  O   H1  H2  O   H1  H2  O   H1  H2  O   H1  
H2  O   H1  H2  O   H1  H2  O   H1  H2  O   H1  H2  O   H1  H2  O   H1  H2  O   
H1  H2  O   H1  H2  O   H1  H2  O   H1  H2  O   H1  H2  O   H1  H2  O   H1  H2  
O   H1  H2  O   H1  H2  O   H1  H2  O   H1  H2  O   H1  H2  O   H1  H2  O   H1  
H2  O   H1  H2  O   H1  H2  O   H1  H2  O   H1  H2  O   H1  H2  O   H1  H2  O   
H1  H2  O   H1  H2  O   H1  H2  O   H1  H2  O   H1  H2  O   H1  H2  O   H1  H2  
O   H1  H2  O   H1  H2  O   H1  H2  O   H1  H2  O   H1  H2  O   H1  H2  O   H1  
H2  O   H1  H2  O   H1  H2  O   H1  H2  O   H1  H2  O   H1  H2  O   H1  H2  O   
H1  H2  O   H1  H2  O   H1  H2  O   H1  H2  O   H1  H2  O   H1  H2  O   H1  H2  
O   H1  H2  O   H1  H2  O   H1  H2  O   H1  H2  O   H1  H2  O   H1  H2  O   H1  
H2  O   H1  H2  O   H1  H2  O   H1  H2  O   H1  H2  O   H1  H2  O   H1  H2  O   
H1  H2  O   H1  H2  O   H1  H2  O   H1  H2  O   H1  H2  O   H1  H2  O   H1  H2  
O   H1  H2  O   H1  H2  O   H1  H2  O   H1  H2  O   H1  H2  O   H1  H2  O   H1  
H2  O   H1  H2  O   H1  H2  O   H1  H2  O   H1  H2  O   H1  H2  O   H1  H2  O   
H1  H2  O   H1  H2  O   H1  H2  O   H1  H2  O   H1  H2  O   H1  H2  O   H1  H2  
O   H1  H2  O   H1  H2  O   H1  H2  O   H1  H2  O   H1  H2  O   H1  H2  O   H1  
H2  O   H1  H2  O   H1  H2  O   H1  H2  O   H1  H2  O   H1  H2  O   H1  H2  O   
H1  H2  O   H1  H2  O   H1  H2  O   H1  H2  O   H1  H2  O   H1  H2  O   H1  H2  
O   H1  H2  O   H1  H2  O   H1  H2  O   H1  H2  O   H1  H2  O   H1  H2  O   H1  
H2  O   H1  H2  O   H1  H2  O   H1  H2  O   H1  H2  O   H1  H2  O   H1  H2  O   
H1  H2  O   H1  H2  O   H1  H2  O   H1  H2  O   H1  H2  O   H1  H2  O   H1  H2  
O   H1  H2  O   H1  H2  O   H1  H2  O   H1  H2  O   H1  H2  O   H1  H2  O   H1  
H2  O   H1  H2  O   H1  H2  O   H1  H2  O   H1  H2  O   H1  H2  O   H1  H2  O   
H1  H2  O   H1  H2  O   H1  H2  O   H1  H2  O   H1  H2  O   H1  H2  O   H1  H2  
O   H1  H2  O   H1  H2  O   H1  H2  O   H1  H2  O   H1  H2  O   H1  H2  O   H1  
H2  O   H1  H2  O   H1  H2  O   H1  H2  O   H1  H2  O   H1  H2  O   H1  H2  O   
H1  H2  O   H1  H2  O   H1  H2  O   H1  H2  O   H1  H2  O   H1  H2  O   H1  H2  
O   H1  H2  O   H1  H2  O   H1  H2  O   H1  H2  O   H1  H2  O   H1  H2  O   H1  
H2  O   H1  H2  O   H1  H2  O   H1  H2  O   H1  H2  O   H1  H2  O   H1  H2  O   
H1  H2  O   H1  H2  O   H1  H2  O   H1  H2  O   H1  H2  O   H1  H2  O   H1  H2  
O   H1  H2  O   H1  H2  O   H1  H2  O   H1  H2  O   H1  H2  O   H1  H2  O   H1  
H2  O   H1  H2  O   H1  H2  O   H1  H2  O   H1  H2  O   H1  H2  O   H1  H2  O   
H1  H2  O   H1  H2  O   H1  H2  O   H1  H2  O   H1  H2  O   H1  H2  O   H1  H2  
O   H1  H2  O   H1  H2  O   H1  H2  O   H1  H2  O   H1  H2  O   H1  H2  O   H1  
H2  O   H1  H2  O   H1  H2  O   H1  H2  O   H1  H2  O   H1  H2  O   H1  H2  O   
H1  H2  O   H1  H2  O   H1  H2  O   H1  H2  O   H1  H2  O   H1  H2  O   H1  H2  
O   H1  H2  O   H1  H2  O   H1  H2  O   H1  H2  O   H1  H2  O   H1  H2  O   H1  
H2  O   H1  H2  O   H1  H2  O   H1  H2  O   H1  H2  O   H1  H2  O   H1  H2  O   
H1  H2  O   H1  H2  O   H1  H2  O   H1  H2  O   H1  H2  O   H1  H2  O   H1  H2  
O   H1  H2  O   H1  H2  O   H1  H2  O   H1  H2  O   H1  H2  O   H1  H2  O   H1  
H2  O   H1  H2  O   H1  H2  O   H1  H2  O   H1  H2  O   H1  H2  O   H1  H2  O   
H1  H2  O   H1  H2  O   H1  H2  O   H1  H2  O   H1  H2  O   H1  H2  O   H1  H2  
O   H1  H2  O   H1  H2  O   H1  H2  O   H1  H2  O   H1  H2  O   H1  H2  O   H1  
H2  O   H1  H2  O   H1  H2  O   H1  H2  O   H1  H2  O   H1  H2  O   H1  H2  O   
H1  H2  O   H1  H2  O   H1  H2  O   H1  H2  O   H1  H2  O   H1  H2  O   H1  H2  
O   H1  H2  O   H1  H2  O   H1  H2  O   H1  H2  O   H1  H2  O   H1  H2  O   H1  
H2  O   H1  H2  O   H1  H2  O   H1  H2  O   H1  H2  O   H1  H2  O   H1  H2  O   
H1  H2  O   H1  H2  O   H1  H2  O   H1  H2  O   H1  H2  O   H1  H2  O   H1  H2  
O   H1  H2  O   H1  H2  O   H1  H2  O   H1  H2  O   H1  H2  O   H1  H2  O   H1  
H2  O   H1  H2  O   H1  H2  O   H1  H2  O   H1  H2  O   H1  H2  O   H1  H2  O   
H1  H2  O   H1  H2  O   H1  H2  O   H1  H2  O   H1  H2  O   H1  H2  O   H1  H2  
O   H1  H2  O   H1  H2  O   H1  H2  O   H1  H2  O   H1  H2  O   H1  H2  O   H1  
H2  O   H1  H2  O   H1  H2  O   H1  H2  O   H1  H2  O   H1  H2  O   H1  H2  O   
H1  H2  O   H1  H2  O   H1  H2  O   H1  H2  O   H1  H2  O   H1  H2  O   H1  H2  
O   H1  H2  O   H1  H2  O   H1  H2  O   H1  H2  O   H1  H2  O   H1  H2  O   H1  
H2  O   H1  H2  O   H1  H2  O   H1  H2  O   H1  H2  O   H1  H2  O   H1  H2  O   
H1  H2  O   H1  H2  O   H1  H2  O   H1  H2  O   H1  H2  O   H1  H2  O   H1  H2  
O   H1  H2  O   H1  H2  O   H1  H2  O   H1  H2  O   H1  H2  O   H1  H2  O   H1  
H2  O   H1  H2  O   H1  H2  O   H1  H2  O   H1  H2  O   H1  H2  O   H1  H2  O   
H1  H2  O   H1  H2  O   H1  H2  O   H1  H2  O   H1  H2  O   H1  H2  O   H1  H2  
O   H1  H2  O   H1  H2  O   H1  H2  O   H1  H2  O   H1  H2  O   H1  H2  O   H1  
H2  O   H1  H2  O   H1  H2  O   H1  H2  O   H1  H2  O   H1  H2  O   H1  H2  O   
H1  H2  O   H1  H2  O   H1  H2  O   H1  H2  O   H1  H2  O   H1  H2  O   H1  H2  
O   H1  H2  O   H1  H2  O   H1  H2  O   H1  H2  O   H1  H2  O   H1  H2  O   H1  
H2  O   H1  H2  O   H1  H2  O   H1  H2  O   H1  H2  O   H1  H2  O   H1  H2  O   
H1  H2  O   H1  H2  O   H1  H2  O   H1  H2  O   H1  H2  O   H1  H2  O   H1  H2  
O   H1  H2  O   H1  H2  O   H1  H2  O   H1  H2  O   H1  H2  O   H1  H2  O   H1  
H2  O   H1  H2  O   H1  H2  O   H1  H2  O   H1  H2  O   H1  H2  O   H1  H2  O   
H1  H2  O   H1  H2  O   H1  H2  O   H1  H2  O   H1  H2  O   H1  H2  O   H1  H2  
O   H1  H2  O   H1  H2  O   H1  H2  O   H1  H2  O   H1  H2  O   H1  H2  O   H1  
H2  O   H1  H2  O   H1  H2  O   H1  H2  O   H1  H2  O   H1  H2  O   H1  H2  O   
H1  H2  O   H1  H2  O   H1  H2  O   H1  H2  O   H1  H2  O   H1  H2  O   H1  H2  
O   H1  H2  O   H1  H2  O   H1  H2  O   H1  H2  O   H1  H2  O   H1  H2  O   H1  
H2  O   H1  H2  O   H1  H2  O   H1  H2  O   H1  H2  O   H1  H2  O   H1  H2  O   
H1  H2  O   H1  H2  O   H1  H2  O   H1  H2  O   H1  H2  O   H1  H2  O   H1  H2  
O   H1  H2  O   H1  H2  O   H1  H2  O   H1  H2  O   H1  H2  O   H1  H2  O   H1  
H2  O   H1  H2  O   H1  H2  O   H1  H2  O   H1  H2  O   H1  H2  O   H1  H2  O   
H1  H2  O   H1  H2  O   H1  H2  O   H1  H2  O   H1  H2  O   H1  H2  O   H1  H2  
O   H1  H2  O   H1  H2  O   H1  H2  O   H1  H2  O   H1  H2  O   H1  H2  O   H1  
H2  O   H1  H2  O   H1  H2  O   H1  H2  O   H1  H2  O   H1  H2  O   H1  H2  O   
H1  H2  O   H1  H2  O   H1  H2  O   H1  H2  O   H1  H2  O   H1  H2  O   H1  H2  
O   H1  H2  O   H1  H2  O   H1  H2  O   H1  H2  O   H1  H2  O   H1  H2  O   H1  
H2  O   H1  H2  O   H1  H2  O   H1  H2  O   H1  H2  O   H1  H2  O   H1  H2  O   
H1  H2  O   H1  H2  O   H1  H2  O   H1  H2  O   H1  H2  O   H1  H2  O   H1  H2  
O   H1  H2  O   H1  H2  O   H1  H2  O   H1  H2  O   H1  H2  O   H1  H2  O   H1  
H2  O   H1  H2  O   H1  H2  O   H1  H2  O   H1  H2  O   H1  H2  O   H1  H2  O   
H1  H2  O   H1  H2  O   H1  H2  O   H1  H2  O   H1  H2  O   H1  H2  O   H1  H2  
O   H1  H2  O   H1  H2  O   H1  H2  O   H1  H2  O   H1  H2  O   H1  H2  O   H1  
H2  O   H1  H2  O   H1  H2  O   H1  H2  O   H1  H2  O   H1  H2  O   H1  H2  O   
H1  H2  O   H1  H2  O   H1  H2  O   H1  H2  O   H1  H2  O   H1  H2  O   H1  H2  
O   H1  H2  O   H1  H2  O   H1  H2  O   H1  H2  O   H1  H2  O   H1  H2  O   H1  
H2  O   H1  H2  O   H1  H2  O   H1  H2  O   H1  H2  O   H1  H2  O   H1  H2  O   
H1  H2  O   H1  H2  O   H1  H2  O   H1  H2  O   H1  H2  O   H1  H2  O   H1  H2  
O   H1  H2  O   H1  H2  O   H1  H2  O   H1  H2  O   H1  H2  O   H1  H2  O   H1  
H2  O   H1  H2  O   H1  H2  O   H1  H2  O   H1  H2  O   H1  H2  O   H1  H2  O   
H1  H2  O   H1  H2  O   H1  H2  O   H1  H2  O   H1  H2  O   H1  H2  O   H1  H2  
O   H1  H2  O   H1  H2  O   H1  H2  O   H1  H2  O   H1  H2  O   H1  H2  O   H1  
H2  O   H1  H2  O   H1  H2  O   H1  H2  O   H1  H2  O   H1  H2  O   H1  H2  O   
H1  H2  O   H1  H2  O   H1  H2  O   H1  H2  O   H1  H2  O   H1  H2  O   H1  H2  
O   H1  H2  O   H1  H2  O   H1  H2  O   H1  H2  O   H1  H2  O   H1  H2  O   H1  
H2  O   H1  H2  O   H1  H2  O   H1  H2  O   H1  H2  O   H1  H2  O   H1  H2  O   
H1  H2  O   H1  H2  O   H1  H2  O   H1  H2  O   H1  H2  O   H1  H2  O   H1  H2  
O   H1  H2  O   H1  H2  O   H1  H2  O   H1  H2  O   H1  H2  O   H1  H2  O   H1  
H2  O   H1  H2  O   H1  H2  O   H1  H2  O   H1  H2  O   H1  H2  O   H1  H2  O   
H1  H2  O   H1  H2  O   H1  H2  O   H1  H2  O   H1  H2  O   H1  H2  O   H1  H2  
O   H1  H2  O   H1  H2  O   H1  H2  O   H1  H2  O   H1  H2  O   H1  H2  O   H1  
H2  O   H1  H2  O   H1  H2  O   H1  H2  O   H1  H2  O   H1  H2  O   H1  H2  O   
H1  H2  O   H1  H2  O   H1  H2  O   H1  H2  O   H1  H2  O   H1  H2  O   H1  H2  
O   H1  H2  O   H1  H2  O   H1  H2  O   H1  H2  O   H1  H2  O   H1  H2  O   H1  
H2  O   H1  H2  O   H1  H2  O   H1  H2  O   H1  H2  O   H1  H2  O   H1  H2  O   
H1  H2  O   H1  H2  O   H1  H2  O   H1  H2  O   H1  H2  O   H1  H2  O   H1  H2  
O   H1  H2  O   H1  H2  O   H1  H2  O   H1  H2  O   H1  H2  O   H1  H2  O   H1  
H2  O   H1  H2  O   H1  H2  O   H1  H2  O   H1  H2  O   H1  H2  O   H1  H2  O   
H1  H2  O   H1  H2  O   H1  H2  O   H1  H2  O   H1  H2  O   H1  H2  O   H1  H2  
O   H1  H2  O   H1  H2  O   H1  H2  O   H1  H2  O   H1  H2  O   H1  H2  O   H1  
H2  O   H1  H2  O   H1  H2  O   H1  H2  O   H1  H2  O   H1  H2  O   H1  H2  O   
H1  H2  O   H1  H2  O   H1  H2  O   H1  H2  O   H1  H2  O   H1  H2  O   H1  H2  
O   H1  H2  O   H1  H2  O   H1  H2  O   H1  H2  O   H1  H2  O   H1  H2  O   H1  
H2  O   H1  H2  O   H1  H2  O   H1  H2  O   H1  H2  O   H1  H2  O   H1  H2  O   
H1  H2  O   H1  H2  O   H1  H2  O   H1  H2  O   H1  H2  O   H1  H2  O   H1  H2  
O   H1  H2  O   H1  H2  O   H1  H2  O   H1  H2  O   H1  H2  O   H1  H2  O   H1  
H2  O   H1  H2  O   H1  H2  O   H1  H2  O   H1  H2  O   H1  H2  O   H1  H2  O   
H1  H2  O   H1  H2  O   H1  H2  O   H1  H2  O   H1  H2  O   H1  H2  O   H1  H2  
O   H1  H2  O   H1  H2  O   H1  H2  O   H1  H2  O   H1  H2  O   H1  H2  O   H1  
H2  O   H1  H2  O   H1  H2  O   H1  H2  O   H1  H2  O   H1  H2  O   H1  H2  O   
H1  H2  O   H1  H2  O   H1  H2  O   H1  H2  O   H1  H2  O   H1  H2  O   H1  H2  
O   H1  H2  O   H1  H2  O   H1  H2  O   H1  H2  O   H1  H2  O   H1  H2  O   H1  
H2  O   H1  H2  O   H1  H2  O   H1  H2  O   H1  H2  O   H1  H2  O   H1  H2  O   
H1  H2  O   H1  H2  O   H1  H2  O   H1  H2  O   H1  H2  O   H1  H2  O   H1  H2  
O   H1  H2  O   H1  H2  O   H1  H2  O   H1  H2  O   H1  H2  O   H1  H2  O   H1  
H2  O   H1  H2  O   H1  H2  O   H1  H2  O   H1  H2  O   H1  H2  O   H1  H2  O   
H1  H2  O   H1  H2  O   H1  H2  O   H1  H2  O   H1  H2  O   H1  H2  O   H1  H2  
O   H1  H2  O   H1  H2  O   H1  H2  O   H1  H2  O   H1  H2  O   H1  H2  O   H1  
H2  O   H1  H2  O   H1  H2  O   H1  H2  O   H1  H2  O   H1  H2  O   H1  H2  O   
H1  H2  O   H1  H2  O   H1  H2  O   H1  H2  O   H1  H2  O   H1  H2  O   H1  H2  
O   H1  H2  O   H1  H2  O   H1  H2  O   H1  H2  O   H1  H2  O   H1  H2  O   H1  
H2  O   H1  H2  O   H1  H2  O   H1  H2  O   H1  H2  O   H1  H2  O   H1  H2  O   
H1  H2  O   H1  H2  O   H1  H2  O   H1  H2  O   H1  H2  O   H1  H2  O   H1  H2  
O   H1  H2  O   H1  H2  O   H1  H2  O   H1  H2  O   H1  H2  O   H1  H2  O   H1  
H2  O   H1  H2  O   H1  H2  O   H1  H2  O   H1  H2  O   H1  H2  O   H1  H2  O   
H1  H2  O   H1  H2  O   H1  H2  O   H1  H2  O   H1  H2  O   H1  H2  O   H1  H2  
O   H1  H2  O   H1  H2  O   H1  H2  O   H1  H2  O   H1  H2  O   H1  H2  O   H1  
H2  O   H1  H2  O   H1  H2  O   H1  H2  O   H1  H2  O   H1  H2  O   H1  H2  O   
H1  H2  O   H1  H2  O   H1  H2  O   H1  H2  O   H1  H2  O   H1  H2  O   H1  H2  
O   H1  H2  O   H1  H2  O   H1  H2  O   H1  H2  O   H1  H2  O   H1  H2  O   H1  
H2  O   H1  H2  O   H1  H2  O   H1  H2  O   H1  H2  O   H1  H2  O   H1  H2  O   
H1  H2  O   H1  H2  O   H1  H2  O   H1  H2  O   H1  H2  O   H1  H2  O   H1  H2  
O   H1  H2  O   H1  H2  O   H1  H2  O   H1  H2  O   H1  H2  O   H1  H2  O   H1  
H2  O   H1  H2  O   H1  H2  O   H1  H2  O   H1  H2  O   H1  H2  O   H1  H2  O   
H1  H2  O   H1  H2  O   H1  H2  O   H1  H2  O   H1  H2  O   H1  H2  O   H1  H2  
O   H1  H2  O   H1  H2  O   H1  H2  O   H1  H2  O   H1  H2  O   H1  H2  O   H1  
H2  O   H1  H2  O   H1  H2  O   H1  H2  O   H1  H2  O   H1  H2  O   H1  H2  O   
H1  H2  O   H1  H2  O   H1  H2  O   H1  H2  O   H1  H2  O   H1  H2  O   H1  H2  
O   H1  H2  O   H1  H2  O   H1  H2  O   H1  H2  O   H1  H2  O   H1  H2  O   H1  
H2  O   H1  H2  O   H1  H2  O   H1  H2  O   H1  H2  O   H1  H2  O   H1  H2  O   
H1  H2  O   H1  H2  O   H1  H2  O   H1  H2  O   H1  H2  O   H1  H2  O   H1  H2  
O   H1  H2  O   H1  H2  O   H1  H2  O   H1  H2  O   H1  H2  O   H1  H2  O   H1  
H2  O   H1  H2  O   H1  H2  O   H1  H2  O   H1  H2  O   H1  H2  O   H1  H2  O   
H1  H2  O   H1  H2  O   H1  H2  O   H1  H2  O   H1  H2  O   H1  H2  O   H1  H2  
O   H1  H2  O   H1  H2  O   H1  H2  O   H1  H2  O   H1  H2  O   H1  H2  O   H1  
H2  O   H1  H2  O   H1  H2  O   H1  H2  O   H1  H2  O   H1  H2  O   H1  H2  O   
H1  H2  O   H1  H2  O   H1  H2  O   H1  H2  O   H1  H2  O   H1  H2  O   H1  H2  
O   H1  H2  O   H1  H2  O   H1  H2  O   H1  H2  O   H1  H2  O   H1  H2  O   H1  
H2  O   H1  H2  O   H1  H2  O   H1  H2  O   H1  H2  O   H1  H2  O   H1  H2  O   
H1  H2  O   H1  H2  O   H1  H2  O   H1  H2  O   H1  H2  O   H1  H2  O   H1  H2  
O   H1  H2  O   H1  H2  O   H1  H2  O   H1  H2  O   H1  H2  O   H1  H2  O   H1  
H2  O   H1  H2  O   H1  H2  O   H1  H2  O   H1  H2  O   H1  H2  O   H1  H2  O   
H1  H2  O   H1  H2  O   H1  H2  O   H1  H2  O   H1  H2  O   H1  H2  O   H1  H2  
O   H1  H2  O   H1  H2  O   H1  H2  O   H1  H2  O   H1  H2  O   H1  H2  O   H1  
H2  O   H1  H2  O   H1  H2  O   H1  H2  O   H1  H2  O   H1  H2  O   H1  H2  O   
H1  H2  O   H1  H2  O   H1  H2  O   H1  H2  O   H1  H2  O   H1  H2  O   H1  H2  
O   H1  H2  O   H1  H2  O   H1  H2  O   H1  H2  O   H1  H2  O   H1  H2  O   H1  
H2  O   H1  H2  O   H1  H2  O   H1  H2  O   H1  H2  O   H1  H2  O   H1  H2  O   
H1  H2  O   H1  H2  O   H1  H2  O   H1  H2  O   H1  H2  O   H1  H2  O   H1  H2  
O   H1  H2  O   H1  H2  O   H1  H2  O   H1  H2  O   H1  H2  O   H1  H2  O   H1  
H2  O   H1  H2  O   H1  H2  O   H1  H2  O   H1  H2  O   H1  H2  O   H1  H2  O   
H1  H2  O   H1  H2  O   H1  H2  O   H1  H2  O   H1  H2  O   H1  H2  O   H1  H2  
O   H1  H2  O   H1  H2  O   H1  H2  O   H1  H2  O   H1  H2  O   H1  H2  O   H1  
H2  O   H1  H2  O   H1  H2  O   H1  H2  O   H1  H2  O   H1  H2  O   H1  H2  O   
H1  H2  O   H1  H2  O   H1  H2  O   H1  H2  O   H1  H2  O   H1  H2  O   H1  H2  
O   H1  H2  O   H1  H2  O   H1  H2  O   H1  H2  O   H1  H2  O   H1  H2  O   H1  
H2  O   H1  H2  O   H1  H2  O   H1  H2  O   H1  H2  O   H1  H2  O   H1  H2  O   
H1  H2  O   H1  H2  O   H1  H2  O   H1  H2  O   H1  H2  O   H1  H2  O   H1  H2  
O   H1  H2  O   H1  H2  O   H1  H2  O   H1  H2  O   H1  H2  O   H1  H2  O   H1  
H2  O   H1  H2  O   H1  H2  O   H1  H2  O   H1  H2  O   H1  H2  O   H1  H2  O   
H1  H2  O   H1  H2  O   H1  H2  O   H1  H2  O   H1  H2  O   H1  H2  O   H1  H2  
O   H1  H2  O   H1  H2  O   H1  H2  O   H1  H2  O   H1  H2  O   H1  H2  O   H1  
H2  O   H1  H2  O   H1  H2  O   H1  H2  O   H1  H2  O   H1  H2  O   H1  H2  O   
H1  H2  O   H1  H2  O   H1  H2  O   H1  H2  O   H1  H2  O   H1  H2  O   H1  H2  
O   H1  H2  O   H1  H2  O   H1  H2  O   H1  H2  O   H1  H2  O   H1  H2  O   H1  
H2  O   H1  H2  O   H1  H2  O   H1  H2  O   H1  H2  O   H1  H2  O   H1  H2  O   
H1  H2  O   H1  H2  O   H1  H2  O   H1  H2  O   H1  H2  O   H1  H2  O   H1  H2  
O   H1  H2  O   H1  H2  O   H1  H2  O   H1  H2  O   H1  H2  O   H1  H2  O   H1  
H2  O   H1  H2  O   H1  H2  O   H1  H2  O   H1  H2  O   H1  H2  O   H1  H2  O   
H1  H2  O   H1  H2  O   H1  H2  O   H1  H2  O   H1  H2  O   H1  H2  O   H1  H2  
O   H1  H2  O   H1  H2  O   H1  H2  O   H1  H2  O   H1  H2  O   H1  H2  O   H1  
H2  O   H1  H2  O   H1  H2  O   H1  H2  O   H1  H2  O   H1  H2  O   H1  H2  O   
H1  H2  O   H1  H2  O   H1  H2  O   H1  H2  O   H1  H2  O   H1  H2  O   H1  H2  
O   H1  H2  O   H1  H2  O   H1  H2  O   H1  H2  O   H1  H2  O   H1  H2  O   H1  
H2  O   H1  H2  O   H1  H2  O   H1  H2  O   H1  H2  O   H1  H2  O   H1  H2  O   
H1  H2  O   H1  H2  O   H1  H2  O   H1  H2  O   H1  H2  O   H1  H2  O   H1  H2  
O   H1  H2  O   H1  H2  O   H1  H2  O   H1  H2  O   H1  H2  O   H1  H2  O   H1  
H2  O   H1  H2  O   H1  H2  O   H1  H2  O   H1  H2  O   H1  H2  O   H1  H2  O   
H1  H2  O   H1  H2  O   H1  H2  O   H1  H2  O   H1  H2  O   H1  H2  O   H1  H2  
O   H1  H2  O   H1  H2  O   H1  H2  O   H1  H2  O   H1  H2  O   H1  H2  O   H1  
H2  O   H1  H2  O   H1  H2  O   H1  H2  O   H1  H2  O   H1  H2  O   H1  H2  O   
H1  H2  O   H1  H2  O   H1  H2  O   H1  H2  O   H1  H2  O   H1  H2  O   H1  H2  
O   H1  H2  O   H1  H2  O   H1  H2  O   H1  H2  O   H1  H2  O   H1  H2  O   H1  
H2  O   H1  H2  O   H1  H2  O   H1  H2  O   H1  H2  O   H1  H2  O   H1  H2  O   
H1  H2  O   H1  H2  O   H1  H2  O   H1  H2  O   H1  H2  O   H1  H2  O   H1  H2  
O   H1  H2  O   H1  H2  O   H1  H2  O   H1  H2  O   H1  H2  O   H1  H2  O   H1  
H2  O   H1  H2  O   H1  H2  O   H1  H2  O   H1  H2  O   H1  H2  O   H1  H2  O   
H1  H2  O   H1  H2  O   H1  H2  O   H1  H2  O   H1  H2  O   H1  H2  O   H1  H2  
O   H1  H2  O   H1  H2  O   H1  H2  O   H1  H2  O   H1  H2  O   H1  H2  O   H1  
H2  O   H1  H2  O   H1  H2  O   H1  H2  O   H1  H2  O   H1  H2  O   H1  H2  O   
H1  H2  O   H1  H2  O   H1  H2  O   H1  H2  O   H1  H2  O   H1  H2  O   H1  H2  
O   H1  H2  O   H1  H2  O   H1  H2  O   H1  H2  O   H1  H2  O   H1  H2  O   H1  
H2  O   H1  H2  O   H1  H2  O   H1  H2  O   H1  H2  O   H1  H2  O   H1  H2  O   
H1  H2  O   H1  H2  O   H1  H2  O   H1  H2  O   H1  H2  O   H1  H2  O   H1  H2  
O   H1  H2  O   H1  H2  O   H1  H2  O   H1  H2  O   H1  H2  O   H1  H2  O   H1  
H2  O   H1  H2  O   H1  H2  O   H1  H2  O   H1  H2  O   H1  H2  O   H1  H2  O   
H1  H2  O   H1  H2  O   H1  H2  O   H1  H2  O   H1  H2  O   H1  H2  O   H1  H2  
O   H1  H2  O   H1  H2  O   H1  H2  O   H1  H2  O   H1  H2  O   H1  H2  O   H1  
H2  O   H1  H2  O   H1  H2  O   H1  H2  O   H1  H2  O   H1  H2  O   H1  H2  O   
H1  H2  O   H1  H2  O   H1  H2  O   H1  H2  O   H1  H2  O   H1  H2  O   H1  H2  
O   H1  H2  O   H1  H2  O   H1  H2  O   H1  H2  O   H1  H2  O   H1  H2  O   H1  
H2  O   H1  H2  O   H1  H2  O   H1  H2  O   H1  H2  O   H1  H2  O   H1  H2  O   
H1  H2  O   H1  H2  O   H1  H2  O   H1  H2  O   H1  H2  O   H1  H2  O   H1  H2  
O   H1  H2  O   H1  H2  O   H1  H2  O   H1  H2  O   H1  H2  O   H1  H2  O   H1  
H2  O   H1  H2  O   H1  H2  O   H1  H2  O   H1  H2  O   H1  H2  O   H1  H2  O   
H1  H2  O   H1  H2  O   H1  H2  O   H1  H2  O   H1  H2  O   H1  H2  O   H1  H2  
O   H1  H2  O   H1  H2  O   H1  H2  O   H1  H2  O   H1  H2  O   H1  H2  O   H1  
H2  O   H1  H2  O   H1  H2  O   H1  H2  O   H1  H2  O   H1  H2  O   H1  H2  O   
H1  H2  O   H1  H2  O   H1  H2  O   H1  H2  O   H1  H2  O   H1  H2  O   H1  H2  
O   H1  H2  O   H1  H2  O   H1  H2  O   H1  H2  O   H1  H2  O   H1  H2  O   H1  
H2  O   H1  H2  O   H1  H2  O   H1  H2  O   H1  H2  O   H1  H2  O   H1  H2  O   
H1  H2  O   H1  H2  O   H1  H2  O   H1  H2  O   H1  H2  O   H1  H2  O   H1  H2  
O   H1  H2  O   H1  H2  O   H1  H2  O   H1  H2  O   H1  H2  O   H1  H2  O   H1  
H2  O   H1  H2  O   H1  H2  O   H1  H2  O   H1  H2  O   H1  H2  O   H1  H2  O   
H1  H2  O   H1  H2  O   H1  H2  O   H1  H2  O   H1  H2  O   H1  H2  O   H1  H2  
O   H1  H2  O   H1  H2  O   H1  H2  O   H1  H2  O   H1  H2  O   H1  H2  O   H1  
H2  O   H1  H2  O   H1  H2  O   H1  H2  O   H1  H2  O   H1  H2  O   H1  H2  O   
H1  H2  O   H1  H2  O   H1  H2  O   H1  H2  O   H1  H2  O   H1  H2  O   H1  H2  
O   H1  H2  O   H1  H2  O   H1  H2  O   H1  H2  O   H1  H2  O   H1  H2  O   H1  
H2  O   H1  H2  O   H1  H2  O   H1  H2  O   H1  H2  O   H1  H2  O   H1  H2  O   
H1  H2  O   H1  H2  O   H1  H2  O   H1  H2  O   H1  H2  O   H1  H2  O   H1  H2  
O   H1  H2  O   H1  H2  O   H1  H2  O   H1  H2  O   H1  H2  O   H1  H2  O   H1  
H2  O   H1  H2  O   H1  H2  O   H1  H2  O   H1  H2  O   H1  H2  O   H1  H2  O   
H1  H2  O   H1  H2  O   H1  H2  O   H1  H2  O   H1  H2  O   H1  H2  O   H1  H2  
O   H1  H2  O   H1  H2  O   H1  H2  O   H1  H2  O   H1  H2  O   H1  H2  O   H1  
H2  O   H1  H2  O   H1  H2  O   H1  H2  O   H1  H2  O   H1  H2  O   H1  H2  O   
H1  H2  O   H1  H2  O   H1  H2  O   H1  H2  O   H1  H2  O   H1  H2  O   H1  H2  
O   H1  H2  O   H1  H2  O   H1  H2  O   H1  H2  O   H1  H2  O   H1  H2  O   H1  
H2  O   H1  H2  O   H1  H2  O   H1  H2  O   H1  H2  O   H1  H2  O   H1  H2  O   
H1  H2  O   H1  H2  O   H1  H2  O   H1  H2  O   H1  H2  O   H1  H2  O   H1  H2  
O   H1  H2  O   H1  H2  O   H1  H2  O   H1  H2  O   H1  H2  O   H1  H2  O   H1  
H2  O   H1  H2  O   H1  H2  O   H1  H2  O   H1  H2  O   H1  H2  O   H1  H2  O   
H1  H2  O   H1  H2  O   H1  H2  O   H1  H2  O   H1  H2  O   H1  H2  O   H1  H2  
O   H1  H2  O   H1  H2  O   H1  H2  O   H1  H2  O   H1  H2  O   H1  H2  O   H1  
H2  O   H1  H2  O   H1  H2  O   H1  H2  O   H1  H2  O   H1  H2  O   H1  H2  O   
H1  H2  O   H1  H2  O   H1  H2  O   H1  H2  O   H1  H2  O   H1  H2  O   H1  H2  
O   H1  H2  O   H1  H2  O   H1  H2  O   H1  H2  O   H1  H2  O   H1  H2  O   H1  
H2  O   H1  H2  O   H1  H2  O   H1  H2  O   H1  H2  O   H1  H2  O   H1  H2  O   
H1  H2  O   H1  H2  O   H1  H2  O   H1  H2  O   H1  H2  O   H1  H2  O   H1  H2  
O   H1  H2  O   H1  H2  O   H1  H2  O   H1  H2  O   H1  H2  O   H1  H2  O   H1  
H2  O   H1  H2  O   H1  H2  O   H1  H2  O   H1  H2  O   H1  H2  O   H1  H2  O   
H1  H2  O   H1  H2  O   H1  H2  O   H1  H2  O   H1  H2  O   H1  H2  O   H1  H2  
O   H1  H2  O   H1  H2  O   H1  H2  O   H1  H2  O   H1  H2  O   H1  H2  O   H1  
H2  O   H1  H2  O   H1  H2  O   H1  H2  O   H1  H2  O   H1  H2  O   H1  H2  O   
H1  H2  O   H1  H2  O   H1  H2  O   H1  H2  O   H1  H2  O   H1  H2  O   H1  H2  
O   H1  H2  O   H1  H2  O   H1  H2  O   H1  H2  O   H1  H2  O   H1  H2  O   H1  
H2  O   H1  H2  O   H1  H2  O   H1  H2  O   H1  H2  O   H1  H2  O   H1  H2  O   
H1  H2  O   H1  H2  O   H1  H2  O   H1  H2  O   H1  H2  O   H1  H2  O   H1  H2  
O   H1  H2  O   H1  H2  O   H1  H2  O   H1  H2  O   H1  H2  O   H1  H2  O   H1  
H2  O   H1  H2  O   H1  H2  O   H1  H2  O   H1  H2  O   H1  H2  O   H1  H2  O   
H1  H2  O   H1  H2  O   H1  H2  O   H1  H2  O   H1  H2  O   H1  H2  O   H1  H2  
O   H1  H2  O   H1  H2  O   H1  H2  O   H1  H2  O   H1  H2  O   H1  H2  O   H1  
H2  O   H1  H2  O   H1  H2  O   H1  H2  O   H1  H2  O   H1  H2  O   H1  H2  O   
H1  H2  O   H1  H2  O   H1  H2  O   H1  H2  O   H1  H2  O   H1  H2  O   H1  H2  
O   H1  H2  O   H1  H2  O   H1  H2  O   H1  H2  O   H1  H2  O   H1  H2  O   H1  
H2  O   H1  H2  O   H1  H2  O   H1  H2  O   H1  H2  O   H1  H2  O   H1  H2  O   
H1  H2  O   H1  H2  O   H1  H2  O   H1  H2  O   H1  H2  O   H1  H2  O   H1  H2  
O   H1  H2  O   H1  H2  O   H1  H2  O   H1  H2  O   H1  H2  O   H1  H2  O   H1  
H2  O   H1  H2  O   H1  H2  O   H1  H2  O   H1  H2  O   H1  H2  O   H1  H2  O   
H1  H2  O   H1  H2  O   H1  H2  O   H1  H2  O   H1  H2  O   H1  H2  O   H1  H2  
O   H1  H2  O   H1  H2  O   H1  H2  O   H1  H2  O   H1  H2  O   H1  H2  O   H1  
H2  O   H1  H2  O   H1  H2  O   H1  H2  O   H1  H2  O   H1  H2  O   H1  H2  O   
H1  H2  O   H1  H2  O   H1  H2  O   H1  H2  O   H1  H2  O   H1  H2  O   H1  H2  
O   H1  H2  O   H1  H2  O   H1  H2  O   H1  H2  O   H1  H2  O   H1  H2  O   H1  
H2  O   H1  H2  O   H1  H2  O   H1  H2  O   H1  H2  O   H1  H2  O   H1  H2  O   
H1  H2  O   H1  H2  O   H1  H2  O   H1  H2  O   H1  H2  O   H1  H2  O   H1  H2  
O   H1  H2  O   H1  H2  O   H1  H2  O   H1  H2  O   H1  H2  O   H1  H2  O   H1  
H2  O   H1  H2  O   H1  H2  O   H1  H2  O   H1  H2  O   H1  H2  O   H1  H2  O   
H1  H2  O   H1  H2  O   H1  H2  O   H1  H2  O   H1  H2  O   H1  H2  O   H1  H2  
O   H1  H2  O   H1  H2  O   H1  H2  O   H1  H2  O   H1  H2  O   H1  H2  O   H1  
H2  O   H1  H2  O   H1  H2  O   H1  H2  O   H1  H2  O   H1  H2  O   H1  H2  O   
H1  H2  O   H1  H2  O   H1  H2  O   H1  H2  O   H1  H2  O   H1  H2  O   H1  H2  
O   H1  H2  O   H1  H2  O   H1  H2  O   H1  H2  O   H1  H2  O   H1  H2  O   H1  
H2  O   H1  H2  O   H1  H2  O   H1  H2  O   H1  H2  O   H1  H2  O   H1  H2  O   
H1  H2  O   H1  H2  O   H1  H2  O   H1  H2  O   H1  H2  O   H1  H2  O   H1  H2  
O   H1  H2  O   H1  H2  O   H1  H2  O   H1  H2  O   H1  H2  O   H1  H2  O   H1  
H2  O   H1  H2  O   H1  H2  O   H1  H2  O   H1  H2  O   H1  H2  O   H1  H2  O   
H1  H2  O   H1  H2  O   H1  H2  O   H1  H2  O   H1  H2  O   H1  H2  O   H1  H2  
O   H1  H2  O   H1  H2  O   H1  H2  O   H1  H2  O   H1  H2  O   H1  H2  O   H1  
H2  O   H1  H2  O   H1  H2  O   H1  H2  O   H1  H2  O   H1  H2  O   H1  H2  O   
H1  H2  O   H1  H2  O   H1  H2  O   H1  H2  O   H1  H2  O   H1  H2  O   H1  H2  
O   H1  H2  O   H1  H2  O   H1  H2  O   H1  H2  O   H1  H2  O   H1  H2  O   H1  
H2  O   H1  H2  O   H1  H2  O   H1  H2  O   H1  H2  O   H1  H2  O   H1  H2  O   
H1  H2  O   H1  H2  O   H1  H2  O   H1  H2  O   H1  H2  O   H1  H2  O   H1  H2  
O   H1  H2  O   H1  H2  O   H1  H2  O   H1  H2  O   H1  H2  O   H1  H2  O   H1  
H2  O   H1  H2  O   H1  H2  O   H1  H2  O   H1  H2  O   H1  H2  O   H1  H2  O   
H1  H2  O   H1  H2  O   H1  H2  O   H1  H2  O   H1  H2  O   H1  H2  O   H1  H2  
O   H1  H2  O   H1  H2  O   H1  H2  O   H1  H2  O   H1  H2  O   H1  H2  O   H1  
H2  O   H1  H2  O   H1  H2  O   H1  H2  O   H1  H2  O   H1  H2  O   H1  H2  O   
H1  H2  O   H1  H2  O   H1  H2  O   H1  H2  O   H1  H2  O   H1  H2  O   H1  H2  
O   H1  H2  O   H1  H2  O   H1  H2  O   H1  H2  O   H1  H2  O   H1  H2  O   H1  
H2  O   H1  H2  O   H1  H2  O   H1  H2  O   H1  H2  O   H1  H2  O   H1  H2  O   
H1  H2  O   H1  H2  O   H1  H2  O   H1  H2  O   H1  H2  O   H1  H2  O   H1  H2  
O   H1  H2  O   H1  H2  O   H1  H2  O   H1  H2  O   H1  H2  O   H1  H2  O   H1  
H2  O   H1  H2  O   H1  H2  O   H1  H2  O   H1  H2  O   H1  H2  O   H1  H2  O   
H1  H2  O   H1  H2  O   H1  H2  O   H1  H2  O   H1  H2  O   H1  H2  O   H1  H2  
O   H1  H2  O   H1  H2  O   H1  H2  O   H1  H2  O   H1  H2  O   H1  H2  O   H1  
H2  O   H1  H2  O   H1  H2  O   H1  H2  O   H1  H2  O   H1  H2  O   H1  H2  O   
H1  H2  O   H1  H2  O   H1  H2  O   H1  H2  O   H1  H2  O   H1  H2  O   H1  H2  
O   H1  H2  O   H1  H2  O   H1  H2  O   H1  H2  O   H1  H2  O   H1  H2  O   H1  
H2  O   H1  H2  O   H1  H2  O   H1  H2  O   H1  H2  O   H1  H2  O   H1  H2  O   
H1  H2  O   H1  H2  O   H1  H2  O   H1  H2  O   H1  H2  O   H1  H2  O   H1  H2  
O   H1  H2  O   H1  H2  O   H1  H2  O   H1  H2  O   H1  H2  O   H1  H2  O   H1  
H2  O   H1  H2  O   H1  H2  O   H1  H2  O   H1  H2  O   H1  H2  O   H1  H2  O   
H1  H2  O   H1  H2  O   H1  H2  O   H1  H2  O   H1  H2  O   H1  H2  O   H1  H2  
O   H1  H2  O   H1  H2  O   H1  H2  O   H1  H2  O   H1  H2  O   H1  H2  O   H1  
H2  O   H1  H2  O   H1  H2  O   H1  H2  O   H1  H2  O   H1  H2  O   H1  H2  O   
H1  H2  O   H1  H2  O   H1  H2  O   H1  H2  O   H1  H2  O   H1  H2  O   H1  H2  
O   H1  H2  O   H1  H2  O   H1  H2  O   H1  H2  O   H1  H2  O   H1  H2  O   H1  
H2  O   H1  H2  O   H1  H2  O   H1  H2  O   H1  H2  O   H1  H2  O   H1  H2  O   
H1  H2  O   H1  H2  O   H1  H2  O   H1  H2  O   H1  H2  O   H1  H2  O   H1  H2  
O   H1  H2  O   H1  H2  O   H1  H2  O   H1  H2  O   H1  H2  O   H1  H2  O   H1  
H2  O   H1  H2  O   H1  H2  O   H1  H2  O   H1  H2  O   H1  H2  O   H1  H2  O   
H1  H2  O   H1  H2  O   H1  H2  O   H1  H2  O   H1  H2  O   H1  H2  O   H1  H2  
O   H1  H2  O   H1  H2  O   H1  H2  O   H1  H2  O   H1  H2  O   H1  H2  O   H1  
H2  O   H1  H2  O   H1  H2  O   H1  H2  O   H1  H2  O   H1  H2  O   H1  H2  O   
H1  H2  O   H1  H2  O   H1  H2  O   H1  H2  O   H1  H2  O   H1  H2  O   H1  H2  
O   H1  H2  O   H1  H2  O   H1  H2  O   H1  H2  O   H1  H2  O   H1  H2  O   H1  
H2  O   H1  H2  O   H1  H2  O   H1  H2  O   H1  H2  O   H1  H2  O   H1  H2  O   
H1  H2  O   H1  H2  O   H1  H2  O   H1  H2  O   H1  H2  O   H1  H2  O   H1  H2  
O   H1  H2  O   H1  H2  O   H1  H2  O   H1  H2  O   H1  H2  O   H1  H2  O   H1  
H2  O   H1  H2  O   H1  H2  O   H1  H2  O   H1  H2  O   H1  H2  O   H1  H2  O   
H1  H2  O   H1  H2  O   H1  H2  O   H1  H2  O   H1  H2  O   H1  H2  O   H1  H2  
O   H1  H2  O   H1  H2  O   H1  H2  O   H1  H2  O   H1  H2  O   H1  H2  O   H1  
H2  O   H1  H2  O   H1  H2  O   H1  H2  O   H1  H2  O   H1  H2  O   H1  H2  O   
H1  H2  O   H1  H2  O   H1  H2  O   H1  H2  O   H1  H2  O   H1  H2  O   H1  H2  
O   H1  H2  O   H1  H2  O   H1  H2  O   H1  H2  O   H1  H2  O   H1  H2  O   H1  
H2  O   H1  H2  O   H1  H2  O   H1  H2  O   H1  H2  O   H1  H2  O   H1  H2  O   
H1  H2  O   H1  H2  O   H1  H2  O   H1  H2  O   H1  H2  O   H1  H2  O   H1  H2  
O   H1  H2  O   H1  H2  O   H1  H2  O   H1  H2  O   H1  H2  O   H1  H2  O   H1  
H2  O   H1  H2  O   H1  H2  O   H1  H2  O   H1  H2  O   H1  H2  O   H1  H2  O   
H1  H2  O   H1  H2  O   H1  H2  O   H1  H2  O   H1  H2  O   H1  H2  O   H1  H2  
O   H1  H2  O   H1  H2  O   H1  H2  O   H1  H2  O   H1  H2  O   H1  H2  O   H1  
H2  O   H1  H2  O   H1  H2  O   H1  H2  O   H1  H2  O   H1  H2  O   H1  H2  O   
H1  H2  O   H1  H2  O   H1  H2  O   H1  H2  O   H1  H2  O   H1  H2  O   H1  H2  
O   H1  H2  O   H1  H2  O   H1  H2  O   H1  H2  O   H1  H2  O   H1  H2  O   H1  
H2  O   H1  H2  O   H1  H2  O   H1  H2  O   H1  H2  O   H1  H2  O   H1  H2  O   
H1  H2  O   H1  H2  O   H1  H2  O   H1  H2  O   H1  H2  O   H1  H2  O   H1  H2  
O   H1  H2  O   H1  H2  O   H1  H2  O   H1  H2  O   H1  H2  O   H1  H2  O   H1  
H2  O   H1  H2  O   H1  H2  O   H1  H2  O   H1  H2  O   H1  H2  O   H1  H2  O   
H1  H2  O   H1  H2  O   H1  H2  O   H1  H2  O   H1  H2  O   H1  H2  O   H1  H2  
O   H1  H2  O   H1  H2  O   H1  H2  O   H1  H2  O   H1  H2  O   H1  H2  O   H1  
H2  O   H1  H2  O   H1  H2  O   H1  H2  O   H1  H2  O   H1  H2  O   H1  H2  O   
H1  H2  O   H1  H2  O   H1  H2  O   H1  H2  O   H1  H2  O   H1  H2  O   H1  H2  
O   H1  H2  O   H1  H2  O   H1  H2  O   H1  H2  O   H1  H2  O   H1  H2  O   H1  
H2  O   H1  H2  O   H1  H2  O   H1  H2  O   H1  H2  O   H1  H2  O   H1  H2  O   
H1  H2  O   H1  H2  O   H1  H2  O   H1  H2  O   H1  H2  O   H1  H2  O   H1  H2  
O   H1  H2  O   H1  H2  O   H1  H2  O   H1  H2  O   H1  H2  O   H1  H2  O   H1  
H2  O   H1  H2  O   H1  H2  O   H1  H2  O   H1  H2  O   H1  H2  O   H1  H2  O   
H1  H2  O   H1  H2  O   H1  H2  O   H1  H2  O   H1  H2  O   H1  H2  O   H1  H2  
O   H1  H2  O   H1  H2  O   H1  H2  O   H1  H2  O   H1  H2  O   H1  H2  O   H1  
H2  O   H1  H2  O   H1  H2  O   H1  H2  O   H1  H2  O   H1  H2  O   H1  H2  O   
H1  H2  O   H1  H2  O   H1  H2  O   H1  H2  O   H1  H2  O   H1  H2  O   H1  H2  
O   H1  H2  O   H1  H2  O   H1  H2  O   H1  H2  O   H1  H2  O   H1  H2  O   H1  
H2  O   H1  H2  O   H1  H2  O   H1  H2  O   H1  H2  O   H1  H2  O   H1  H2  O   
H1  H2  O   H1  H2  O   H1  H2  O   H1  H2  O   H1  H2  O   H1  H2  O   H1  H2  
O   H1  H2  O   H1  H2  O   H1  H2  O   H1  H2  O   H1  H2  O   H1  H2  O   H1  
H2  O   H1  H2  O   H1  H2  O   H1  H2  O   H1  H2  O   H1  H2  O   H1  H2  O   
H1  H2  O   H1  H2  O   H1  H2  O   H1  H2  O   H1  H2  O   H1  H2  O   H1  H2  
O   H1  H2  O   H1  H2  O   H1  H2  O   H1  H2  O   H1  H2  O   H1  H2  O   H1  
H2  O   H1  H2  O   H1  H2  O   H1  H2  O   H1  H2  O   H1  H2  O   H1  H2  O   
H1  H2  O   H1  H2  O   H1  H2  O   H1  H2  O   H1  H2  O   H1  H2  O   H1  H2  
O   H1  H2  O   H1  H2  O   H1  H2  O   H1  H2  O   H1  H2  O   H1  H2  O   H1  
H2  O   H1  H2  O   H1  H2  O   H1  H2  O   H1  H2  O   H1  H2  O   H1  H2  O   
H1  H2  O   H1  H2  O   H1  H2  O   H1  H2  O   H1  H2  O   H1  H2  O   H1  H2  
O   H1  H2  O   H1  H2  O   H1  H2  O   H1  H2  O   H1  H2  O   H1  H2  O   H1  
H2  O   H1  H2  O   H1  H2  O   H1  H2  O   H1  H2  O   H1  H2  O   H1  H2  O   
H1  H2  O   H1  H2  O   H1  H2  O   H1  H2  O   H1  H2  O   H1  H2  O   H1  H2  
O   H1  H2  O   H1  H2  O   H1  H2  O   H1  H2  O   H1  H2  O   H1  H2  O   H1  
H2  O   H1  H2  O   H1  H2  O   H1  H2  O   H1  H2  O   H1  H2  O   H1  H2  O   
H1  H2  O   H1  H2  O   H1  H2  O   H1  H2  O   H1  H2  O   H1  H2  O   H1  H2  
O   H1  H2  O   H1  H2  O   H1  H2  O   H1  H2  O   H1  H2  O   H1  H2  O   H1  
H2  O   H1  H2  O   H1  H2  O   H1  H2  O   H1  H2  O   H1  H2  O   H1  H2  O   
H1  H2  O   H1  H2  O   H1  H2  O   H1  H2  O   H1  H2  O   H1  H2  O   H1  H2  
O   H1  H2  O   H1  H2  O   H1  H2  O   H1  H2  O   H1  H2  O   H1  H2  O   H1  
H2  O   H1  H2  O   H1  H2  O   H1  H2  O   H1  H2  O   H1  H2  O   H1  H2  O   
H1  H2  O   H1  H2  O   H1  H2  O   H1  H2  O   H1  H2  O   H1  H2  O   H1  H2  
O   H1  H2  O   H1  H2  O   H1  H2  O   H1  H2  O   H1  H2  O   H1  H2  O   H1  
H2  O   H1  H2  O   H1  H2  O   H1  H2  O   H1  H2  O   H1  H2  O   H1  H2  O   
H1  H2  O   H1  H2  O   H1  H2  O   H1  H2  O   H1  H2  O   H1  H2  O   H1  H2  
O   H1  H2  O   H1  H2  O   H1  H2  O   H1  H2  O   H1  H2  O   H1  H2  O   H1  
H2  O   H1  H2  O   H1  H2  O   H1  H2  O   H1  H2  O   H1  H2  O   H1  H2  O   
H1  H2  O   H1  H2  O   H1  H2  O   H1  H2  O   H1  H2  O   H1  H2  O   H1  H2  
O   H1  H2  O   H1  H2  O   H1  H2  O   H1  H2  O   H1  H2  O   H1  H2  O   H1  
H2  O   H1  H2  O   H1  H2  O   H1  H2  O   H1  H2  O   H1  H2  O   H1  H2  O   
H1  H2  O   H1  H2  O   H1  H2  O   H1  H2  O   H1  H2  O   H1  H2  O   H1  H2  
O   H1  H2  O   H1  H2  O   H1  H2  O   H1  H2  O   H1  H2  O   H1  H2  O   H1  
H2  O   H1  H2  O   H1  H2  O   H1  H2  O   H1  H2  O   H1  H2  O   H1  H2  O   
H1  H2  O   H1  H2  O   H1  H2  O   H1  H2  O   H1  H2  O   H1  H2  O   H1  H2  
O   H1  H2  O   H1  H2  O   H1  H2  O   H1  H2  O   H1  H2  O   H1  H2  O   H1  
H2  O   H1  H2  O   H1  H2  O   H1  H2  O   H1  H2  O   H1  H2  O   H1  H2  O   
H1  H2  O   H1  H2  O   H1  H2  O   H1  H2  O   H1  H2  O   H1  H2  O   H1  H2  
O   H1  H2  O   H1  H2  O   H1  H2  O   H1  H2  O   H1  H2  O   H1  H2  O   H1  
H2  O   H1  H2  O   H1  H2  O   H1  H2  O   H1  H2  O   H1  H2  O   H1  H2  O   
H1  H2  O   H1  H2  O   H1  H2  O   H1  H2  O   H1  H2  O   H1  H2  O   H1  H2  
O   H1  H2  O   H1  H2  O   H1  H2  O   H1  H2  O   H1  H2  O   H1  H2  O   H1  
H2  O   H1  H2  O   H1  H2  O   H1  H2  O   H1  H2  O   H1  H2  O   H1  H2  O   
H1  H2  O   H1  H2  O   H1  H2  O   H1  H2  O   H1  H2  O   H1  H2  O   H1  H2  
O   H1  H2  O   H1  H2  O   H1  H2  O   H1  H2  O   H1  H2  O   H1  H2  O   H1  
H2  O   H1  H2  O   H1  H2  O   H1  H2  O   H1  H2  O   H1  H2  O   H1  H2  O   
H1  H2  O   H1  H2  O   H1  H2  O   H1  H2  O   H1  H2  O   H1  H2  O   H1  H2  
O   H1  H2  O   H1  H2  O   H1  H2  O   H1  H2  O   H1  H2  O   H1  H2  O   H1  
H2  O   H1  H2  O   H1  H2  O   H1  H2  O   H1  H2  O   H1  H2  O   H1  H2  O   
H1  H2  O   H1  H2  O   H1  H2  O   H1  H2  O   H1  H2  O   H1  H2  O   H1  H2  
O   H1  H2  O   H1  H2  O   H1  H2  O   H1  H2  O   H1  H2  O   H1  H2  O   H1  
H2  O   H1  H2  O   H1  H2  O   H1  H2  O   H1  H2  O   H1  H2  O   H1  H2  O   
H1  H2  O   H1  H2  O   H1  H2  O   H1  H2  O   H1  H2  O   H1  H2  O   H1  H2  
O   H1  H2  O   H1  H2  O   H1  H2  O   H1  H2  O   H1  H2  O   H1  H2  O   H1  
H2  O   H1  H2  O   H1  H2  O   H1  H2  O   H1  H2  O   H1  H2  O   H1  H2  O   
H1  H2  O   H1  H2  O   H1  H2  O   H1  H2  O   H1  H2  O   H1  H2  O   H1  H2  
O   H1  H2  O   H1  H2  O   H1  H2  O   H1  H2  O   H1  H2  O   H1  H2  O   H1  
H2  O   H1  H2  O   H1  H2  O   H1  H2  O   H1  H2  O   H1  H2  O   H1  H2  O   
H1  H2  O   H1  H2  O   H1  H2  O   H1  H2  O   H1  H2  O   H1  H2  O   H1  H2  
O   H1  H2  O   H1  H2  O   H1  H2  O   H1  H2  O   H1  H2  O   H1  H2  O   H1  
H2  O   H1  H2  O   H1  H2  O   H1  H2  O   H1  H2  O   H1  H2  O   H1  H2  O   
H1  H2  O   H1  H2  O   H1  H2  O   H1  H2  O   H1  H2  O   H1  H2  O   H1  H2  
O   H1  H2  O   H1  H2  O   H1  H2  O   H1  H2  O   H1  H2  O   H1  H2  O   H1  
H2  O   H1  H2  O   H1  H2  O   H1  H2  O   H1  H2  O   H1  H2  O   H1  H2  O   
H1  H2  O   H1  H2  O   H1  H2  O   H1  H2  O   H1  H2  O   H1  H2  O   H1  H2  
O   H1  H2  O   H1  H2  O   H1  H2  O   H1  H2  O   H1  H2  O   H1  H2  O   H1  
H2  O   H1  H2  O   H1  H2  O   H1  H2  O   H1  H2  O   H1  H2  O   H1  H2  O   
H1  H2  O   H1  H2  O   H1  H2  O   H1  H2  O   H1  H2  O   H1  H2  O   H1  H2  
O   H1  H2  O   H1  H2  O   H1  H2  O   H1  H2  O   H1  H2  O   H1  H2  O   H1  
H2  O   H1  H2  O   H1  H2  O   H1  H2  O   H1  H2  O   H1  H2  O   H1  H2  O   
H1  H2  O   H1  H2  O   H1  H2  O   H1  H2  O   H1  H2  O   H1  H2  O   H1  H2  
O   H1  H2  O   H1  H2  O   H1  H2  O   H1  H2  O   H1  H2  O   H1  H2  O   H1  
H2  O   H1  H2  O   H1  H2  O   H1  H2  O   H1  H2  O   H1  H2  O   H1  H2  O   
H1  H2  O   H1  H2  O   H1  H2  O   H1  H2  O   H1  H2  O   H1  H2  O   H1  H2  
O   H1  H2  O   H1  H2  O   H1  H2  O   H1  H2  O   H1  H2  O   H1  H2  O   H1  
H2  O   H1  H2  O   H1  H2  O   H1  H2  O   H1  H2  O   H1  H2  O   H1  H2  O   
H1  H2  O   H1  H2  O   H1  H2  O   H1  H2  O   H1  H2  O   H1  H2  O   H1  H2  
O   H1  H2  O   H1  H2  O   H1  H2  O   H1  H2  O   H1  H2  O   H1  H2  O   H1  
H2  O   H1  H2  O   H1  H2  O   H1  H2  O   H1  H2  O   H1  H2  O   H1  H2  O   
H1  H2  O   H1  H2  O   H1  H2  O   H1  H2  O   H1  H2  O   H1  H2  O   H1  H2  
O   H1  H2  O   H1  H2  O   H1  H2  O   H1  H2  O   H1  H2  O   H1  H2  O   H1  
H2  O   H1  H2  O   H1  H2  O   H1  H2  O   H1  H2  O   H1  H2  O   H1  H2  O   
H1  H2  O   H1  H2  O   H1  H2  O   H1  H2  O   H1  H2  O   H1  H2  O   H1  H2  
O   H1  H2  O   H1  H2  O   H1  H2  O   H1  H2  O   H1  H2  O   H1  H2  O   H1  
H2  O   H1  H2  O   H1  H2  O   H1  H2  O   H1  H2  O   H1  H2  O   H1  H2  O   
H1  H2  O   H1  H2  O   H1  H2  O   H1  H2  O   H1  H2  O   H1  H2  O   H1  H2  
O   H1  H2  O   H1  H2  O   H1  H2  O   H1  H2  O   H1  H2  O   H1  H2  O   H1  
H2  O   H1  H2  O   H1  H2  O   H1  H2  O   H1  H2  O   H1  H2  O   H1  H2  O   
H1  H2  O   H1  H2  O   H1  H2  O   H1  H2  O   H1  H2  O   H1  H2  O   H1  H2  
O   H1  H2  O   H1  H2  O   H1  H2  O   H1  H2  O   H1  H2  O   H1  H2  O   H1  
H2  O   H1  H2  O   H1  H2  O   H1  H2  O   H1  H2  O   H1  H2  O   H1  H2  O   
H1  H2  O   H1  H2  O   H1  H2  O   H1  H2  O   H1  H2  O   H1  H2  O   H1  H2  
O   H1  H2  O   H1  H2  O   H1  H2  O   H1  H2  O   H1  H2  O   H1  H2  O   H1  
H2  O   H1  H2  O   H1  H2  O   H1  H2  O   H1  H2  O   H1  H2  O   H1  H2  O   
H1  H2  O   H1  H2  O   H1  H2  O   H1  H2  O   H1  H2  O   H1  H2  O   H1  H2  
O   H1  H2  O   H1  H2  O   H1  H2  O   H1  H2  O   H1  H2  O   H1  H2  O   H1  
H2  O   H1  H2  O   H1  H2  O   H1  H2  O   H1  H2  O   H1  H2  O   H1  H2  O   
H1  H2  O   H1  H2  O   H1  H2  O   H1  H2  O   H1  H2  O   H1  H2  O   H1  H2  
O   H1  H2  O   H1  H2  O   H1  H2  O   H1  H2  O   H1  H2  O   H1  H2  O   H1  
H2  O   H1  H2  O   H1  H2  O   H1  H2  O   H1  H2  O   H1  H2  O   H1  H2  O   
H1  H2  O   H1  H2  O   H1  H2  O   H1  H2  O   H1  H2  O   H1  H2  O   H1  H2  
O   H1  H2  O   H1  H2  O   H1  H2  O   H1  H2  O   H1  H2  O   H1  H2  O   H1  
H2  O   H1  H2  O   H1  H2  O   H1  H2  O   H1  H2  O   H1  H2  O   H1  H2  O   
H1  H2  O   H1  H2  O   H1  H2  O   H1  H2  O   H1  H2  O   H1  H2  O   H1  H2  
O   H1  H2  O   H1  H2  O   H1  H2  O   H1  H2  O   H1  H2  O   H1  H2  O   H1  
H2  O   H1  H2  O   H1  H2  O   H1  H2  O   H1  H2  O   H1  H2  O   H1  H2  O   
H1  H2  O   H1  H2  O   H1  H2  O   H1  H2  O   H1  H2  O   H1  H2  O   H1  H2  
O   H1  H2  O   H1  H2  O   H1  H2  O   H1  H2  O   H1  H2  O   H1  H2  O   H1  
H2  O   H1  H2  O   H1  H2  O   H1  H2  O   H1  H2  O   H1  H2  O   H1  H2  O   
H1  H2  O   H1  H2  O   H1  H2  O   H1  H2  O   H1  H2  O   H1  H2  O   H1  H2  
O   H1  H2  O   H1  H2  O   H1  H2  O   H1  H2  O   H1  H2  O   H1  H2  O   H1  
H2  O   H1  H2  O   H1  H2  O   H1  H2  O   H1  H2  O   H1  H2  O   H1  H2  O   
H1  H2  O   H1  H2  O   H1  H2  O   H1  H2  O   H1  H2  O   H1  H2  O   H1  H2  
O   H1  H2  O   H1  H2  O   H1  H2  O   H1  H2  O   H1  H2  O   H1  H2  O   H1  
H2  O   H1  H2  O   H1  H2  O   H1  H2  O   H1  H2  O   H1  H2  O   H1  H2  O   
H1  H2  O   H1  H2  O   H1  H2  O   H1  H2  O   H1  H2  O   H1  H2  O   H1  H2  
O   H1  H2  O   H1  H2  O   H1  H2  O   H1  H2  O   H1  H2  O   H1  H2  O   H1  
H2  O   H1  H2  O   H1  H2  O   H1  H2  O   H1  H2  O   H1  H2  O   H1  H2  O   
H1  H2  O   H1  H2  O   H1  H2  O   H1  H2  O   H1  H2  O   H1  H2  O   H1  H2  
O   H1  H2  O   H1  H2  O   H1  H2  O   H1  H2  O   H1  H2  O   H1  H2  O   H1  
H2  O   H1  H2  O   H1  H2  O   H1  H2  O   H1  H2  O   H1  H2  O   H1  H2  O   
H1  H2  O   H1  H2  O   H1  H2  O   H1  H2  O   H1  H2  O   H1  H2  O   H1  H2  
O   H1  H2  O   H1  H2  O   H1  H2  O   H1  H2  O   H1  H2  O   H1  H2  O   H1  
H2  O   H1  H2  O   H1  H2  O   H1  H2  O   H1  H2  O   H1  H2  O   H1  H2  O   
H1  H2  O   H1  H2  O   H1  H2  O   H1  H2  O   H1  H2  O   H1  H2  O   H1  H2  
O   H1  H2  O   H1  H2  O   H1  H2  O   H1  H2  O   H1  H2  O   H1  H2  O   H1  
H2  O   H1  H2  O   H1  H2  O   H1  H2  O   H1  H2  O   H1  H2  O   H1  H2  O   
H1  H2  O   H1  H2  O   H1  H2  O   H1  H2  O   H1  H2  O   H1  H2  O   H1  H2  
O   H1  H2  O   H1  H2  O   H1  H2  O   H1  H2  O   H1  H2  O   H1  H2  O   H1  
H2  O   H1  H2  O   H1  H2  O   H1  H2  O   H1  H2  O   H1  H2  O   H1  H2  O   
H1  H2  O   H1  H2  O   H1  H2  O   H1  H2  O   H1  H2  O   H1  H2  O   H1  H2  
O   H1  H2  O   H1  H2  O   H1  H2  O   H1  H2  O   H1  H2  O   H1  H2  O   H1  
H2  O   H1  H2  O   H1  H2  O   H1  H2  O   H1  H2  O   H1  H2  O   H1  H2  O   
H1  H2  O   H1  H2  O   H1  H2  O   H1  H2  O   H1  H2  O   H1  H2  O   H1  H2  
O   H1  H2  O   H1  H2  O   H1  H2  O   H1  H2  O   H1  H2  O   H1  H2  O   H1  
H2  O   H1  H2  O   H1  H2  O   H1  H2  O   H1  H2  O   H1  H2  O   H1  H2  O   
H1  H2  O   H1  H2  O   H1  H2  O   H1  H2  O   H1  H2  O   H1  H2  O   H1  H2  
O   H1  H2  O   H1  H2  O   H1  H2  O   H1  H2  O   H1  H2  O   H1  H2  O   H1  
H2  O   H1  H2  O   H1  H2  O   H1  H2  O   H1  H2  O   H1  H2  O   H1  H2  O   
H1  H2  O   H1  H2  O   H1  H2  O   H1  H2  O   H1  H2  O   H1  H2  O   H1  H2  
O   H1  H2  O   H1  H2  O   H1  H2  O   H1  H2  O   H1  H2  O   H1  H2  O   H1  
H2  O   H1  H2  O   H1  H2  O   H1  H2  O   H1  H2  O   H1  H2  O   H1  H2  O   
H1  H2  O   H1  H2  O   H1  H2  O   H1  H2  O   H1  H2  O   H1  H2  O   H1  H2  
O   H1  H2  O   H1  H2  O   H1  H2  O   H1  H2  O   H1  H2  O   H1  H2  O   H1  
H2  O   H1  H2  O   H1  H2  O   H1  H2  O   H1  H2  O   H1  H2  O   H1  H2  O   
H1  H2  O   H1  H2  O   H1  H2  O   H1  H2  O   H1  H2  O   H1  H2  O   H1  H2  
O   H1  H2  O   H1  H2  O   H1  H2  O   H1  H2  O   H1  H2  O   H1  H2  O   H1  
H2  O   H1  H2  O   H1  H2  O   H1  H2  O   H1  H2  O   H1  H2  O   H1  H2  O   
H1  H2  O   H1  H2  O   H1  H2  O   H1  H2  O   H1  H2  O   H1  H2  O   H1  H2  
O   H1  H2  O   H1  H2  O   H1  H2  O   H1  H2  O   H1  H2  O   H1  H2  O   H1  
H2  O   H1  H2  O   H1  H2  O   H1  H2  O   H1  H2  O   H1  H2  O   H1  H2  O   
H1  H2  O   H1  H2  O   H1  H2  O   H1  H2  O   H1  H2  O   H1  H2  O   H1  H2  
O   H1  H2  O   H1  H2  O   H1  H2  O   H1  H2  O   H1  H2  O   H1  H2  O   H1  
H2  O   H1  H2  O   H1  H2  O   H1  H2  O   H1  H2  O   H1  H2  O   H1  H2  O   
H1  H2  O   H1  H2  O   H1  H2  O   H1  H2  O   H1  H2  O   H1  H2  O   H1  H2  
O   H1  H2  O   H1  H2  O   H1  H2  O   H1  H2  O   H1  H2  O   H1  H2  O   H1  
H2  O   H1  H2  O   H1  H2  O   H1  H2  O   H1  H2  O   H1  H2  O   H1  H2  O   
H1  H2  O   H1  H2  O   H1  H2  O   H1  H2  O   H1  H2  O   H1  H2  O   H1  H2  
O   H1  H2  O   H1  H2  O   H1  H2  O   H1  H2  O   H1  H2  O   H1  H2  O   H1  
H2  O   H1  H2  O   H1  H2  O   H1  H2  O   H1  H2  O   H1  H2  O   H1  H2  O   
H1  H2  O   H1  H2  O   H1  H2  O   H1  H2  O   H1  H2  O   H1  H2  O   H1  H2  
O   H1  H2  O   H1  H2  O   H1  H2  O   H1  H2  O   H1  H2  O   H1  H2  O   H1  
H2  O   H1  H2  O   H1  H2  O   H1  H2  O   H1  H2  O   H1  H2  O   H1  H2  O   
H1  H2  O   H1  H2  O   H1  H2  O   H1  H2  O   H1  H2  O   H1  H2  O   H1  H2  
O   H1  H2  O   H1  H2  O   H1  H2  O   H1  H2  O   H1  H2  O   H1  H2  O   H1  
H2  O   H1  H2  O   H1  H2  O   H1  H2  O   H1  H2  O   H1  H2  O   H1  H2  O   
H1  H2  O   H1  H2  O   H1  H2  O   H1  H2  O   H1  H2  O   H1  H2  O   H1  H2  
O   H1  H2  O   H1  H2  O   H1  H2  O   H1  H2  O   H1  H2  O   H1  H2  O   H1  
H2  O   H1  H2  O   H1  H2  O   H1  H2  O   H1  H2  O   H1  H2  O   H1  H2  O   
H1  H2  O   H1  H2  O   H1  H2  O   H1  H2  O   H1  H2  O   H1  H2  O   H1  H2  
O   H1  H2  O   H1  H2  O   H1  H2  O   H1  H2  O   H1  H2  O   H1  H2  O   H1  
H2  O   H1  H2  O   H1  H2  O   H1  H2  O   H1  H2  O   H1  H2  O   H1  H2  O   
H1  H2  O   H1  H2  O   H1  H2  O   H1  H2  O   H1  H2  O   H1  H2  O   H1  H2  
O   H1  H2  O   H1  H2  O   H1  H2  O   H1  H2  O   H1  H2  O   H1  H2  O   H1  
H2  O   H1  H2  O   H1  H2  O   H1  H2  O   H1  H2  O   H1  H2  O   H1  H2  O   
H1  H2  O   H1  H2  O   H1  H2  O   H1  H2  O   H1  H2  O   H1  H2  O   H1  H2  
O   H1  H2  O   H1  H2  O   H1  H2  O   H1  H2  O   H1  H2  O   H1  H2  O   H1  
H2  O   H1  H2  O   H1  H2  O   H1  H2  O   H1  H2  O   H1  H2  O   H1  H2  O   
H1  H2  O   H1  H2  O   H1  H2  O   H1  H2  O   H1  H2  O   H1  H2  O   H1  H2  
O   H1  H2  O   H1  H2  O   H1  H2  O   H1  H2  O   H1  H2  O   H1  H2  O   H1  
H2  O   H1  H2  O   H1  H2  O   H1  H2  O   H1  H2  O   H1  H2  O   H1  H2  O   
H1  H2  O   H1  H2  O   H1  H2  O   H1  H2  O   H1  H2  O   H1  H2  O   H1  H2  
O   H1  H2  O   H1  H2  O   H1  H2  O   H1  H2  O   H1  H2  O   H1  H2  O   H1  
H2  O   H1  H2  O   H1  H2  O   H1  H2  O   H1  H2  O   H1  H2  O   H1  H2  O   
H1  H2  O   H1  H2  O   H1  H2  O   H1  H2  O   H1  H2  O   H1  H2  O   H1  H2  
O   H1  H2  O   H1  H2  O   H1  H2  O   H1  H2  O   H1  H2  O   H1  H2  O   H1  
H2  O   H1  H2  O   H1  H2  O   H1  H2  O   H1  H2  O   H1  H2  O   H1  H2  O   
H1  H2  O   H1  H2  O   H1  H2  O   H1  H2  O   H1  H2  O   H1  H2  O   H1  H2  
O   H1  H2  O   H1  H2  O   H1  H2  O   H1  H2  O   H1  H2  O   H1  H2  O   H1  
H2  O   H1  H2  O   H1  H2  O   H1  H2  O   H1  H2  O   H1  H2  O   H1  H2  O   
H1  H2  O   H1  H2  O   H1  H2  O   H1  H2  O   H1  H2  O   H1  H2  O   H1  H2  
O   H1  H2  O   H1  H2  O   H1  H2  O   H1  H2  O   H1  H2  O   H1  H2  O   H1  
H2  O   H1  H2  O   H1  H2  O   H1  H2  O   H1  H2  O   H1  H2  O   H1  H2  O   
H1  H2  O   H1  H2  O   H1  H2  O   H1  H2  O   H1  H2  O   H1  H2  O   H1  H2  
O   H1  H2  O   H1  H2  O   H1  H2  O   H1  H2  O   H1  H2  O   H1  H2  O   H1  
H2  O   H1  H2  O   H1  H2  O   H1  H2  O   H1  H2  O   H1  H2  O   H1  H2  O   
H1  H2  O   H1  H2  O   H1  H2  O   H1  H2  O   H1  H2  O   H1  H2  O   H1  H2  
O   H1  H2  O   H1  H2  O   H1  H2  O   H1  H2  O   H1  H2  O   H1  H2  O   H1  
H2  O   H1  H2  O   H1  H2  O   H1  H2  O   H1  H2  O   H1  H2  O   H1  H2  O   
H1  H2  O   H1  H2  O   H1  H2  O   H1  H2  O   H1  H2  O   H1  H2  O   H1  H2  
O   H1  H2  O   H1  H2  O   H1  H2  O   H1  H2  O   H1  H2  O   H1  H2  O   H1  
H2  O   H1  H2  O   H1  H2  O   H1  H2  O   H1  H2  O   H1  H2  O   H1  H2  O   
H1  H2  O   H1  H2  O   H1  H2  O   H1  H2  O   H1  H2  O   H1  H2  O   H1  H2  
O   H1  H2  O   H1  H2  O   H1  H2  O   H1  H2  O   H1  H2  O   H1  H2  O   H1  
H2  O   H1  H2  O   H1  H2  O   H1  H2  O   H1  H2  O   H1  H2  O   H1  H2  O   
H1  H2  O   H1  H2  O   H1  H2  O   H1  H2  O   H1  H2  O   H1  H2  O   H1  H2  
O   H1  H2  O   H1  H2  O   H1  H2  O   H1  H2  O   H1  H2  O   H1  H2  O   H1  
H2  O   H1  H2  O   H1  H2  O   H1  H2  O   H1  H2  O   H1  H2  O   H1  H2  O   
H1  H2  O   H1  H2  O   H1  H2  O   H1  H2  O   H1  H2  O   H1  H2  O   H1  H2  
O   H1  H2  O   H1  H2  O   H1  H2  O   H1  H2  O   H1  H2  O   H1  H2  O   H1  
H2  O   H1  H2  O   H1  H2  O   H1  H2  O   H1  H2  O   H1  H2  O   H1  H2  O   
H1  H2  O   H1  H2  O   H1  H2  O   H1  H2  O   H1  H2  O   H1  H2  O   H1  H2  
O   H1  H2  O   H1  H2  O   H1  H2  O   H1  H2  O   H1  H2  O   H1  H2  O   H1  
H2  O   H1  H2  O   H1  H2  O   H1  H2  O   H1  H2  O   H1  H2  O   H1  H2  O   
H1  H2  O   H1  H2  O   H1  H2  O   H1  H2  O   H1  H2  O   H1  H2  O   H1  H2  
O   H1  H2  O   H1  H2  O   H1  H2  O   H1  H2  O   H1  H2  O   H1  H2  O   H1  
H2  O   H1  H2  O   H1  H2  O   H1  H2  O   H1  H2  O   H1  H2  O   H1  H2  O   
H1  H2  O   H1  H2  O   H1  H2  O   H1  H2  O   H1  H2  O   H1  H2  O   H1  H2  
O   H1  H2  O   H1  H2  O   H1  H2  O   H1  H2  O   H1  H2  O   H1  H2  O   H1  
H2  O   H1  H2  O   H1  H2  O   H1  H2  O   H1  H2  O   H1  H2  O   H1  H2  O   
H1  H2  O   H1  H2  O   H1  H2  O   H1  H2  O   H1  H2  O   H1  H2  O   H1  H2  
O   H1  H2  O   H1  H2  O   H1  H2  O   H1  H2  O   H1  H2  O   H1  H2  O   H1  
H2  O   H1  H2  O   H1  H2  O   H1  H2  O   H1  H2  O   H1  H2  O   H1  H2  O   
H1  H2  O   H1  H2  O   H1  H2  O   H1  H2  O   H1  H2  O   H1  H2  O   H1  H2  
O   H1  H2  O   H1  H2  O   H1  H2  O   H1  H2  O   H1  H2  O   H1  H2  O   H1  
H2  O   H1  H2  O   H1  H2  O   H1  H2  O   H1  H2  O   H1  H2  O   H1  H2  O   
H1  H2  O   H1  H2  O   H1  H2  O   H1  H2  O   H1  H2  O   H1  H2  O   H1  H2  
O   H1  H2  O   H1  H2  O   H1  H2  O   H1  H2  O   H1  H2  O   H1  H2  O   H1  
H2  O   H1  H2  O   H1  H2  O   H1  H2  O   H1  H2  O   H1  H2  O   H1  H2  O   
H1  H2  O   H1  H2  O   H1  H2  O   H1  H2  O   H1  H2  O   H1  H2  O   H1  H2  
O   H1  H2  O   H1  H2  O   H1  H2  O   H1  H2  O   H1  H2  O   H1  H2  O   H1  
H2  O   H1  H2  O   H1  H2  O   H1  H2  O   H1  H2  O   H1  H2  O   H1  H2  O   
H1  H2  O   H1  H2  O   H1  H2  O   H1  H2  O   H1  H2  O   H1  H2  O   H1  H2  
O   H1  H2  O   H1  H2  O   H1  H2  O   H1  H2  O   H1  H2  O   H1  H2  O   H1  
H2  O   H1  H2  O   H1  H2  O   H1  H2  O   H1  H2  O   H1  H2  O   H1  H2  O   
H1  H2  O   H1  H2  O   H1  H2  O   H1  H2  O   H1  H2  O   H1  H2  O   H1  H2  
O   H1  H2  O   H1  H2  O   H1  H2  O   H1  H2  O   H1  H2  O   H1  H2  O   H1  
H2  O   H1  H2  O   H1  H2  O   H1  H2  O   H1  H2  O   H1  H2  O   H1  H2  O   
H1  H2  O   H1  H2  O   H1  H2  O   H1  H2  O   H1  H2  O   H1  H2  O   H1  H2  
O   H1  H2  O   H1  H2  O   H1  H2  O   H1  H2  O   H1  H2  O   H1  H2  O   H1  
H2  O   H1  H2  O   H1  H2  O   H1  H2  O   H1  H2  O   H1  H2  O   H1  H2  O   
H1  H2  O   H1  H2  O   H1  H2  O   H1  H2  O   H1  H2  O   H1  H2  O   H1  H2  
O   H1  H2  O   H1  H2  O   H1  H2  O   H1  H2  O   H1  H2  O   H1  H2  O   H1  
H2  O   H1  H2  O   H1  H2  
%FLAG CHARGE                                                                    
%FORMAT(5E16.8)                                                                 
 -1.33314347E+01  3.03036849E+00 -1.58679788E+01  3.03036849E+00 -1.33314347E+01
 -1.58679788E+01  3.03036849E+00 -1.33314347E+01 -1.58679788E+01  3.03036849E+00
 -1.58679788E+01  3.03036849E+00 -1.58679788E+01  3.03036849E+00 -1.58679788E+01
  1.25976227E+00  1.64778246E+01  1.25976227E+00  1.64778246E+01  1.25976227E+00
  1.64778246E+01  6.32313810E-01  6.32313810E-01  6.32313810E-01  6.32313810E-01
  2.52688634E-01  2.52688634E-01  2.52688634E-01  2.52688634E-01  2.52688634E-01
  2.52688634E-01  6.32313810E-01  6.32313810E-01  6.32313810E-01  6.32313810E-01
  6.32313810E-01  6.32313810E-01  6.32313810E-01  6.32313810E-01  3.64446000E+01
  1.82223000E+01 -1.54452215E+01  7.72261074E+00  7.72261074E+00 -1.54452215E+01
  7.72261074E+00  7.72261074E+00 -1.54452215E+01  7.72261074E+00  7.72261074E+00
 -1.54452215E+01  7.72261074E+00  7.72261074E+00 -1.54452215E+01  7.72261074E+00
  7.72261074E+00 -1.54452215E+01  7.72261074E+00  7.72261074E+00 -1.54452215E+01
  7.72261074E+00  7.72261074E+00 -1.54452215E+01  7.72261074E+00  7.72261074E+00
 -1.54452215E+01  7.72261074E+00  7.72261074E+00 -1.54452215E+01  7.72261074E+00
  7.72261074E+00 -1.54452215E+01  7.72261074E+00  7.72261074E+00 -1.54452215E+01
  7.72261074E+00  7.72261074E+00 -1.54452215E+01  7.72261074E+00  7.72261074E+00
 -1.54452215E+01  7.72261074E+00  7.72261074E+00 -1.54452215E+01  7.72261074E+00
  7.72261074E+00 -1.54452215E+01  7.72261074E+00  7.72261074E+00 -1.54452215E+01
  7.72261074E+00  7.72261074E+00 -1.54452215E+01  7.72261074E+00  7.72261074E+00
 -1.54452215E+01  7.72261074E+00  7.72261074E+00 -1.54452215E+01  7.72261074E+00
  7.72261074E+00 -1.54452215E+01  7.72261074E+00  7.72261074E+00 -1.54452215E+01
  7.72261074E+00  7.72261074E+00 -1.54452215E+01  7.72261074E+00  7.72261074E+00
 -1.54452215E+01  7.72261074E+00  7.72261074E+00 -1.54452215E+01  7.72261074E+00
  7.72261074E+00 -1.54452215E+01  7.72261074E+00  7.72261074E+00 -1.54452215E+01
  7.72261074E+00  7.72261074E+00 -1.54452215E+01  7.72261074E+00  7.72261074E+00
 -1.54452215E+01  7.72261074E+00  7.72261074E+00 -1.54452215E+01  7.72261074E+00
  7.72261074E+00 -1.54452215E+01  7.72261074E+00  7.72261074E+00 -1.54452215E+01
  7.72261074E+00  7.72261074E+00 -1.54452215E+01  7.72261074E+00  7.72261074E+00
 -1.54452215E+01  7.72261074E+00  7.72261074E+00 -1.54452215E+01  7.72261074E+00
  7.72261074E+00 -1.54452215E+01  7.72261074E+00  7.72261074E+00 -1.54452215E+01
  7.72261074E+00  7.72261074E+00 -1.54452215E+01  7.72261074E+00  7.72261074E+00
 -1.54452215E+01  7.72261074E+00  7.72261074E+00 -1.54452215E+01  7.72261074E+00
  7.72261074E+00 -1.54452215E+01  7.72261074E+00  7.72261074E+00 -1.54452215E+01
  7.72261074E+00  7.72261074E+00 -1.54452215E+01  7.72261074E+00  7.72261074E+00
 -1.54452215E+01  7.72261074E+00  7.72261074E+00 -1.54452215E+01  7.72261074E+00
  7.72261074E+00 -1.54452215E+01  7.72261074E+00  7.72261074E+00 -1.54452215E+01
  7.72261074E+00  7.72261074E+00 -1.54452215E+01  7.72261074E+00  7.72261074E+00
 -1.54452215E+01  7.72261074E+00  7.72261074E+00 -1.54452215E+01  7.72261074E+00
  7.72261074E+00 -1.54452215E+01  7.72261074E+00  7.72261074E+00 -1.54452215E+01
  7.72261074E+00  7.72261074E+00 -1.54452215E+01  7.72261074E+00  7.72261074E+00
 -1.54452215E+01  7.72261074E+00  7.72261074E+00 -1.54452215E+01  7.72261074E+00
  7.72261074E+00 -1.54452215E+01  7.72261074E+00  7.72261074E+00 -1.54452215E+01
  7.72261074E+00  7.72261074E+00 -1.54452215E+01  7.72261074E+00  7.72261074E+00
 -1.54452215E+01  7.72261074E+00  7.72261074E+00 -1.54452215E+01  7.72261074E+00
  7.72261074E+00 -1.54452215E+01  7.72261074E+00  7.72261074E+00 -1.54452215E+01
  7.72261074E+00  7.72261074E+00 -1.54452215E+01  7.72261074E+00  7.72261074E+00
 -1.54452215E+01  7.72261074E+00  7.72261074E+00 -1.54452215E+01  7.72261074E+00
  7.72261074E+00 -1.54452215E+01  7.72261074E+00  7.72261074E+00 -1.54452215E+01
  7.72261074E+00  7.72261074E+00 -1.54452215E+01  7.72261074E+00  7.72261074E+00
 -1.54452215E+01  7.72261074E+00  7.72261074E+00 -1.54452215E+01  7.72261074E+00
  7.72261074E+00 -1.54452215E+01  7.72261074E+00  7.72261074E+00 -1.54452215E+01
  7.72261074E+00  7.72261074E+00 -1.54452215E+01  7.72261074E+00  7.72261074E+00
 -1.54452215E+01  7.72261074E+00  7.72261074E+00 -1.54452215E+01  7.72261074E+00
  7.72261074E+00 -1.54452215E+01  7.72261074E+00  7.72261074E+00 -1.54452215E+01
  7.72261074E+00  7.72261074E+00 -1.54452215E+01  7.72261074E+00  7.72261074E+00
 -1.54452215E+01  7.72261074E+00  7.72261074E+00 -1.54452215E+01  7.72261074E+00
  7.72261074E+00 -1.54452215E+01  7.72261074E+00  7.72261074E+00 -1.54452215E+01
  7.72261074E+00  7.72261074E+00 -1.54452215E+01  7.72261074E+00  7.72261074E+00
 -1.54452215E+01  7.72261074E+00  7.72261074E+00 -1.54452215E+01  7.72261074E+00
  7.72261074E+00 -1.54452215E+01  7.72261074E+00  7.72261074E+00 -1.54452215E+01
  7.72261074E+00  7.72261074E+00 -1.54452215E+01  7.72261074E+00  7.72261074E+00
 -1.54452215E+01  7.72261074E+00  7.72261074E+00 -1.54452215E+01  7.72261074E+00
  7.72261074E+00 -1.54452215E+01  7.72261074E+00  7.72261074E+00 -1.54452215E+01
  7.72261074E+00  7.72261074E+00 -1.54452215E+01  7.72261074E+00  7.72261074E+00
 -1.54452215E+01  7.72261074E+00  7.72261074E+00 -1.54452215E+01  7.72261074E+00
  7.72261074E+00 -1.54452215E+01  7.72261074E+00  7.72261074E+00 -1.54452215E+01
  7.72261074E+00  7.72261074E+00 -1.54452215E+01  7.72261074E+00  7.72261074E+00
 -1.54452215E+01  7.72261074E+00  7.72261074E+00 -1.54452215E+01  7.72261074E+00
  7.72261074E+00 -1.54452215E+01  7.72261074E+00  7.72261074E+00 -1.54452215E+01
  7.72261074E+00  7.72261074E+00 -1.54452215E+01  7.72261074E+00  7.72261074E+00
 -1.54452215E+01  7.72261074E+00  7.72261074E+00 -1.54452215E+01  7.72261074E+00
  7.72261074E+00 -1.54452215E+01  7.72261074E+00  7.72261074E+00 -1.54452215E+01
  7.72261074E+00  7.72261074E+00 -1.54452215E+01  7.72261074E+00  7.72261074E+00
 -1.54452215E+01  7.72261074E+00  7.72261074E+00 -1.54452215E+01  7.72261074E+00
  7.72261074E+00 -1.54452215E+01  7.72261074E+00  7.72261074E+00 -1.54452215E+01
  7.72261074E+00  7.72261074E+00 -1.54452215E+01  7.72261074E+00  7.72261074E+00
 -1.54452215E+01  7.72261074E+00  7.72261074E+00 -1.54452215E+01  7.72261074E+00
  7.72261074E+00 -1.54452215E+01  7.72261074E+00  7.72261074E+00 -1.54452215E+01
  7.72261074E+00  7.72261074E+00 -1.54452215E+01  7.72261074E+00  7.72261074E+00
 -1.54452215E+01  7.72261074E+00  7.72261074E+00 -1.54452215E+01  7.72261074E+00
  7.72261074E+00 -1.54452215E+01  7.72261074E+00  7.72261074E+00 -1.54452215E+01
  7.72261074E+00  7.72261074E+00 -1.54452215E+01  7.72261074E+00  7.72261074E+00
 -1.54452215E+01  7.72261074E+00  7.72261074E+00 -1.54452215E+01  7.72261074E+00
  7.72261074E+00 -1.54452215E+01  7.72261074E+00  7.72261074E+00 -1.54452215E+01
  7.72261074E+00  7.72261074E+00 -1.54452215E+01  7.72261074E+00  7.72261074E+00
 -1.54452215E+01  7.72261074E+00  7.72261074E+00 -1.54452215E+01  7.72261074E+00
  7.72261074E+00 -1.54452215E+01  7.72261074E+00  7.72261074E+00 -1.54452215E+01
  7.72261074E+00  7.72261074E+00 -1.54452215E+01  7.72261074E+00  7.72261074E+00
 -1.54452215E+01  7.72261074E+00  7.72261074E+00 -1.54452215E+01  7.72261074E+00
  7.72261074E+00 -1.54452215E+01  7.72261074E+00  7.72261074E+00 -1.54452215E+01
  7.72261074E+00  7.72261074E+00 -1.54452215E+01  7.72261074E+00  7.72261074E+00
 -1.54452215E+01  7.72261074E+00  7.72261074E+00 -1.54452215E+01  7.72261074E+00
  7.72261074E+00 -1.54452215E+01  7.72261074E+00  7.72261074E+00 -1.54452215E+01
  7.72261074E+00  7.72261074E+00 -1.54452215E+01  7.72261074E+00  7.72261074E+00
 -1.54452215E+01  7.72261074E+00  7.72261074E+00 -1.54452215E+01  7.72261074E+00
  7.72261074E+00 -1.54452215E+01  7.72261074E+00  7.72261074E+00 -1.54452215E+01
  7.72261074E+00  7.72261074E+00 -1.54452215E+01  7.72261074E+00  7.72261074E+00
 -1.54452215E+01  7.72261074E+00  7.72261074E+00 -1.54452215E+01  7.72261074E+00
  7.72261074E+00 -1.54452215E+01  7.72261074E+00  7.72261074E+00 -1.54452215E+01
  7.72261074E+00  7.72261074E+00 -1.54452215E+01  7.72261074E+00  7.72261074E+00
 -1.54452215E+01  7.72261074E+00  7.72261074E+00 -1.54452215E+01  7.72261074E+00
  7.72261074E+00 -1.54452215E+01  7.72261074E+00  7.72261074E+00 -1.54452215E+01
  7.72261074E+00  7.72261074E+00 -1.54452215E+01  7.72261074E+00  7.72261074E+00
 -1.54452215E+01  7.72261074E+00  7.72261074E+00 -1.54452215E+01  7.72261074E+00
  7.72261074E+00 -1.54452215E+01  7.72261074E+00  7.72261074E+00 -1.54452215E+01
  7.72261074E+00  7.72261074E+00 -1.54452215E+01  7.72261074E+00  7.72261074E+00
 -1.54452215E+01  7.72261074E+00  7.72261074E+00 -1.54452215E+01  7.72261074E+00
  7.72261074E+00 -1.54452215E+01  7.72261074E+00  7.72261074E+00 -1.54452215E+01
  7.72261074E+00  7.72261074E+00 -1.54452215E+01  7.72261074E+00  7.72261074E+00
 -1.54452215E+01  7.72261074E+00  7.72261074E+00 -1.54452215E+01  7.72261074E+00
  7.72261074E+00 -1.54452215E+01  7.72261074E+00  7.72261074E+00 -1.54452215E+01
  7.72261074E+00  7.72261074E+00 -1.54452215E+01  7.72261074E+00  7.72261074E+00
 -1.54452215E+01  7.72261074E+00  7.72261074E+00 -1.54452215E+01  7.72261074E+00
  7.72261074E+00 -1.54452215E+01  7.72261074E+00  7.72261074E+00 -1.54452215E+01
  7.72261074E+00  7.72261074E+00 -1.54452215E+01  7.72261074E+00  7.72261074E+00
 -1.54452215E+01  7.72261074E+00  7.72261074E+00 -1.54452215E+01  7.72261074E+00
  7.72261074E+00 -1.54452215E+01  7.72261074E+00  7.72261074E+00 -1.54452215E+01
  7.72261074E+00  7.72261074E+00 -1.54452215E+01  7.72261074E+00  7.72261074E+00
 -1.54452215E+01  7.72261074E+00  7.72261074E+00 -1.54452215E+01  7.72261074E+00
  7.72261074E+00 -1.54452215E+01  7.72261074E+00  7.72261074E+00 -1.54452215E+01
  7.72261074E+00  7.72261074E+00 -1.54452215E+01  7.72261074E+00  7.72261074E+00
 -1.54452215E+01  7.72261074E+00  7.72261074E+00 -1.54452215E+01  7.72261074E+00
  7.72261074E+00 -1.54452215E+01  7.72261074E+00  7.72261074E+00 -1.54452215E+01
  7.72261074E+00  7.72261074E+00 -1.54452215E+01  7.72261074E+00  7.72261074E+00
 -1.54452215E+01  7.72261074E+00  7.72261074E+00 -1.54452215E+01  7.72261074E+00
  7.72261074E+00 -1.54452215E+01  7.72261074E+00  7.72261074E+00 -1.54452215E+01
  7.72261074E+00  7.72261074E+00 -1.54452215E+01  7.72261074E+00  7.72261074E+00
 -1.54452215E+01  7.72261074E+00  7.72261074E+00 -1.54452215E+01  7.72261074E+00
  7.72261074E+00 -1.54452215E+01  7.72261074E+00  7.72261074E+00 -1.54452215E+01
  7.72261074E+00  7.72261074E+00 -1.54452215E+01  7.72261074E+00  7.72261074E+00
 -1.54452215E+01  7.72261074E+00  7.72261074E+00 -1.54452215E+01  7.72261074E+00
  7.72261074E+00 -1.54452215E+01  7.72261074E+00  7.72261074E+00 -1.54452215E+01
  7.72261074E+00  7.72261074E+00 -1.54452215E+01  7.72261074E+00  7.72261074E+00
 -1.54452215E+01  7.72261074E+00  7.72261074E+00 -1.54452215E+01  7.72261074E+00
  7.72261074E+00 -1.54452215E+01  7.72261074E+00  7.72261074E+00 -1.54452215E+01
  7.72261074E+00  7.72261074E+00 -1.54452215E+01  7.72261074E+00  7.72261074E+00
 -1.54452215E+01  7.72261074E+00  7.72261074E+00 -1.54452215E+01  7.72261074E+00
  7.72261074E+00 -1.54452215E+01  7.72261074E+00  7.72261074E+00 -1.54452215E+01
  7.72261074E+00  7.72261074E+00 -1.54452215E+01  7.72261074E+00  7.72261074E+00
 -1.54452215E+01  7.72261074E+00  7.72261074E+00 -1.54452215E+01  7.72261074E+00
  7.72261074E+00 -1.54452215E+01  7.72261074E+00  7.72261074E+00 -1.54452215E+01
  7.72261074E+00  7.72261074E+00 -1.54452215E+01  7.72261074E+00  7.72261074E+00
 -1.54452215E+01  7.72261074E+00  7.72261074E+00 -1.54452215E+01  7.72261074E+00
  7.72261074E+00 -1.54452215E+01  7.72261074E+00  7.72261074E+00 -1.54452215E+01
  7.72261074E+00  7.72261074E+00 -1.54452215E+01  7.72261074E+00  7.72261074E+00
 -1.54452215E+01  7.72261074E+00  7.72261074E+00 -1.54452215E+01  7.72261074E+00
  7.72261074E+00 -1.54452215E+01  7.72261074E+00  7.72261074E+00 -1.54452215E+01
  7.72261074E+00  7.72261074E+00 -1.54452215E+01  7.72261074E+00  7.72261074E+00
 -1.54452215E+01  7.72261074E+00  7.72261074E+00 -1.54452215E+01  7.72261074E+00
  7.72261074E+00 -1.54452215E+01  7.72261074E+00  7.72261074E+00 -1.54452215E+01
  7.72261074E+00  7.72261074E+00 -1.54452215E+01  7.72261074E+00  7.72261074E+00
 -1.54452215E+01  7.72261074E+00  7.72261074E+00 -1.54452215E+01  7.72261074E+00
  7.72261074E+00 -1.54452215E+01  7.72261074E+00  7.72261074E+00 -1.54452215E+01
  7.72261074E+00  7.72261074E+00 -1.54452215E+01  7.72261074E+00  7.72261074E+00
 -1.54452215E+01  7.72261074E+00  7.72261074E+00 -1.54452215E+01  7.72261074E+00
  7.72261074E+00 -1.54452215E+01  7.72261074E+00  7.72261074E+00 -1.54452215E+01
  7.72261074E+00  7.72261074E+00 -1.54452215E+01  7.72261074E+00  7.72261074E+00
 -1.54452215E+01  7.72261074E+00  7.72261074E+00 -1.54452215E+01  7.72261074E+00
  7.72261074E+00 -1.54452215E+01  7.72261074E+00  7.72261074E+00 -1.54452215E+01
  7.72261074E+00  7.72261074E+00 -1.54452215E+01  7.72261074E+00  7.72261074E+00
 -1.54452215E+01  7.72261074E+00  7.72261074E+00 -1.54452215E+01  7.72261074E+00
  7.72261074E+00 -1.54452215E+01  7.72261074E+00  7.72261074E+00 -1.54452215E+01
  7.72261074E+00  7.72261074E+00 -1.54452215E+01  7.72261074E+00  7.72261074E+00
 -1.54452215E+01  7.72261074E+00  7.72261074E+00 -1.54452215E+01  7.72261074E+00
  7.72261074E+00 -1.54452215E+01  7.72261074E+00  7.72261074E+00 -1.54452215E+01
  7.72261074E+00  7.72261074E+00 -1.54452215E+01  7.72261074E+00  7.72261074E+00
 -1.54452215E+01  7.72261074E+00  7.72261074E+00 -1.54452215E+01  7.72261074E+00
  7.72261074E+00 -1.54452215E+01  7.72261074E+00  7.72261074E+00 -1.54452215E+01
  7.72261074E+00  7.72261074E+00 -1.54452215E+01  7.72261074E+00  7.72261074E+00
 -1.54452215E+01  7.72261074E+00  7.72261074E+00 -1.54452215E+01  7.72261074E+00
  7.72261074E+00 -1.54452215E+01  7.72261074E+00  7.72261074E+00 -1.54452215E+01
  7.72261074E+00  7.72261074E+00 -1.54452215E+01  7.72261074E+00  7.72261074E+00
 -1.54452215E+01  7.72261074E+00  7.72261074E+00 -1.54452215E+01  7.72261074E+00
  7.72261074E+00 -1.54452215E+01  7.72261074E+00  7.72261074E+00 -1.54452215E+01
  7.72261074E+00  7.72261074E+00 -1.54452215E+01  7.72261074E+00  7.72261074E+00
 -1.54452215E+01  7.72261074E+00  7.72261074E+00 -1.54452215E+01  7.72261074E+00
  7.72261074E+00 -1.54452215E+01  7.72261074E+00  7.72261074E+00 -1.54452215E+01
  7.72261074E+00  7.72261074E+00 -1.54452215E+01  7.72261074E+00  7.72261074E+00
 -1.54452215E+01  7.72261074E+00  7.72261074E+00 -1.54452215E+01  7.72261074E+00
  7.72261074E+00 -1.54452215E+01  7.72261074E+00  7.72261074E+00 -1.54452215E+01
  7.72261074E+00  7.72261074E+00 -1.54452215E+01  7.72261074E+00  7.72261074E+00
 -1.54452215E+01  7.72261074E+00  7.72261074E+00 -1.54452215E+01  7.72261074E+00
  7.72261074E+00 -1.54452215E+01  7.72261074E+00  7.72261074E+00 -1.54452215E+01
  7.72261074E+00  7.72261074E+00 -1.54452215E+01  7.72261074E+00  7.72261074E+00
 -1.54452215E+01  7.72261074E+00  7.72261074E+00 -1.54452215E+01  7.72261074E+00
  7.72261074E+00 -1.54452215E+01  7.72261074E+00  7.72261074E+00 -1.54452215E+01
  7.72261074E+00  7.72261074E+00 -1.54452215E+01  7.72261074E+00  7.72261074E+00
 -1.54452215E+01  7.72261074E+00  7.72261074E+00 -1.54452215E+01  7.72261074E+00
  7.72261074E+00 -1.54452215E+01  7.72261074E+00  7.72261074E+00 -1.54452215E+01
  7.72261074E+00  7.72261074E+00 -1.54452215E+01  7.72261074E+00  7.72261074E+00
 -1.54452215E+01  7.72261074E+00  7.72261074E+00 -1.54452215E+01  7.72261074E+00
  7.72261074E+00 -1.54452215E+01  7.72261074E+00  7.72261074E+00 -1.54452215E+01
  7.72261074E+00  7.72261074E+00 -1.54452215E+01  7.72261074E+00  7.72261074E+00
 -1.54452215E+01  7.72261074E+00  7.72261074E+00 -1.54452215E+01  7.72261074E+00
  7.72261074E+00 -1.54452215E+01  7.72261074E+00  7.72261074E+00 -1.54452215E+01
  7.72261074E+00  7.72261074E+00 -1.54452215E+01  7.72261074E+00  7.72261074E+00
 -1.54452215E+01  7.72261074E+00  7.72261074E+00 -1.54452215E+01  7.72261074E+00
  7.72261074E+00 -1.54452215E+01  7.72261074E+00  7.72261074E+00 -1.54452215E+01
  7.72261074E+00  7.72261074E+00 -1.54452215E+01  7.72261074E+00  7.72261074E+00
 -1.54452215E+01  7.72261074E+00  7.72261074E+00 -1.54452215E+01  7.72261074E+00
  7.72261074E+00 -1.54452215E+01  7.72261074E+00  7.72261074E+00 -1.54452215E+01
  7.72261074E+00  7.72261074E+00 -1.54452215E+01  7.72261074E+00  7.72261074E+00
 -1.54452215E+01  7.72261074E+00  7.72261074E+00 -1.54452215E+01  7.72261074E+00
  7.72261074E+00 -1.54452215E+01  7.72261074E+00  7.72261074E+00 -1.54452215E+01
  7.72261074E+00  7.72261074E+00 -1.54452215E+01  7.72261074E+00  7.72261074E+00
 -1.54452215E+01  7.72261074E+00  7.72261074E+00 -1.54452215E+01  7.72261074E+00
  7.72261074E+00 -1.54452215E+01  7.72261074E+00  7.72261074E+00 -1.54452215E+01
  7.72261074E+00  7.72261074E+00 -1.54452215E+01  7.72261074E+00  7.72261074E+00
 -1.54452215E+01  7.72261074E+00  7.72261074E+00 -1.54452215E+01  7.72261074E+00
  7.72261074E+00 -1.54452215E+01  7.72261074E+00  7.72261074E+00 -1.54452215E+01
  7.72261074E+00  7.72261074E+00 -1.54452215E+01  7.72261074E+00  7.72261074E+00
 -1.54452215E+01  7.72261074E+00  7.72261074E+00 -1.54452215E+01  7.72261074E+00
  7.72261074E+00 -1.54452215E+01  7.72261074E+00  7.72261074E+00 -1.54452215E+01
  7.72261074E+00  7.72261074E+00 -1.54452215E+01  7.72261074E+00  7.72261074E+00
 -1.54452215E+01  7.72261074E+00  7.72261074E+00 -1.54452215E+01  7.72261074E+00
  7.72261074E+00 -1.54452215E+01  7.72261074E+00  7.72261074E+00 -1.54452215E+01
  7.72261074E+00  7.72261074E+00 -1.54452215E+01  7.72261074E+00  7.72261074E+00
 -1.54452215E+01  7.72261074E+00  7.72261074E+00 -1.54452215E+01  7.72261074E+00
  7.72261074E+00 -1.54452215E+01  7.72261074E+00  7.72261074E+00 -1.54452215E+01
  7.72261074E+00  7.72261074E+00 -1.54452215E+01  7.72261074E+00  7.72261074E+00
 -1.54452215E+01  7.72261074E+00  7.72261074E+00 -1.54452215E+01  7.72261074E+00
  7.72261074E+00 -1.54452215E+01  7.72261074E+00  7.72261074E+00 -1.54452215E+01
  7.72261074E+00  7.72261074E+00 -1.54452215E+01  7.72261074E+00  7.72261074E+00
 -1.54452215E+01  7.72261074E+00  7.72261074E+00 -1.54452215E+01  7.72261074E+00
  7.72261074E+00 -1.54452215E+01  7.72261074E+00  7.72261074E+00 -1.54452215E+01
  7.72261074E+00  7.72261074E+00 -1.54452215E+01  7.72261074E+00  7.72261074E+00
 -1.54452215E+01  7.72261074E+00  7.72261074E+00 -1.54452215E+01  7.72261074E+00
  7.72261074E+00 -1.54452215E+01  7.72261074E+00  7.72261074E+00 -1.54452215E+01
  7.72261074E+00  7.72261074E+00 -1.54452215E+01  7.72261074E+00  7.72261074E+00
 -1.54452215E+01  7.72261074E+00  7.72261074E+00 -1.54452215E+01  7.72261074E+00
  7.72261074E+00 -1.54452215E+01  7.72261074E+00  7.72261074E+00 -1.54452215E+01
  7.72261074E+00  7.72261074E+00 -1.54452215E+01  7.72261074E+00  7.72261074E+00
 -1.54452215E+01  7.72261074E+00  7.72261074E+00 -1.54452215E+01  7.72261074E+00
  7.72261074E+00 -1.54452215E+01  7.72261074E+00  7.72261074E+00 -1.54452215E+01
  7.72261074E+00  7.72261074E+00 -1.54452215E+01  7.72261074E+00  7.72261074E+00
 -1.54452215E+01  7.72261074E+00  7.72261074E+00 -1.54452215E+01  7.72261074E+00
  7.72261074E+00 -1.54452215E+01  7.72261074E+00  7.72261074E+00 -1.54452215E+01
  7.72261074E+00  7.72261074E+00 -1.54452215E+01  7.72261074E+00  7.72261074E+00
 -1.54452215E+01  7.72261074E+00  7.72261074E+00 -1.54452215E+01  7.72261074E+00
  7.72261074E+00 -1.54452215E+01  7.72261074E+00  7.72261074E+00 -1.54452215E+01
  7.72261074E+00  7.72261074E+00 -1.54452215E+01  7.72261074E+00  7.72261074E+00
 -1.54452215E+01  7.72261074E+00  7.72261074E+00 -1.54452215E+01  7.72261074E+00
  7.72261074E+00 -1.54452215E+01  7.72261074E+00  7.72261074E+00 -1.54452215E+01
  7.72261074E+00  7.72261074E+00 -1.54452215E+01  7.72261074E+00  7.72261074E+00
 -1.54452215E+01  7.72261074E+00  7.72261074E+00 -1.54452215E+01  7.72261074E+00
  7.72261074E+00 -1.54452215E+01  7.72261074E+00  7.72261074E+00 -1.54452215E+01
  7.72261074E+00  7.72261074E+00 -1.54452215E+01  7.72261074E+00  7.72261074E+00
 -1.54452215E+01  7.72261074E+00  7.72261074E+00 -1.54452215E+01  7.72261074E+00
  7.72261074E+00 -1.54452215E+01  7.72261074E+00  7.72261074E+00 -1.54452215E+01
  7.72261074E+00  7.72261074E+00 -1.54452215E+01  7.72261074E+00  7.72261074E+00
 -1.54452215E+01  7.72261074E+00  7.72261074E+00 -1.54452215E+01  7.72261074E+00
  7.72261074E+00 -1.54452215E+01  7.72261074E+00  7.72261074E+00 -1.54452215E+01
  7.72261074E+00  7.72261074E+00 -1.54452215E+01  7.72261074E+00  7.72261074E+00
 -1.54452215E+01  7.72261074E+00  7.72261074E+00 -1.54452215E+01  7.72261074E+00
  7.72261074E+00 -1.54452215E+01  7.72261074E+00  7.72261074E+00 -1.54452215E+01
  7.72261074E+00  7.72261074E+00 -1.54452215E+01  7.72261074E+00  7.72261074E+00
 -1.54452215E+01  7.72261074E+00  7.72261074E+00 -1.54452215E+01  7.72261074E+00
  7.72261074E+00 -1.54452215E+01  7.72261074E+00  7.72261074E+00 -1.54452215E+01
  7.72261074E+00  7.72261074E+00 -1.54452215E+01  7.72261074E+00  7.72261074E+00
 -1.54452215E+01  7.72261074E+00  7.72261074E+00 -1.54452215E+01  7.72261074E+00
  7.72261074E+00 -1.54452215E+01  7.72261074E+00  7.72261074E+00 -1.54452215E+01
  7.72261074E+00  7.72261074E+00 -1.54452215E+01  7.72261074E+00  7.72261074E+00
 -1.54452215E+01  7.72261074E+00  7.72261074E+00 -1.54452215E+01  7.72261074E+00
  7.72261074E+00 -1.54452215E+01  7.72261074E+00  7.72261074E+00 -1.54452215E+01
  7.72261074E+00  7.72261074E+00 -1.54452215E+01  7.72261074E+00  7.72261074E+00
 -1.54452215E+01  7.72261074E+00  7.72261074E+00 -1.54452215E+01  7.72261074E+00
  7.72261074E+00 -1.54452215E+01  7.72261074E+00  7.72261074E+00 -1.54452215E+01
  7.72261074E+00  7.72261074E+00 -1.54452215E+01  7.72261074E+00  7.72261074E+00
 -1.54452215E+01  7.72261074E+00  7.72261074E+00 -1.54452215E+01  7.72261074E+00
  7.72261074E+00 -1.54452215E+01  7.72261074E+00  7.72261074E+00 -1.54452215E+01
  7.72261074E+00  7.72261074E+00 -1.54452215E+01  7.72261074E+00  7.72261074E+00
 -1.54452215E+01  7.72261074E+00  7.72261074E+00 -1.54452215E+01  7.72261074E+00
  7.72261074E+00 -1.54452215E+01  7.72261074E+00  7.72261074E+00 -1.54452215E+01
  7.72261074E+00  7.72261074E+00 -1.54452215E+01  7.72261074E+00  7.72261074E+00
 -1.54452215E+01  7.72261074E+00  7.72261074E+00 -1.54452215E+01  7.72261074E+00
  7.72261074E+00 -1.54452215E+01  7.72261074E+00  7.72261074E+00 -1.54452215E+01
  7.72261074E+00  7.72261074E+00 -1.54452215E+01  7.72261074E+00  7.72261074E+00
 -1.54452215E+01  7.72261074E+00  7.72261074E+00 -1.54452215E+01  7.72261074E+00
  7.72261074E+00 -1.54452215E+01  7.72261074E+00  7.72261074E+00 -1.54452215E+01
  7.72261074E+00  7.72261074E+00 -1.54452215E+01  7.72261074E+00  7.72261074E+00
 -1.54452215E+01  7.72261074E+00  7.72261074E+00 -1.54452215E+01  7.72261074E+00
  7.72261074E+00 -1.54452215E+01  7.72261074E+00  7.72261074E+00 -1.54452215E+01
  7.72261074E+00  7.72261074E+00 -1.54452215E+01  7.72261074E+00  7.72261074E+00
 -1.54452215E+01  7.72261074E+00  7.72261074E+00 -1.54452215E+01  7.72261074E+00
  7.72261074E+00 -1.54452215E+01  7.72261074E+00  7.72261074E+00 -1.54452215E+01
  7.72261074E+00  7.72261074E+00 -1.54452215E+01  7.72261074E+00  7.72261074E+00
 -1.54452215E+01  7.72261074E+00  7.72261074E+00 -1.54452215E+01  7.72261074E+00
  7.72261074E+00 -1.54452215E+01  7.72261074E+00  7.72261074E+00 -1.54452215E+01
  7.72261074E+00  7.72261074E+00 -1.54452215E+01  7.72261074E+00  7.72261074E+00
 -1.54452215E+01  7.72261074E+00  7.72261074E+00 -1.54452215E+01  7.72261074E+00
  7.72261074E+00 -1.54452215E+01  7.72261074E+00  7.72261074E+00 -1.54452215E+01
  7.72261074E+00  7.72261074E+00 -1.54452215E+01  7.72261074E+00  7.72261074E+00
 -1.54452215E+01  7.72261074E+00  7.72261074E+00 -1.54452215E+01  7.72261074E+00
  7.72261074E+00 -1.54452215E+01  7.72261074E+00  7.72261074E+00 -1.54452215E+01
  7.72261074E+00  7.72261074E+00 -1.54452215E+01  7.72261074E+00  7.72261074E+00
 -1.54452215E+01  7.72261074E+00  7.72261074E+00 -1.54452215E+01  7.72261074E+00
  7.72261074E+00 -1.54452215E+01  7.72261074E+00  7.72261074E+00 -1.54452215E+01
  7.72261074E+00  7.72261074E+00 -1.54452215E+01  7.72261074E+00  7.72261074E+00
 -1.54452215E+01  7.72261074E+00  7.72261074E+00 -1.54452215E+01  7.72261074E+00
  7.72261074E+00 -1.54452215E+01  7.72261074E+00  7.72261074E+00 -1.54452215E+01
  7.72261074E+00  7.72261074E+00 -1.54452215E+01  7.72261074E+00  7.72261074E+00
 -1.54452215E+01  7.72261074E+00  7.72261074E+00 -1.54452215E+01  7.72261074E+00
  7.72261074E+00 -1.54452215E+01  7.72261074E+00  7.72261074E+00 -1.54452215E+01
  7.72261074E+00  7.72261074E+00 -1.54452215E+01  7.72261074E+00  7.72261074E+00
 -1.54452215E+01  7.72261074E+00  7.72261074E+00 -1.54452215E+01  7.72261074E+00
  7.72261074E+00 -1.54452215E+01  7.72261074E+00  7.72261074E+00 -1.54452215E+01
  7.72261074E+00  7.72261074E+00 -1.54452215E+01  7.72261074E+00  7.72261074E+00
 -1.54452215E+01  7.72261074E+00  7.72261074E+00 -1.54452215E+01  7.72261074E+00
  7.72261074E+00 -1.54452215E+01  7.72261074E+00  7.72261074E+00 -1.54452215E+01
  7.72261074E+00  7.72261074E+00 -1.54452215E+01  7.72261074E+00  7.72261074E+00
 -1.54452215E+01  7.72261074E+00  7.72261074E+00 -1.54452215E+01  7.72261074E+00
  7.72261074E+00 -1.54452215E+01  7.72261074E+00  7.72261074E+00 -1.54452215E+01
  7.72261074E+00  7.72261074E+00 -1.54452215E+01  7.72261074E+00  7.72261074E+00
 -1.54452215E+01  7.72261074E+00  7.72261074E+00 -1.54452215E+01  7.72261074E+00
  7.72261074E+00 -1.54452215E+01  7.72261074E+00  7.72261074E+00 -1.54452215E+01
  7.72261074E+00  7.72261074E+00 -1.54452215E+01  7.72261074E+00  7.72261074E+00
 -1.54452215E+01  7.72261074E+00  7.72261074E+00 -1.54452215E+01  7.72261074E+00
  7.72261074E+00 -1.54452215E+01  7.72261074E+00  7.72261074E+00 -1.54452215E+01
  7.72261074E+00  7.72261074E+00 -1.54452215E+01  7.72261074E+00  7.72261074E+00
 -1.54452215E+01  7.72261074E+00  7.72261074E+00 -1.54452215E+01  7.72261074E+00
  7.72261074E+00 -1.54452215E+01  7.72261074E+00  7.72261074E+00 -1.54452215E+01
  7.72261074E+00  7.72261074E+00 -1.54452215E+01  7.72261074E+00  7.72261074E+00
 -1.54452215E+01  7.72261074E+00  7.72261074E+00 -1.54452215E+01  7.72261074E+00
  7.72261074E+00 -1.54452215E+01  7.72261074E+00  7.72261074E+00 -1.54452215E+01
  7.72261074E+00  7.72261074E+00 -1.54452215E+01  7.72261074E+00  7.72261074E+00
 -1.54452215E+01  7.72261074E+00  7.72261074E+00 -1.54452215E+01  7.72261074E+00
  7.72261074E+00 -1.54452215E+01  7.72261074E+00  7.72261074E+00 -1.54452215E+01
  7.72261074E+00  7.72261074E+00 -1.54452215E+01  7.72261074E+00  7.72261074E+00
 -1.54452215E+01  7.72261074E+00  7.72261074E+00 -1.54452215E+01  7.72261074E+00
  7.72261074E+00 -1.54452215E+01  7.72261074E+00  7.72261074E+00 -1.54452215E+01
  7.72261074E+00  7.72261074E+00 -1.54452215E+01  7.72261074E+00  7.72261074E+00
 -1.54452215E+01  7.72261074E+00  7.72261074E+00 -1.54452215E+01  7.72261074E+00
  7.72261074E+00 -1.54452215E+01  7.72261074E+00  7.72261074E+00 -1.54452215E+01
  7.72261074E+00  7.72261074E+00 -1.54452215E+01  7.72261074E+00  7.72261074E+00
 -1.54452215E+01  7.72261074E+00  7.72261074E+00 -1.54452215E+01  7.72261074E+00
  7.72261074E+00 -1.54452215E+01  7.72261074E+00  7.72261074E+00 -1.54452215E+01
  7.72261074E+00  7.72261074E+00 -1.54452215E+01  7.72261074E+00  7.72261074E+00
 -1.54452215E+01  7.72261074E+00  7.72261074E+00 -1.54452215E+01  7.72261074E+00
  7.72261074E+00 -1.54452215E+01  7.72261074E+00  7.72261074E+00 -1.54452215E+01
  7.72261074E+00  7.72261074E+00 -1.54452215E+01  7.72261074E+00  7.72261074E+00
 -1.54452215E+01  7.72261074E+00  7.72261074E+00 -1.54452215E+01  7.72261074E+00
  7.72261074E+00 -1.54452215E+01  7.72261074E+00  7.72261074E+00 -1.54452215E+01
  7.72261074E+00  7.72261074E+00 -1.54452215E+01  7.72261074E+00  7.72261074E+00
 -1.54452215E+01  7.72261074E+00  7.72261074E+00 -1.54452215E+01  7.72261074E+00
  7.72261074E+00 -1.54452215E+01  7.72261074E+00  7.72261074E+00 -1.54452215E+01
  7.72261074E+00  7.72261074E+00 -1.54452215E+01  7.72261074E+00  7.72261074E+00
 -1.54452215E+01  7.72261074E+00  7.72261074E+00 -1.54452215E+01  7.72261074E+00
  7.72261074E+00 -1.54452215E+01  7.72261074E+00  7.72261074E+00 -1.54452215E+01
  7.72261074E+00  7.72261074E+00 -1.54452215E+01  7.72261074E+00  7.72261074E+00
 -1.54452215E+01  7.72261074E+00  7.72261074E+00 -1.54452215E+01  7.72261074E+00
  7.72261074E+00 -1.54452215E+01  7.72261074E+00  7.72261074E+00 -1.54452215E+01
  7.72261074E+00  7.72261074E+00 -1.54452215E+01  7.72261074E+00  7.72261074E+00
 -1.54452215E+01  7.72261074E+00  7.72261074E+00 -1.54452215E+01  7.72261074E+00
  7.72261074E+00 -1.54452215E+01  7.72261074E+00  7.72261074E+00 -1.54452215E+01
  7.72261074E+00  7.72261074E+00 -1.54452215E+01  7.72261074E+00  7.72261074E+00
 -1.54452215E+01  7.72261074E+00  7.72261074E+00 -1.54452215E+01  7.72261074E+00
  7.72261074E+00 -1.54452215E+01  7.72261074E+00  7.72261074E+00 -1.54452215E+01
  7.72261074E+00  7.72261074E+00 -1.54452215E+01  7.72261074E+00  7.72261074E+00
 -1.54452215E+01  7.72261074E+00  7.72261074E+00 -1.54452215E+01  7.72261074E+00
  7.72261074E+00 -1.54452215E+01  7.72261074E+00  7.72261074E+00 -1.54452215E+01
  7.72261074E+00  7.72261074E+00 -1.54452215E+01  7.72261074E+00  7.72261074E+00
 -1.54452215E+01  7.72261074E+00  7.72261074E+00 -1.54452215E+01  7.72261074E+00
  7.72261074E+00 -1.54452215E+01  7.72261074E+00  7.72261074E+00 -1.54452215E+01
  7.72261074E+00  7.72261074E+00 -1.54452215E+01  7.72261074E+00  7.72261074E+00
 -1.54452215E+01  7.72261074E+00  7.72261074E+00 -1.54452215E+01  7.72261074E+00
  7.72261074E+00 -1.54452215E+01  7.72261074E+00  7.72261074E+00 -1.54452215E+01
  7.72261074E+00  7.72261074E+00 -1.54452215E+01  7.72261074E+00  7.72261074E+00
 -1.54452215E+01  7.72261074E+00  7.72261074E+00 -1.54452215E+01  7.72261074E+00
  7.72261074E+00 -1.54452215E+01  7.72261074E+00  7.72261074E+00 -1.54452215E+01
  7.72261074E+00  7.72261074E+00 -1.54452215E+01  7.72261074E+00  7.72261074E+00
 -1.54452215E+01  7.72261074E+00  7.72261074E+00 -1.54452215E+01  7.72261074E+00
  7.72261074E+00 -1.54452215E+01  7.72261074E+00  7.72261074E+00 -1.54452215E+01
  7.72261074E+00  7.72261074E+00 -1.54452215E+01  7.72261074E+00  7.72261074E+00
 -1.54452215E+01  7.72261074E+00  7.72261074E+00 -1.54452215E+01  7.72261074E+00
  7.72261074E+00 -1.54452215E+01  7.72261074E+00  7.72261074E+00 -1.54452215E+01
  7.72261074E+00  7.72261074E+00 -1.54452215E+01  7.72261074E+00  7.72261074E+00
 -1.54452215E+01  7.72261074E+00  7.72261074E+00 -1.54452215E+01  7.72261074E+00
  7.72261074E+00 -1.54452215E+01  7.72261074E+00  7.72261074E+00 -1.54452215E+01
  7.72261074E+00  7.72261074E+00 -1.54452215E+01  7.72261074E+00  7.72261074E+00
 -1.54452215E+01  7.72261074E+00  7.72261074E+00 -1.54452215E+01  7.72261074E+00
  7.72261074E+00 -1.54452215E+01  7.72261074E+00  7.72261074E+00 -1.54452215E+01
  7.72261074E+00  7.72261074E+00 -1.54452215E+01  7.72261074E+00  7.72261074E+00
 -1.54452215E+01  7.72261074E+00  7.72261074E+00 -1.54452215E+01  7.72261074E+00
  7.72261074E+00 -1.54452215E+01  7.72261074E+00  7.72261074E+00 -1.54452215E+01
  7.72261074E+00  7.72261074E+00 -1.54452215E+01  7.72261074E+00  7.72261074E+00
 -1.54452215E+01  7.72261074E+00  7.72261074E+00 -1.54452215E+01  7.72261074E+00
  7.72261074E+00 -1.54452215E+01  7.72261074E+00  7.72261074E+00 -1.54452215E+01
  7.72261074E+00  7.72261074E+00 -1.54452215E+01  7.72261074E+00  7.72261074E+00
 -1.54452215E+01  7.72261074E+00  7.72261074E+00 -1.54452215E+01  7.72261074E+00
  7.72261074E+00 -1.54452215E+01  7.72261074E+00  7.72261074E+00 -1.54452215E+01
  7.72261074E+00  7.72261074E+00 -1.54452215E+01  7.72261074E+00  7.72261074E+00
 -1.54452215E+01  7.72261074E+00  7.72261074E+00 -1.54452215E+01  7.72261074E+00
  7.72261074E+00 -1.54452215E+01  7.72261074E+00  7.72261074E+00 -1.54452215E+01
  7.72261074E+00  7.72261074E+00 -1.54452215E+01  7.72261074E+00  7.72261074E+00
 -1.54452215E+01  7.72261074E+00  7.72261074E+00 -1.54452215E+01  7.72261074E+00
  7.72261074E+00 -1.54452215E+01  7.72261074E+00  7.72261074E+00 -1.54452215E+01
  7.72261074E+00  7.72261074E+00 -1.54452215E+01  7.72261074E+00  7.72261074E+00
 -1.54452215E+01  7.72261074E+00  7.72261074E+00 -1.54452215E+01  7.72261074E+00
  7.72261074E+00 -1.54452215E+01  7.72261074E+00  7.72261074E+00 -1.54452215E+01
  7.72261074E+00  7.72261074E+00 -1.54452215E+01  7.72261074E+00  7.72261074E+00
 -1.54452215E+01  7.72261074E+00  7.72261074E+00 -1.54452215E+01  7.72261074E+00
  7.72261074E+00 -1.54452215E+01  7.72261074E+00  7.72261074E+00 -1.54452215E+01
  7.72261074E+00  7.72261074E+00 -1.54452215E+01  7.72261074E+00  7.72261074E+00
 -1.54452215E+01  7.72261074E+00  7.72261074E+00 -1.54452215E+01  7.72261074E+00
  7.72261074E+00 -1.54452215E+01  7.72261074E+00  7.72261074E+00 -1.54452215E+01
  7.72261074E+00  7.72261074E+00 -1.54452215E+01  7.72261074E+00  7.72261074E+00
 -1.54452215E+01  7.72261074E+00  7.72261074E+00 -1.54452215E+01  7.72261074E+00
  7.72261074E+00 -1.54452215E+01  7.72261074E+00  7.72261074E+00 -1.54452215E+01
  7.72261074E+00  7.72261074E+00 -1.54452215E+01  7.72261074E+00  7.72261074E+00
 -1.54452215E+01  7.72261074E+00  7.72261074E+00 -1.54452215E+01  7.72261074E+00
  7.72261074E+00 -1.54452215E+01  7.72261074E+00  7.72261074E+00 -1.54452215E+01
  7.72261074E+00  7.72261074E+00 -1.54452215E+01  7.72261074E+00  7.72261074E+00
 -1.54452215E+01  7.72261074E+00  7.72261074E+00 -1.54452215E+01  7.72261074E+00
  7.72261074E+00 -1.54452215E+01  7.72261074E+00  7.72261074E+00 -1.54452215E+01
  7.72261074E+00  7.72261074E+00 -1.54452215E+01  7.72261074E+00  7.72261074E+00
 -1.54452215E+01  7.72261074E+00  7.72261074E+00 -1.54452215E+01  7.72261074E+00
  7.72261074E+00 -1.54452215E+01  7.72261074E+00  7.72261074E+00 -1.54452215E+01
  7.72261074E+00  7.72261074E+00 -1.54452215E+01  7.72261074E+00  7.72261074E+00
 -1.54452215E+01  7.72261074E+00  7.72261074E+00 -1.54452215E+01  7.72261074E+00
  7.72261074E+00 -1.54452215E+01  7.72261074E+00  7.72261074E+00 -1.54452215E+01
  7.72261074E+00  7.72261074E+00 -1.54452215E+01  7.72261074E+00  7.72261074E+00
 -1.54452215E+01  7.72261074E+00  7.72261074E+00 -1.54452215E+01  7.72261074E+00
  7.72261074E+00 -1.54452215E+01  7.72261074E+00  7.72261074E+00 -1.54452215E+01
  7.72261074E+00  7.72261074E+00 -1.54452215E+01  7.72261074E+00  7.72261074E+00
 -1.54452215E+01  7.72261074E+00  7.72261074E+00 -1.54452215E+01  7.72261074E+00
  7.72261074E+00 -1.54452215E+01  7.72261074E+00  7.72261074E+00 -1.54452215E+01
  7.72261074E+00  7.72261074E+00 -1.54452215E+01  7.72261074E+00  7.72261074E+00
 -1.54452215E+01  7.72261074E+00  7.72261074E+00 -1.54452215E+01  7.72261074E+00
  7.72261074E+00 -1.54452215E+01  7.72261074E+00  7.72261074E+00 -1.54452215E+01
  7.72261074E+00  7.72261074E+00 -1.54452215E+01  7.72261074E+00  7.72261074E+00
 -1.54452215E+01  7.72261074E+00  7.72261074E+00 -1.54452215E+01  7.72261074E+00
  7.72261074E+00 -1.54452215E+01  7.72261074E+00  7.72261074E+00 -1.54452215E+01
  7.72261074E+00  7.72261074E+00 -1.54452215E+01  7.72261074E+00  7.72261074E+00
 -1.54452215E+01  7.72261074E+00  7.72261074E+00 -1.54452215E+01  7.72261074E+00
  7.72261074E+00 -1.54452215E+01  7.72261074E+00  7.72261074E+00 -1.54452215E+01
  7.72261074E+00  7.72261074E+00 -1.54452215E+01  7.72261074E+00  7.72261074E+00
 -1.54452215E+01  7.72261074E+00  7.72261074E+00 -1.54452215E+01  7.72261074E+00
  7.72261074E+00 -1.54452215E+01  7.72261074E+00  7.72261074E+00 -1.54452215E+01
  7.72261074E+00  7.72261074E+00 -1.54452215E+01  7.72261074E+00  7.72261074E+00
 -1.54452215E+01  7.72261074E+00  7.72261074E+00 -1.54452215E+01  7.72261074E+00
  7.72261074E+00 -1.54452215E+01  7.72261074E+00  7.72261074E+00 -1.54452215E+01
  7.72261074E+00  7.72261074E+00 -1.54452215E+01  7.72261074E+00  7.72261074E+00
 -1.54452215E+01  7.72261074E+00  7.72261074E+00 -1.54452215E+01  7.72261074E+00
  7.72261074E+00 -1.54452215E+01  7.72261074E+00  7.72261074E+00 -1.54452215E+01
  7.72261074E+00  7.72261074E+00 -1.54452215E+01  7.72261074E+00  7.72261074E+00
 -1.54452215E+01  7.72261074E+00  7.72261074E+00 -1.54452215E+01  7.72261074E+00
  7.72261074E+00 -1.54452215E+01  7.72261074E+00  7.72261074E+00 -1.54452215E+01
  7.72261074E+00  7.72261074E+00 -1.54452215E+01  7.72261074E+00  7.72261074E+00
 -1.54452215E+01  7.72261074E+00  7.72261074E+00 -1.54452215E+01  7.72261074E+00
  7.72261074E+00 -1.54452215E+01  7.72261074E+00  7.72261074E+00 -1.54452215E+01
  7.72261074E+00  7.72261074E+00 -1.54452215E+01  7.72261074E+00  7.72261074E+00
 -1.54452215E+01  7.72261074E+00  7.72261074E+00 -1.54452215E+01  7.72261074E+00
  7.72261074E+00 -1.54452215E+01  7.72261074E+00  7.72261074E+00 -1.54452215E+01
  7.72261074E+00  7.72261074E+00 -1.54452215E+01  7.72261074E+00  7.72261074E+00
 -1.54452215E+01  7.72261074E+00  7.72261074E+00 -1.54452215E+01  7.72261074E+00
  7.72261074E+00 -1.54452215E+01  7.72261074E+00  7.72261074E+00 -1.54452215E+01
  7.72261074E+00  7.72261074E+00 -1.54452215E+01  7.72261074E+00  7.72261074E+00
 -1.54452215E+01  7.72261074E+00  7.72261074E+00 -1.54452215E+01  7.72261074E+00
  7.72261074E+00 -1.54452215E+01  7.72261074E+00  7.72261074E+00 -1.54452215E+01
  7.72261074E+00  7.72261074E+00 -1.54452215E+01  7.72261074E+00  7.72261074E+00
 -1.54452215E+01  7.72261074E+00  7.72261074E+00 -1.54452215E+01  7.72261074E+00
  7.72261074E+00 -1.54452215E+01  7.72261074E+00  7.72261074E+00 -1.54452215E+01
  7.72261074E+00  7.72261074E+00 -1.54452215E+01  7.72261074E+00  7.72261074E+00
 -1.54452215E+01  7.72261074E+00  7.72261074E+00 -1.54452215E+01  7.72261074E+00
  7.72261074E+00 -1.54452215E+01  7.72261074E+00  7.72261074E+00 -1.54452215E+01
  7.72261074E+00  7.72261074E+00 -1.54452215E+01  7.72261074E+00  7.72261074E+00
 -1.54452215E+01  7.72261074E+00  7.72261074E+00 -1.54452215E+01  7.72261074E+00
  7.72261074E+00 -1.54452215E+01  7.72261074E+00  7.72261074E+00 -1.54452215E+01
  7.72261074E+00  7.72261074E+00 -1.54452215E+01  7.72261074E+00  7.72261074E+00
 -1.54452215E+01  7.72261074E+00  7.72261074E+00 -1.54452215E+01  7.72261074E+00
  7.72261074E+00 -1.54452215E+01  7.72261074E+00  7.72261074E+00 -1.54452215E+01
  7.72261074E+00  7.72261074E+00 -1.54452215E+01  7.72261074E+00  7.72261074E+00
 -1.54452215E+01  7.72261074E+00  7.72261074E+00 -1.54452215E+01  7.72261074E+00
  7.72261074E+00 -1.54452215E+01  7.72261074E+00  7.72261074E+00 -1.54452215E+01
  7.72261074E+00  7.72261074E+00 -1.54452215E+01  7.72261074E+00  7.72261074E+00
 -1.54452215E+01  7.72261074E+00  7.72261074E+00 -1.54452215E+01  7.72261074E+00
  7.72261074E+00 -1.54452215E+01  7.72261074E+00  7.72261074E+00 -1.54452215E+01
  7.72261074E+00  7.72261074E+00 -1.54452215E+01  7.72261074E+00  7.72261074E+00
 -1.54452215E+01  7.72261074E+00  7.72261074E+00 -1.54452215E+01  7.72261074E+00
  7.72261074E+00 -1.54452215E+01  7.72261074E+00  7.72261074E+00 -1.54452215E+01
  7.72261074E+00  7.72261074E+00 -1.54452215E+01  7.72261074E+00  7.72261074E+00
 -1.54452215E+01  7.72261074E+00  7.72261074E+00 -1.54452215E+01  7.72261074E+00
  7.72261074E+00 -1.54452215E+01  7.72261074E+00  7.72261074E+00 -1.54452215E+01
  7.72261074E+00  7.72261074E+00 -1.54452215E+01  7.72261074E+00  7.72261074E+00
 -1.54452215E+01  7.72261074E+00  7.72261074E+00 -1.54452215E+01  7.72261074E+00
  7.72261074E+00 -1.54452215E+01  7.72261074E+00  7.72261074E+00 -1.54452215E+01
  7.72261074E+00  7.72261074E+00 -1.54452215E+01  7.72261074E+00  7.72261074E+00
 -1.54452215E+01  7.72261074E+00  7.72261074E+00 -1.54452215E+01  7.72261074E+00
  7.72261074E+00 -1.54452215E+01  7.72261074E+00  7.72261074E+00 -1.54452215E+01
  7.72261074E+00  7.72261074E+00 -1.54452215E+01  7.72261074E+00  7.72261074E+00
 -1.54452215E+01  7.72261074E+00  7.72261074E+00 -1.54452215E+01  7.72261074E+00
  7.72261074E+00 -1.54452215E+01  7.72261074E+00  7.72261074E+00 -1.54452215E+01
  7.72261074E+00  7.72261074E+00 -1.54452215E+01  7.72261074E+00  7.72261074E+00
 -1.54452215E+01  7.72261074E+00  7.72261074E+00 -1.54452215E+01  7.72261074E+00
  7.72261074E+00 -1.54452215E+01  7.72261074E+00  7.72261074E+00 -1.54452215E+01
  7.72261074E+00  7.72261074E+00 -1.54452215E+01  7.72261074E+00  7.72261074E+00
 -1.54452215E+01  7.72261074E+00  7.72261074E+00 -1.54452215E+01  7.72261074E+00
  7.72261074E+00 -1.54452215E+01  7.72261074E+00  7.72261074E+00 -1.54452215E+01
  7.72261074E+00  7.72261074E+00 -1.54452215E+01  7.72261074E+00  7.72261074E+00
 -1.54452215E+01  7.72261074E+00  7.72261074E+00 -1.54452215E+01  7.72261074E+00
  7.72261074E+00 -1.54452215E+01  7.72261074E+00  7.72261074E+00 -1.54452215E+01
  7.72261074E+00  7.72261074E+00 -1.54452215E+01  7.72261074E+00  7.72261074E+00
 -1.54452215E+01  7.72261074E+00  7.72261074E+00 -1.54452215E+01  7.72261074E+00
  7.72261074E+00 -1.54452215E+01  7.72261074E+00  7.72261074E+00 -1.54452215E+01
  7.72261074E+00  7.72261074E+00 -1.54452215E+01  7.72261074E+00  7.72261074E+00
 -1.54452215E+01  7.72261074E+00  7.72261074E+00 -1.54452215E+01  7.72261074E+00
  7.72261074E+00 -1.54452215E+01  7.72261074E+00  7.72261074E+00 -1.54452215E+01
  7.72261074E+00  7.72261074E+00 -1.54452215E+01  7.72261074E+00  7.72261074E+00
 -1.54452215E+01  7.72261074E+00  7.72261074E+00 -1.54452215E+01  7.72261074E+00
  7.72261074E+00 -1.54452215E+01  7.72261074E+00  7.72261074E+00 -1.54452215E+01
  7.72261074E+00  7.72261074E+00 -1.54452215E+01  7.72261074E+00  7.72261074E+00
 -1.54452215E+01  7.72261074E+00  7.72261074E+00 -1.54452215E+01  7.72261074E+00
  7.72261074E+00 -1.54452215E+01  7.72261074E+00  7.72261074E+00 -1.54452215E+01
  7.72261074E+00  7.72261074E+00 -1.54452215E+01  7.72261074E+00  7.72261074E+00
 -1.54452215E+01  7.72261074E+00  7.72261074E+00 -1.54452215E+01  7.72261074E+00
  7.72261074E+00 -1.54452215E+01  7.72261074E+00  7.72261074E+00 -1.54452215E+01
  7.72261074E+00  7.72261074E+00 -1.54452215E+01  7.72261074E+00  7.72261074E+00
 -1.54452215E+01  7.72261074E+00  7.72261074E+00 -1.54452215E+01  7.72261074E+00
  7.72261074E+00 -1.54452215E+01  7.72261074E+00  7.72261074E+00 -1.54452215E+01
  7.72261074E+00  7.72261074E+00 -1.54452215E+01  7.72261074E+00  7.72261074E+00
 -1.54452215E+01  7.72261074E+00  7.72261074E+00 -1.54452215E+01  7.72261074E+00
  7.72261074E+00 -1.54452215E+01  7.72261074E+00  7.72261074E+00 -1.54452215E+01
  7.72261074E+00  7.72261074E+00 -1.54452215E+01  7.72261074E+00  7.72261074E+00
 -1.54452215E+01  7.72261074E+00  7.72261074E+00 -1.54452215E+01  7.72261074E+00
  7.72261074E+00 -1.54452215E+01  7.72261074E+00  7.72261074E+00 -1.54452215E+01
  7.72261074E+00  7.72261074E+00 -1.54452215E+01  7.72261074E+00  7.72261074E+00
 -1.54452215E+01  7.72261074E+00  7.72261074E+00 -1.54452215E+01  7.72261074E+00
  7.72261074E+00 -1.54452215E+01  7.72261074E+00  7.72261074E+00 -1.54452215E+01
  7.72261074E+00  7.72261074E+00 -1.54452215E+01  7.72261074E+00  7.72261074E+00
 -1.54452215E+01  7.72261074E+00  7.72261074E+00 -1.54452215E+01  7.72261074E+00
  7.72261074E+00 -1.54452215E+01  7.72261074E+00  7.72261074E+00 -1.54452215E+01
  7.72261074E+00  7.72261074E+00 -1.54452215E+01  7.72261074E+00  7.72261074E+00
 -1.54452215E+01  7.72261074E+00  7.72261074E+00 -1.54452215E+01  7.72261074E+00
  7.72261074E+00 -1.54452215E+01  7.72261074E+00  7.72261074E+00 -1.54452215E+01
  7.72261074E+00  7.72261074E+00 -1.54452215E+01  7.72261074E+00  7.72261074E+00
 -1.54452215E+01  7.72261074E+00  7.72261074E+00 -1.54452215E+01  7.72261074E+00
  7.72261074E+00 -1.54452215E+01  7.72261074E+00  7.72261074E+00 -1.54452215E+01
  7.72261074E+00  7.72261074E+00 -1.54452215E+01  7.72261074E+00  7.72261074E+00
 -1.54452215E+01  7.72261074E+00  7.72261074E+00 -1.54452215E+01  7.72261074E+00
  7.72261074E+00 -1.54452215E+01  7.72261074E+00  7.72261074E+00 -1.54452215E+01
  7.72261074E+00  7.72261074E+00 -1.54452215E+01  7.72261074E+00  7.72261074E+00
 -1.54452215E+01  7.72261074E+00  7.72261074E+00 -1.54452215E+01  7.72261074E+00
  7.72261074E+00 -1.54452215E+01  7.72261074E+00  7.72261074E+00 -1.54452215E+01
  7.72261074E+00  7.72261074E+00 -1.54452215E+01  7.72261074E+00  7.72261074E+00
 -1.54452215E+01  7.72261074E+00  7.72261074E+00 -1.54452215E+01  7.72261074E+00
  7.72261074E+00 -1.54452215E+01  7.72261074E+00  7.72261074E+00 -1.54452215E+01
  7.72261074E+00  7.72261074E+00 -1.54452215E+01  7.72261074E+00  7.72261074E+00
 -1.54452215E+01  7.72261074E+00  7.72261074E+00 -1.54452215E+01  7.72261074E+00
  7.72261074E+00 -1.54452215E+01  7.72261074E+00  7.72261074E+00 -1.54452215E+01
  7.72261074E+00  7.72261074E+00 -1.54452215E+01  7.72261074E+00  7.72261074E+00
 -1.54452215E+01  7.72261074E+00  7.72261074E+00 -1.54452215E+01  7.72261074E+00
  7.72261074E+00 -1.54452215E+01  7.72261074E+00  7.72261074E+00 -1.54452215E+01
  7.72261074E+00  7.72261074E+00 -1.54452215E+01  7.72261074E+00  7.72261074E+00
 -1.54452215E+01  7.72261074E+00  7.72261074E+00 -1.54452215E+01  7.72261074E+00
  7.72261074E+00 -1.54452215E+01  7.72261074E+00  7.72261074E+00 -1.54452215E+01
  7.72261074E+00  7.72261074E+00 -1.54452215E+01  7.72261074E+00  7.72261074E+00
 -1.54452215E+01  7.72261074E+00  7.72261074E+00 -1.54452215E+01  7.72261074E+00
  7.72261074E+00 -1.54452215E+01  7.72261074E+00  7.72261074E+00 -1.54452215E+01
  7.72261074E+00  7.72261074E+00 -1.54452215E+01  7.72261074E+00  7.72261074E+00
 -1.54452215E+01  7.72261074E+00  7.72261074E+00 -1.54452215E+01  7.72261074E+00
  7.72261074E+00 -1.54452215E+01  7.72261074E+00  7.72261074E+00 -1.54452215E+01
  7.72261074E+00  7.72261074E+00 -1.54452215E+01  7.72261074E+00  7.72261074E+00
 -1.54452215E+01  7.72261074E+00  7.72261074E+00 -1.54452215E+01  7.72261074E+00
  7.72261074E+00 -1.54452215E+01  7.72261074E+00  7.72261074E+00 -1.54452215E+01
  7.72261074E+00  7.72261074E+00 -1.54452215E+01  7.72261074E+00  7.72261074E+00
 -1.54452215E+01  7.72261074E+00  7.72261074E+00 -1.54452215E+01  7.72261074E+00
  7.72261074E+00 -1.54452215E+01  7.72261074E+00  7.72261074E+00 -1.54452215E+01
  7.72261074E+00  7.72261074E+00 -1.54452215E+01  7.72261074E+00  7.72261074E+00
 -1.54452215E+01  7.72261074E+00  7.72261074E+00 -1.54452215E+01  7.72261074E+00
  7.72261074E+00 -1.54452215E+01  7.72261074E+00  7.72261074E+00 -1.54452215E+01
  7.72261074E+00  7.72261074E+00 -1.54452215E+01  7.72261074E+00  7.72261074E+00
 -1.54452215E+01  7.72261074E+00  7.72261074E+00 -1.54452215E+01  7.72261074E+00
  7.72261074E+00 -1.54452215E+01  7.72261074E+00  7.72261074E+00 -1.54452215E+01
  7.72261074E+00  7.72261074E+00 -1.54452215E+01  7.72261074E+00  7.72261074E+00
 -1.54452215E+01  7.72261074E+00  7.72261074E+00 -1.54452215E+01  7.72261074E+00
  7.72261074E+00 -1.54452215E+01  7.72261074E+00  7.72261074E+00 -1.54452215E+01
  7.72261074E+00  7.72261074E+00 -1.54452215E+01  7.72261074E+00  7.72261074E+00
 -1.54452215E+01  7.72261074E+00  7.72261074E+00 -1.54452215E+01  7.72261074E+00
  7.72261074E+00 -1.54452215E+01  7.72261074E+00  7.72261074E+00 -1.54452215E+01
  7.72261074E+00  7.72261074E+00 -1.54452215E+01  7.72261074E+00  7.72261074E+00
 -1.54452215E+01  7.72261074E+00  7.72261074E+00 -1.54452215E+01  7.72261074E+00
  7.72261074E+00 -1.54452215E+01  7.72261074E+00  7.72261074E+00 -1.54452215E+01
  7.72261074E+00  7.72261074E+00 -1.54452215E+01  7.72261074E+00  7.72261074E+00
 -1.54452215E+01  7.72261074E+00  7.72261074E+00 -1.54452215E+01  7.72261074E+00
  7.72261074E+00 -1.54452215E+01  7.72261074E+00  7.72261074E+00 -1.54452215E+01
  7.72261074E+00  7.72261074E+00 -1.54452215E+01  7.72261074E+00  7.72261074E+00
 -1.54452215E+01  7.72261074E+00  7.72261074E+00 -1.54452215E+01  7.72261074E+00
  7.72261074E+00 -1.54452215E+01  7.72261074E+00  7.72261074E+00 -1.54452215E+01
  7.72261074E+00  7.72261074E+00 -1.54452215E+01  7.72261074E+00  7.72261074E+00
 -1.54452215E+01  7.72261074E+00  7.72261074E+00 -1.54452215E+01  7.72261074E+00
  7.72261074E+00 -1.54452215E+01  7.72261074E+00  7.72261074E+00 -1.54452215E+01
  7.72261074E+00  7.72261074E+00 -1.54452215E+01  7.72261074E+00  7.72261074E+00
 -1.54452215E+01  7.72261074E+00  7.72261074E+00 -1.54452215E+01  7.72261074E+00
  7.72261074E+00 -1.54452215E+01  7.72261074E+00  7.72261074E+00 -1.54452215E+01
  7.72261074E+00  7.72261074E+00 -1.54452215E+01  7.72261074E+00  7.72261074E+00
 -1.54452215E+01  7.72261074E+00  7.72261074E+00 -1.54452215E+01  7.72261074E+00
  7.72261074E+00 -1.54452215E+01  7.72261074E+00  7.72261074E+00 -1.54452215E+01
  7.72261074E+00  7.72261074E+00 -1.54452215E+01  7.72261074E+00  7.72261074E+00
 -1.54452215E+01  7.72261074E+00  7.72261074E+00 -1.54452215E+01  7.72261074E+00
  7.72261074E+00 -1.54452215E+01  7.72261074E+00  7.72261074E+00 -1.54452215E+01
  7.72261074E+00  7.72261074E+00 -1.54452215E+01  7.72261074E+00  7.72261074E+00
 -1.54452215E+01  7.72261074E+00  7.72261074E+00 -1.54452215E+01  7.72261074E+00
  7.72261074E+00 -1.54452215E+01  7.72261074E+00  7.72261074E+00 -1.54452215E+01
  7.72261074E+00  7.72261074E+00 -1.54452215E+01  7.72261074E+00  7.72261074E+00
 -1.54452215E+01  7.72261074E+00  7.72261074E+00 -1.54452215E+01  7.72261074E+00
  7.72261074E+00 -1.54452215E+01  7.72261074E+00  7.72261074E+00 -1.54452215E+01
  7.72261074E+00  7.72261074E+00 -1.54452215E+01  7.72261074E+00  7.72261074E+00
 -1.54452215E+01  7.72261074E+00  7.72261074E+00 -1.54452215E+01  7.72261074E+00
  7.72261074E+00 -1.54452215E+01  7.72261074E+00  7.72261074E+00 -1.54452215E+01
  7.72261074E+00  7.72261074E+00 -1.54452215E+01  7.72261074E+00  7.72261074E+00
 -1.54452215E+01  7.72261074E+00  7.72261074E+00 -1.54452215E+01  7.72261074E+00
  7.72261074E+00 -1.54452215E+01  7.72261074E+00  7.72261074E+00 -1.54452215E+01
  7.72261074E+00  7.72261074E+00 -1.54452215E+01  7.72261074E+00  7.72261074E+00
 -1.54452215E+01  7.72261074E+00  7.72261074E+00 -1.54452215E+01  7.72261074E+00
  7.72261074E+00 -1.54452215E+01  7.72261074E+00  7.72261074E+00 -1.54452215E+01
  7.72261074E+00  7.72261074E+00 -1.54452215E+01  7.72261074E+00  7.72261074E+00
 -1.54452215E+01  7.72261074E+00  7.72261074E+00 -1.54452215E+01  7.72261074E+00
  7.72261074E+00 -1.54452215E+01  7.72261074E+00  7.72261074E+00 -1.54452215E+01
  7.72261074E+00  7.72261074E+00 -1.54452215E+01  7.72261074E+00  7.72261074E+00
 -1.54452215E+01  7.72261074E+00  7.72261074E+00 -1.54452215E+01  7.72261074E+00
  7.72261074E+00 -1.54452215E+01  7.72261074E+00  7.72261074E+00 -1.54452215E+01
  7.72261074E+00  7.72261074E+00 -1.54452215E+01  7.72261074E+00  7.72261074E+00
 -1.54452215E+01  7.72261074E+00  7.72261074E+00 -1.54452215E+01  7.72261074E+00
  7.72261074E+00 -1.54452215E+01  7.72261074E+00  7.72261074E+00 -1.54452215E+01
  7.72261074E+00  7.72261074E+00 -1.54452215E+01  7.72261074E+00  7.72261074E+00
 -1.54452215E+01  7.72261074E+00  7.72261074E+00 -1.54452215E+01  7.72261074E+00
  7.72261074E+00 -1.54452215E+01  7.72261074E+00  7.72261074E+00 -1.54452215E+01
  7.72261074E+00  7.72261074E+00 -1.54452215E+01  7.72261074E+00  7.72261074E+00
 -1.54452215E+01  7.72261074E+00  7.72261074E+00 -1.54452215E+01  7.72261074E+00
  7.72261074E+00 -1.54452215E+01  7.72261074E+00  7.72261074E+00 -1.54452215E+01
  7.72261074E+00  7.72261074E+00 -1.54452215E+01  7.72261074E+00  7.72261074E+00
 -1.54452215E+01  7.72261074E+00  7.72261074E+00 -1.54452215E+01  7.72261074E+00
  7.72261074E+00 -1.54452215E+01  7.72261074E+00  7.72261074E+00 -1.54452215E+01
  7.72261074E+00  7.72261074E+00 -1.54452215E+01  7.72261074E+00  7.72261074E+00
 -1.54452215E+01  7.72261074E+00  7.72261074E+00 -1.54452215E+01  7.72261074E+00
  7.72261074E+00 -1.54452215E+01  7.72261074E+00  7.72261074E+00 -1.54452215E+01
  7.72261074E+00  7.72261074E+00 -1.54452215E+01  7.72261074E+00  7.72261074E+00
 -1.54452215E+01  7.72261074E+00  7.72261074E+00 -1.54452215E+01  7.72261074E+00
  7.72261074E+00 -1.54452215E+01  7.72261074E+00  7.72261074E+00 -1.54452215E+01
  7.72261074E+00  7.72261074E+00 -1.54452215E+01  7.72261074E+00  7.72261074E+00
 -1.54452215E+01  7.72261074E+00  7.72261074E+00 -1.54452215E+01  7.72261074E+00
  7.72261074E+00 -1.54452215E+01  7.72261074E+00  7.72261074E+00 -1.54452215E+01
  7.72261074E+00  7.72261074E+00 -1.54452215E+01  7.72261074E+00  7.72261074E+00
 -1.54452215E+01  7.72261074E+00  7.72261074E+00 -1.54452215E+01  7.72261074E+00
  7.72261074E+00 -1.54452215E+01  7.72261074E+00  7.72261074E+00 -1.54452215E+01
  7.72261074E+00  7.72261074E+00 -1.54452215E+01  7.72261074E+00  7.72261074E+00
 -1.54452215E+01  7.72261074E+00  7.72261074E+00 -1.54452215E+01  7.72261074E+00
  7.72261074E+00 -1.54452215E+01  7.72261074E+00  7.72261074E+00 -1.54452215E+01
  7.72261074E+00  7.72261074E+00 -1.54452215E+01  7.72261074E+00  7.72261074E+00
 -1.54452215E+01  7.72261074E+00  7.72261074E+00 -1.54452215E+01  7.72261074E+00
  7.72261074E+00 -1.54452215E+01  7.72261074E+00  7.72261074E+00 -1.54452215E+01
  7.72261074E+00  7.72261074E+00 -1.54452215E+01  7.72261074E+00  7.72261074E+00
 -1.54452215E+01  7.72261074E+00  7.72261074E+00 -1.54452215E+01  7.72261074E+00
  7.72261074E+00 -1.54452215E+01  7.72261074E+00  7.72261074E+00 -1.54452215E+01
  7.72261074E+00  7.72261074E+00 -1.54452215E+01  7.72261074E+00  7.72261074E+00
 -1.54452215E+01  7.72261074E+00  7.72261074E+00 -1.54452215E+01  7.72261074E+00
  7.72261074E+00 -1.54452215E+01  7.72261074E+00  7.72261074E+00 -1.54452215E+01
  7.72261074E+00  7.72261074E+00 -1.54452215E+01  7.72261074E+00  7.72261074E+00
 -1.54452215E+01  7.72261074E+00  7.72261074E+00 -1.54452215E+01  7.72261074E+00
  7.72261074E+00 -1.54452215E+01  7.72261074E+00  7.72261074E+00 -1.54452215E+01
  7.72261074E+00  7.72261074E+00 -1.54452215E+01  7.72261074E+00  7.72261074E+00
 -1.54452215E+01  7.72261074E+00  7.72261074E+00 -1.54452215E+01  7.72261074E+00
  7.72261074E+00 -1.54452215E+01  7.72261074E+00  7.72261074E+00 -1.54452215E+01
  7.72261074E+00  7.72261074E+00 -1.54452215E+01  7.72261074E+00  7.72261074E+00
 -1.54452215E+01  7.72261074E+00  7.72261074E+00 -1.54452215E+01  7.72261074E+00
  7.72261074E+00 -1.54452215E+01  7.72261074E+00  7.72261074E+00 -1.54452215E+01
  7.72261074E+00  7.72261074E+00 -1.54452215E+01  7.72261074E+00  7.72261074E+00
 -1.54452215E+01  7.72261074E+00  7.72261074E+00 -1.54452215E+01  7.72261074E+00
  7.72261074E+00 -1.54452215E+01  7.72261074E+00  7.72261074E+00 -1.54452215E+01
  7.72261074E+00  7.72261074E+00 -1.54452215E+01  7.72261074E+00  7.72261074E+00
 -1.54452215E+01  7.72261074E+00  7.72261074E+00 -1.54452215E+01  7.72261074E+00
  7.72261074E+00 -1.54452215E+01  7.72261074E+00  7.72261074E+00 -1.54452215E+01
  7.72261074E+00  7.72261074E+00 -1.54452215E+01  7.72261074E+00  7.72261074E+00
 -1.54452215E+01  7.72261074E+00  7.72261074E+00 -1.54452215E+01  7.72261074E+00
  7.72261074E+00 -1.54452215E+01  7.72261074E+00  7.72261074E+00 -1.54452215E+01
  7.72261074E+00  7.72261074E+00 -1.54452215E+01  7.72261074E+00  7.72261074E+00
 -1.54452215E+01  7.72261074E+00  7.72261074E+00 -1.54452215E+01  7.72261074E+00
  7.72261074E+00 -1.54452215E+01  7.72261074E+00  7.72261074E+00 -1.54452215E+01
  7.72261074E+00  7.72261074E+00 -1.54452215E+01  7.72261074E+00  7.72261074E+00
 -1.54452215E+01  7.72261074E+00  7.72261074E+00 -1.54452215E+01  7.72261074E+00
  7.72261074E+00 -1.54452215E+01  7.72261074E+00  7.72261074E+00 -1.54452215E+01
  7.72261074E+00  7.72261074E+00 -1.54452215E+01  7.72261074E+00  7.72261074E+00
 -1.54452215E+01  7.72261074E+00  7.72261074E+00 -1.54452215E+01  7.72261074E+00
  7.72261074E+00 -1.54452215E+01  7.72261074E+00  7.72261074E+00 -1.54452215E+01
  7.72261074E+00  7.72261074E+00 -1.54452215E+01  7.72261074E+00  7.72261074E+00
 -1.54452215E+01  7.72261074E+00  7.72261074E+00 -1.54452215E+01  7.72261074E+00
  7.72261074E+00 -1.54452215E+01  7.72261074E+00  7.72261074E+00 -1.54452215E+01
  7.72261074E+00  7.72261074E+00 -1.54452215E+01  7.72261074E+00  7.72261074E+00
 -1.54452215E+01  7.72261074E+00  7.72261074E+00 -1.54452215E+01  7.72261074E+00
  7.72261074E+00 -1.54452215E+01  7.72261074E+00  7.72261074E+00 -1.54452215E+01
  7.72261074E+00  7.72261074E+00 -1.54452215E+01  7.72261074E+00  7.72261074E+00
 -1.54452215E+01  7.72261074E+00  7.72261074E+00 -1.54452215E+01  7.72261074E+00
  7.72261074E+00 -1.54452215E+01  7.72261074E+00  7.72261074E+00 -1.54452215E+01
  7.72261074E+00  7.72261074E+00 -1.54452215E+01  7.72261074E+00  7.72261074E+00
 -1.54452215E+01  7.72261074E+00  7.72261074E+00 -1.54452215E+01  7.72261074E+00
  7.72261074E+00 -1.54452215E+01  7.72261074E+00  7.72261074E+00 -1.54452215E+01
  7.72261074E+00  7.72261074E+00 -1.54452215E+01  7.72261074E+00  7.72261074E+00
 -1.54452215E+01  7.72261074E+00  7.72261074E+00 -1.54452215E+01  7.72261074E+00
  7.72261074E+00 -1.54452215E+01  7.72261074E+00  7.72261074E+00 -1.54452215E+01
  7.72261074E+00  7.72261074E+00 -1.54452215E+01  7.72261074E+00  7.72261074E+00
 -1.54452215E+01  7.72261074E+00  7.72261074E+00 -1.54452215E+01  7.72261074E+00
  7.72261074E+00 -1.54452215E+01  7.72261074E+00  7.72261074E+00 -1.54452215E+01
  7.72261074E+00  7.72261074E+00 -1.54452215E+01  7.72261074E+00  7.72261074E+00
 -1.54452215E+01  7.72261074E+00  7.72261074E+00 -1.54452215E+01  7.72261074E+00
  7.72261074E+00 -1.54452215E+01  7.72261074E+00  7.72261074E+00 -1.54452215E+01
  7.72261074E+00  7.72261074E+00 -1.54452215E+01  7.72261074E+00  7.72261074E+00
 -1.54452215E+01  7.72261074E+00  7.72261074E+00 -1.54452215E+01  7.72261074E+00
  7.72261074E+00 -1.54452215E+01  7.72261074E+00  7.72261074E+00 -1.54452215E+01
  7.72261074E+00  7.72261074E+00 -1.54452215E+01  7.72261074E+00  7.72261074E+00
 -1.54452215E+01  7.72261074E+00  7.72261074E+00 -1.54452215E+01  7.72261074E+00
  7.72261074E+00 -1.54452215E+01  7.72261074E+00  7.72261074E+00 -1.54452215E+01
  7.72261074E+00  7.72261074E+00 -1.54452215E+01  7.72261074E+00  7.72261074E+00
 -1.54452215E+01  7.72261074E+00  7.72261074E+00 -1.54452215E+01  7.72261074E+00
  7.72261074E+00 -1.54452215E+01  7.72261074E+00  7.72261074E+00 -1.54452215E+01
  7.72261074E+00  7.72261074E+00 -1.54452215E+01  7.72261074E+00  7.72261074E+00
 -1.54452215E+01  7.72261074E+00  7.72261074E+00 -1.54452215E+01  7.72261074E+00
  7.72261074E+00 -1.54452215E+01  7.72261074E+00  7.72261074E+00 -1.54452215E+01
  7.72261074E+00  7.72261074E+00 -1.54452215E+01  7.72261074E+00  7.72261074E+00
 -1.54452215E+01  7.72261074E+00  7.72261074E+00 -1.54452215E+01  7.72261074E+00
  7.72261074E+00 -1.54452215E+01  7.72261074E+00  7.72261074E+00 -1.54452215E+01
  7.72261074E+00  7.72261074E+00 -1.54452215E+01  7.72261074E+00  7.72261074E+00
 -1.54452215E+01  7.72261074E+00  7.72261074E+00 -1.54452215E+01  7.72261074E+00
  7.72261074E+00 -1.54452215E+01  7.72261074E+00  7.72261074E+00 -1.54452215E+01
  7.72261074E+00  7.72261074E+00 -1.54452215E+01  7.72261074E+00  7.72261074E+00
 -1.54452215E+01  7.72261074E+00  7.72261074E+00 -1.54452215E+01  7.72261074E+00
  7.72261074E+00 -1.54452215E+01  7.72261074E+00  7.72261074E+00 -1.54452215E+01
  7.72261074E+00  7.72261074E+00 -1.54452215E+01  7.72261074E+00  7.72261074E+00
 -1.54452215E+01  7.72261074E+00  7.72261074E+00 -1.54452215E+01  7.72261074E+00
  7.72261074E+00 -1.54452215E+01  7.72261074E+00  7.72261074E+00 -1.54452215E+01
  7.72261074E+00  7.72261074E+00 -1.54452215E+01  7.72261074E+00  7.72261074E+00
 -1.54452215E+01  7.72261074E+00  7.72261074E+00 -1.54452215E+01  7.72261074E+00
  7.72261074E+00 -1.54452215E+01  7.72261074E+00  7.72261074E+00 -1.54452215E+01
  7.72261074E+00  7.72261074E+00 -1.54452215E+01  7.72261074E+00  7.72261074E+00
 -1.54452215E+01  7.72261074E+00  7.72261074E+00 -1.54452215E+01  7.72261074E+00
  7.72261074E+00 -1.54452215E+01  7.72261074E+00  7.72261074E+00 -1.54452215E+01
  7.72261074E+00  7.72261074E+00 -1.54452215E+01  7.72261074E+00  7.72261074E+00
 -1.54452215E+01  7.72261074E+00  7.72261074E+00 -1.54452215E+01  7.72261074E+00
  7.72261074E+00 -1.54452215E+01  7.72261074E+00  7.72261074E+00 -1.54452215E+01
  7.72261074E+00  7.72261074E+00 -1.54452215E+01  7.72261074E+00  7.72261074E+00
 -1.54452215E+01  7.72261074E+00  7.72261074E+00 -1.54452215E+01  7.72261074E+00
  7.72261074E+00 -1.54452215E+01  7.72261074E+00  7.72261074E+00 -1.54452215E+01
  7.72261074E+00  7.72261074E+00 -1.54452215E+01  7.72261074E+00  7.72261074E+00
 -1.54452215E+01  7.72261074E+00  7.72261074E+00 -1.54452215E+01  7.72261074E+00
  7.72261074E+00 -1.54452215E+01  7.72261074E+00  7.72261074E+00 -1.54452215E+01
  7.72261074E+00  7.72261074E+00 -1.54452215E+01  7.72261074E+00  7.72261074E+00
 -1.54452215E+01  7.72261074E+00  7.72261074E+00 -1.54452215E+01  7.72261074E+00
  7.72261074E+00 -1.54452215E+01  7.72261074E+00  7.72261074E+00 -1.54452215E+01
  7.72261074E+00  7.72261074E+00 -1.54452215E+01  7.72261074E+00  7.72261074E+00
 -1.54452215E+01  7.72261074E+00  7.72261074E+00 -1.54452215E+01  7.72261074E+00
  7.72261074E+00 -1.54452215E+01  7.72261074E+00  7.72261074E+00 -1.54452215E+01
  7.72261074E+00  7.72261074E+00 -1.54452215E+01  7.72261074E+00  7.72261074E+00
 -1.54452215E+01  7.72261074E+00  7.72261074E+00 -1.54452215E+01  7.72261074E+00
  7.72261074E+00 -1.54452215E+01  7.72261074E+00  7.72261074E+00 -1.54452215E+01
  7.72261074E+00  7.72261074E+00 -1.54452215E+01  7.72261074E+00  7.72261074E+00
 -1.54452215E+01  7.72261074E+00  7.72261074E+00 -1.54452215E+01  7.72261074E+00
  7.72261074E+00 -1.54452215E+01  7.72261074E+00  7.72261074E+00 -1.54452215E+01
  7.72261074E+00  7.72261074E+00 -1.54452215E+01  7.72261074E+00  7.72261074E+00
 -1.54452215E+01  7.72261074E+00  7.72261074E+00 -1.54452215E+01  7.72261074E+00
  7.72261074E+00 -1.54452215E+01  7.72261074E+00  7.72261074E+00 -1.54452215E+01
  7.72261074E+00  7.72261074E+00 -1.54452215E+01  7.72261074E+00  7.72261074E+00
 -1.54452215E+01  7.72261074E+00  7.72261074E+00 -1.54452215E+01  7.72261074E+00
  7.72261074E+00 -1.54452215E+01  7.72261074E+00  7.72261074E+00 -1.54452215E+01
  7.72261074E+00  7.72261074E+00 -1.54452215E+01  7.72261074E+00  7.72261074E+00
 -1.54452215E+01  7.72261074E+00  7.72261074E+00 -1.54452215E+01  7.72261074E+00
  7.72261074E+00 -1.54452215E+01  7.72261074E+00  7.72261074E+00 -1.54452215E+01
  7.72261074E+00  7.72261074E+00 -1.54452215E+01  7.72261074E+00  7.72261074E+00
 -1.54452215E+01  7.72261074E+00  7.72261074E+00 -1.54452215E+01  7.72261074E+00
  7.72261074E+00 -1.54452215E+01  7.72261074E+00  7.72261074E+00 -1.54452215E+01
  7.72261074E+00  7.72261074E+00 -1.54452215E+01  7.72261074E+00  7.72261074E+00
 -1.54452215E+01  7.72261074E+00  7.72261074E+00 -1.54452215E+01  7.72261074E+00
  7.72261074E+00 -1.54452215E+01  7.72261074E+00  7.72261074E+00 -1.54452215E+01
  7.72261074E+00  7.72261074E+00 -1.54452215E+01  7.72261074E+00  7.72261074E+00
 -1.54452215E+01  7.72261074E+00  7.72261074E+00 -1.54452215E+01  7.72261074E+00
  7.72261074E+00 -1.54452215E+01  7.72261074E+00  7.72261074E+00 -1.54452215E+01
  7.72261074E+00  7.72261074E+00 -1.54452215E+01  7.72261074E+00  7.72261074E+00
 -1.54452215E+01  7.72261074E+00  7.72261074E+00 -1.54452215E+01  7.72261074E+00
  7.72261074E+00 -1.54452215E+01  7.72261074E+00  7.72261074E+00 -1.54452215E+01
  7.72261074E+00  7.72261074E+00 -1.54452215E+01  7.72261074E+00  7.72261074E+00
 -1.54452215E+01  7.72261074E+00  7.72261074E+00 -1.54452215E+01  7.72261074E+00
  7.72261074E+00 -1.54452215E+01  7.72261074E+00  7.72261074E+00 -1.54452215E+01
  7.72261074E+00  7.72261074E+00 -1.54452215E+01  7.72261074E+00  7.72261074E+00
 -1.54452215E+01  7.72261074E+00  7.72261074E+00 -1.54452215E+01  7.72261074E+00
  7.72261074E+00 -1.54452215E+01  7.72261074E+00  7.72261074E+00 -1.54452215E+01
  7.72261074E+00  7.72261074E+00 -1.54452215E+01  7.72261074E+00  7.72261074E+00
 -1.54452215E+01  7.72261074E+00  7.72261074E+00 -1.54452215E+01  7.72261074E+00
  7.72261074E+00 -1.54452215E+01  7.72261074E+00  7.72261074E+00 -1.54452215E+01
  7.72261074E+00  7.72261074E+00 -1.54452215E+01  7.72261074E+00  7.72261074E+00
 -1.54452215E+01  7.72261074E+00  7.72261074E+00 -1.54452215E+01  7.72261074E+00
  7.72261074E+00 -1.54452215E+01  7.72261074E+00  7.72261074E+00 -1.54452215E+01
  7.72261074E+00  7.72261074E+00 -1.54452215E+01  7.72261074E+00  7.72261074E+00
 -1.54452215E+01  7.72261074E+00  7.72261074E+00 -1.54452215E+01  7.72261074E+00
  7.72261074E+00 -1.54452215E+01  7.72261074E+00  7.72261074E+00 -1.54452215E+01
  7.72261074E+00  7.72261074E+00 -1.54452215E+01  7.72261074E+00  7.72261074E+00
 -1.54452215E+01  7.72261074E+00  7.72261074E+00 -1.54452215E+01  7.72261074E+00
  7.72261074E+00 -1.54452215E+01  7.72261074E+00  7.72261074E+00 -1.54452215E+01
  7.72261074E+00  7.72261074E+00 -1.54452215E+01  7.72261074E+00  7.72261074E+00
 -1.54452215E+01  7.72261074E+00  7.72261074E+00 -1.54452215E+01  7.72261074E+00
  7.72261074E+00 -1.54452215E+01  7.72261074E+00  7.72261074E+00 -1.54452215E+01
  7.72261074E+00  7.72261074E+00 -1.54452215E+01  7.72261074E+00  7.72261074E+00
 -1.54452215E+01  7.72261074E+00  7.72261074E+00 -1.54452215E+01  7.72261074E+00
  7.72261074E+00 -1.54452215E+01  7.72261074E+00  7.72261074E+00 -1.54452215E+01
  7.72261074E+00  7.72261074E+00 -1.54452215E+01  7.72261074E+00  7.72261074E+00
 -1.54452215E+01  7.72261074E+00  7.72261074E+00 -1.54452215E+01  7.72261074E+00
  7.72261074E+00 -1.54452215E+01  7.72261074E+00  7.72261074E+00 -1.54452215E+01
  7.72261074E+00  7.72261074E+00 -1.54452215E+01  7.72261074E+00  7.72261074E+00
 -1.54452215E+01  7.72261074E+00  7.72261074E+00 -1.54452215E+01  7.72261074E+00
  7.72261074E+00 -1.54452215E+01  7.72261074E+00  7.72261074E+00 -1.54452215E+01
  7.72261074E+00  7.72261074E+00 -1.54452215E+01  7.72261074E+00  7.72261074E+00
 -1.54452215E+01  7.72261074E+00  7.72261074E+00 -1.54452215E+01  7.72261074E+00
  7.72261074E+00 -1.54452215E+01  7.72261074E+00  7.72261074E+00 -1.54452215E+01
  7.72261074E+00  7.72261074E+00 -1.54452215E+01  7.72261074E+00  7.72261074E+00
 -1.54452215E+01  7.72261074E+00  7.72261074E+00 -1.54452215E+01  7.72261074E+00
  7.72261074E+00 -1.54452215E+01  7.72261074E+00  7.72261074E+00 -1.54452215E+01
  7.72261074E+00  7.72261074E+00 -1.54452215E+01  7.72261074E+00  7.72261074E+00
 -1.54452215E+01  7.72261074E+00  7.72261074E+00 -1.54452215E+01  7.72261074E+00
  7.72261074E+00 -1.54452215E+01  7.72261074E+00  7.72261074E+00 -1.54452215E+01
  7.72261074E+00  7.72261074E+00 -1.54452215E+01  7.72261074E+00  7.72261074E+00
 -1.54452215E+01  7.72261074E+00  7.72261074E+00 -1.54452215E+01  7.72261074E+00
  7.72261074E+00 -1.54452215E+01  7.72261074E+00  7.72261074E+00 -1.54452215E+01
  7.72261074E+00  7.72261074E+00 -1.54452215E+01  7.72261074E+00  7.72261074E+00
 -1.54452215E+01  7.72261074E+00  7.72261074E+00 -1.54452215E+01  7.72261074E+00
  7.72261074E+00 -1.54452215E+01  7.72261074E+00  7.72261074E+00 -1.54452215E+01
  7.72261074E+00  7.72261074E+00 -1.54452215E+01  7.72261074E+00  7.72261074E+00
 -1.54452215E+01  7.72261074E+00  7.72261074E+00 -1.54452215E+01  7.72261074E+00
  7.72261074E+00 -1.54452215E+01  7.72261074E+00  7.72261074E+00 -1.54452215E+01
  7.72261074E+00  7.72261074E+00 -1.54452215E+01  7.72261074E+00  7.72261074E+00
 -1.54452215E+01  7.72261074E+00  7.72261074E+00 -1.54452215E+01  7.72261074E+00
  7.72261074E+00 -1.54452215E+01  7.72261074E+00  7.72261074E+00 -1.54452215E+01
  7.72261074E+00  7.72261074E+00 -1.54452215E+01  7.72261074E+00  7.72261074E+00
 -1.54452215E+01  7.72261074E+00  7.72261074E+00 -1.54452215E+01  7.72261074E+00
  7.72261074E+00 -1.54452215E+01  7.72261074E+00  7.72261074E+00 -1.54452215E+01
  7.72261074E+00  7.72261074E+00 -1.54452215E+01  7.72261074E+00  7.72261074E+00
 -1.54452215E+01  7.72261074E+00  7.72261074E+00 -1.54452215E+01  7.72261074E+00
  7.72261074E+00 -1.54452215E+01  7.72261074E+00  7.72261074E+00 -1.54452215E+01
  7.72261074E+00  7.72261074E+00 -1.54452215E+01  7.72261074E+00  7.72261074E+00
 -1.54452215E+01  7.72261074E+00  7.72261074E+00 -1.54452215E+01  7.72261074E+00
  7.72261074E+00 -1.54452215E+01  7.72261074E+00  7.72261074E+00 -1.54452215E+01
  7.72261074E+00  7.72261074E+00 -1.54452215E+01  7.72261074E+00  7.72261074E+00
 -1.54452215E+01  7.72261074E+00  7.72261074E+00 -1.54452215E+01  7.72261074E+00
  7.72261074E+00 -1.54452215E+01  7.72261074E+00  7.72261074E+00 -1.54452215E+01
  7.72261074E+00  7.72261074E+00 -1.54452215E+01  7.72261074E+00  7.72261074E+00
 -1.54452215E+01  7.72261074E+00  7.72261074E+00 -1.54452215E+01  7.72261074E+00
  7.72261074E+00 -1.54452215E+01  7.72261074E+00  7.72261074E+00 -1.54452215E+01
  7.72261074E+00  7.72261074E+00 -1.54452215E+01  7.72261074E+00  7.72261074E+00
 -1.54452215E+01  7.72261074E+00  7.72261074E+00 -1.54452215E+01  7.72261074E+00
  7.72261074E+00 -1.54452215E+01  7.72261074E+00  7.72261074E+00 -1.54452215E+01
  7.72261074E+00  7.72261074E+00 -1.54452215E+01  7.72261074E+00  7.72261074E+00
 -1.54452215E+01  7.72261074E+00  7.72261074E+00 -1.54452215E+01  7.72261074E+00
  7.72261074E+00 -1.54452215E+01  7.72261074E+00  7.72261074E+00 -1.54452215E+01
  7.72261074E+00  7.72261074E+00 -1.54452215E+01  7.72261074E+00  7.72261074E+00
 -1.54452215E+01  7.72261074E+00  7.72261074E+00 -1.54452215E+01  7.72261074E+00
  7.72261074E+00 -1.54452215E+01  7.72261074E+00  7.72261074E+00 -1.54452215E+01
  7.72261074E+00  7.72261074E+00 -1.54452215E+01  7.72261074E+00  7.72261074E+00
 -1.54452215E+01  7.72261074E+00  7.72261074E+00 -1.54452215E+01  7.72261074E+00
  7.72261074E+00 -1.54452215E+01  7.72261074E+00  7.72261074E+00 -1.54452215E+01
  7.72261074E+00  7.72261074E+00 -1.54452215E+01  7.72261074E+00  7.72261074E+00
 -1.54452215E+01  7.72261074E+00  7.72261074E+00 -1.54452215E+01  7.72261074E+00
  7.72261074E+00 -1.54452215E+01  7.72261074E+00  7.72261074E+00 -1.54452215E+01
  7.72261074E+00  7.72261074E+00 -1.54452215E+01  7.72261074E+00  7.72261074E+00
 -1.54452215E+01  7.72261074E+00  7.72261074E+00 -1.54452215E+01  7.72261074E+00
  7.72261074E+00 -1.54452215E+01  7.72261074E+00  7.72261074E+00 -1.54452215E+01
  7.72261074E+00  7.72261074E+00 -1.54452215E+01  7.72261074E+00  7.72261074E+00
 -1.54452215E+01  7.72261074E+00  7.72261074E+00 -1.54452215E+01  7.72261074E+00
  7.72261074E+00 -1.54452215E+01  7.72261074E+00  7.72261074E+00 -1.54452215E+01
  7.72261074E+00  7.72261074E+00 -1.54452215E+01  7.72261074E+00  7.72261074E+00
 -1.54452215E+01  7.72261074E+00  7.72261074E+00 -1.54452215E+01  7.72261074E+00
  7.72261074E+00 -1.54452215E+01  7.72261074E+00  7.72261074E+00 -1.54452215E+01
  7.72261074E+00  7.72261074E+00 -1.54452215E+01  7.72261074E+00  7.72261074E+00
 -1.54452215E+01  7.72261074E+00  7.72261074E+00 -1.54452215E+01  7.72261074E+00
  7.72261074E+00 -1.54452215E+01  7.72261074E+00  7.72261074E+00 -1.54452215E+01
  7.72261074E+00  7.72261074E+00 -1.54452215E+01  7.72261074E+00  7.72261074E+00
 -1.54452215E+01  7.72261074E+00  7.72261074E+00 -1.54452215E+01  7.72261074E+00
  7.72261074E+00 -1.54452215E+01  7.72261074E+00  7.72261074E+00 -1.54452215E+01
  7.72261074E+00  7.72261074E+00 -1.54452215E+01  7.72261074E+00  7.72261074E+00
 -1.54452215E+01  7.72261074E+00  7.72261074E+00 -1.54452215E+01  7.72261074E+00
  7.72261074E+00 -1.54452215E+01  7.72261074E+00  7.72261074E+00 -1.54452215E+01
  7.72261074E+00  7.72261074E+00 -1.54452215E+01  7.72261074E+00  7.72261074E+00
 -1.54452215E+01  7.72261074E+00  7.72261074E+00 -1.54452215E+01  7.72261074E+00
  7.72261074E+00 -1.54452215E+01  7.72261074E+00  7.72261074E+00 -1.54452215E+01
  7.72261074E+00  7.72261074E+00 -1.54452215E+01  7.72261074E+00  7.72261074E+00
 -1.54452215E+01  7.72261074E+00  7.72261074E+00 -1.54452215E+01  7.72261074E+00
  7.72261074E+00 -1.54452215E+01  7.72261074E+00  7.72261074E+00 -1.54452215E+01
  7.72261074E+00  7.72261074E+00 -1.54452215E+01  7.72261074E+00  7.72261074E+00
 -1.54452215E+01  7.72261074E+00  7.72261074E+00 -1.54452215E+01  7.72261074E+00
  7.72261074E+00 -1.54452215E+01  7.72261074E+00  7.72261074E+00 -1.54452215E+01
  7.72261074E+00  7.72261074E+00 -1.54452215E+01  7.72261074E+00  7.72261074E+00
 -1.54452215E+01  7.72261074E+00  7.72261074E+00 -1.54452215E+01  7.72261074E+00
  7.72261074E+00 -1.54452215E+01  7.72261074E+00  7.72261074E+00 -1.54452215E+01
  7.72261074E+00  7.72261074E+00 -1.54452215E+01  7.72261074E+00  7.72261074E+00
 -1.54452215E+01  7.72261074E+00  7.72261074E+00 -1.54452215E+01  7.72261074E+00
  7.72261074E+00 -1.54452215E+01  7.72261074E+00  7.72261074E+00 -1.54452215E+01
  7.72261074E+00  7.72261074E+00 -1.54452215E+01  7.72261074E+00  7.72261074E+00
 -1.54452215E+01  7.72261074E+00  7.72261074E+00 -1.54452215E+01  7.72261074E+00
  7.72261074E+00 -1.54452215E+01  7.72261074E+00  7.72261074E+00 -1.54452215E+01
  7.72261074E+00  7.72261074E+00 -1.54452215E+01  7.72261074E+00  7.72261074E+00
 -1.54452215E+01  7.72261074E+00  7.72261074E+00 -1.54452215E+01  7.72261074E+00
  7.72261074E+00 -1.54452215E+01  7.72261074E+00  7.72261074E+00 -1.54452215E+01
  7.72261074E+00  7.72261074E+00 -1.54452215E+01  7.72261074E+00  7.72261074E+00
 -1.54452215E+01  7.72261074E+00  7.72261074E+00 -1.54452215E+01  7.72261074E+00
  7.72261074E+00 -1.54452215E+01  7.72261074E+00  7.72261074E+00 -1.54452215E+01
  7.72261074E+00  7.72261074E+00 -1.54452215E+01  7.72261074E+00  7.72261074E+00
 -1.54452215E+01  7.72261074E+00  7.72261074E+00 -1.54452215E+01  7.72261074E+00
  7.72261074E+00 -1.54452215E+01  7.72261074E+00  7.72261074E+00 -1.54452215E+01
  7.72261074E+00  7.72261074E+00 -1.54452215E+01  7.72261074E+00  7.72261074E+00
 -1.54452215E+01  7.72261074E+00  7.72261074E+00 -1.54452215E+01  7.72261074E+00
  7.72261074E+00 -1.54452215E+01  7.72261074E+00  7.72261074E+00 -1.54452215E+01
  7.72261074E+00  7.72261074E+00 -1.54452215E+01  7.72261074E+00  7.72261074E+00
 -1.54452215E+01  7.72261074E+00  7.72261074E+00 -1.54452215E+01  7.72261074E+00
  7.72261074E+00 -1.54452215E+01  7.72261074E+00  7.72261074E+00 -1.54452215E+01
  7.72261074E+00  7.72261074E+00 -1.54452215E+01  7.72261074E+00  7.72261074E+00
 -1.54452215E+01  7.72261074E+00  7.72261074E+00 -1.54452215E+01  7.72261074E+00
  7.72261074E+00 -1.54452215E+01  7.72261074E+00  7.72261074E+00 -1.54452215E+01
  7.72261074E+00  7.72261074E+00 -1.54452215E+01  7.72261074E+00  7.72261074E+00
 -1.54452215E+01  7.72261074E+00  7.72261074E+00 -1.54452215E+01  7.72261074E+00
  7.72261074E+00 -1.54452215E+01  7.72261074E+00  7.72261074E+00 -1.54452215E+01
  7.72261074E+00  7.72261074E+00 -1.54452215E+01  7.72261074E+00  7.72261074E+00
 -1.54452215E+01  7.72261074E+00  7.72261074E+00 -1.54452215E+01  7.72261074E+00
  7.72261074E+00 -1.54452215E+01  7.72261074E+00  7.72261074E+00 -1.54452215E+01
  7.72261074E+00  7.72261074E+00 -1.54452215E+01  7.72261074E+00  7.72261074E+00
 -1.54452215E+01  7.72261074E+00  7.72261074E+00 -1.54452215E+01  7.72261074E+00
  7.72261074E+00 -1.54452215E+01  7.72261074E+00  7.72261074E+00 -1.54452215E+01
  7.72261074E+00  7.72261074E+00 -1.54452215E+01  7.72261074E+00  7.72261074E+00
 -1.54452215E+01  7.72261074E+00  7.72261074E+00 -1.54452215E+01  7.72261074E+00
  7.72261074E+00 -1.54452215E+01  7.72261074E+00  7.72261074E+00 -1.54452215E+01
  7.72261074E+00  7.72261074E+00 -1.54452215E+01  7.72261074E+00  7.72261074E+00
 -1.54452215E+01  7.72261074E+00  7.72261074E+00 -1.54452215E+01  7.72261074E+00
  7.72261074E+00 -1.54452215E+01  7.72261074E+00  7.72261074E+00 -1.54452215E+01
  7.72261074E+00  7.72261074E+00 -1.54452215E+01  7.72261074E+00  7.72261074E+00
 -1.54452215E+01  7.72261074E+00  7.72261074E+00 -1.54452215E+01  7.72261074E+00
  7.72261074E+00 -1.54452215E+01  7.72261074E+00  7.72261074E+00 -1.54452215E+01
  7.72261074E+00  7.72261074E+00 -1.54452215E+01  7.72261074E+00  7.72261074E+00
 -1.54452215E+01  7.72261074E+00  7.72261074E+00 -1.54452215E+01  7.72261074E+00
  7.72261074E+00 -1.54452215E+01  7.72261074E+00  7.72261074E+00 -1.54452215E+01
  7.72261074E+00  7.72261074E+00 -1.54452215E+01  7.72261074E+00  7.72261074E+00
 -1.54452215E+01  7.72261074E+00  7.72261074E+00 -1.54452215E+01  7.72261074E+00
  7.72261074E+00 -1.54452215E+01  7.72261074E+00  7.72261074E+00 -1.54452215E+01
  7.72261074E+00  7.72261074E+00 -1.54452215E+01  7.72261074E+00  7.72261074E+00
 -1.54452215E+01  7.72261074E+00  7.72261074E+00 -1.54452215E+01  7.72261074E+00
  7.72261074E+00 -1.54452215E+01  7.72261074E+00  7.72261074E+00 -1.54452215E+01
  7.72261074E+00  7.72261074E+00 -1.54452215E+01  7.72261074E+00  7.72261074E+00
 -1.54452215E+01  7.72261074E+00  7.72261074E+00 -1.54452215E+01  7.72261074E+00
  7.72261074E+00 -1.54452215E+01  7.72261074E+00  7.72261074E+00 -1.54452215E+01
  7.72261074E+00  7.72261074E+00 -1.54452215E+01  7.72261074E+00  7.72261074E+00
 -1.54452215E+01  7.72261074E+00  7.72261074E+00 -1.54452215E+01  7.72261074E+00
  7.72261074E+00 -1.54452215E+01  7.72261074E+00  7.72261074E+00 -1.54452215E+01
  7.72261074E+00  7.72261074E+00 -1.54452215E+01  7.72261074E+00  7.72261074E+00
 -1.54452215E+01  7.72261074E+00  7.72261074E+00 -1.54452215E+01  7.72261074E+00
  7.72261074E+00 -1.54452215E+01  7.72261074E+00  7.72261074E+00 -1.54452215E+01
  7.72261074E+00  7.72261074E+00 -1.54452215E+01  7.72261074E+00  7.72261074E+00
 -1.54452215E+01  7.72261074E+00  7.72261074E+00 -1.54452215E+01  7.72261074E+00
  7.72261074E+00 -1.54452215E+01  7.72261074E+00  7.72261074E+00 -1.54452215E+01
  7.72261074E+00  7.72261074E+00 -1.54452215E+01  7.72261074E+00  7.72261074E+00
 -1.54452215E+01  7.72261074E+00  7.72261074E+00 -1.54452215E+01  7.72261074E+00
  7.72261074E+00 -1.54452215E+01  7.72261074E+00  7.72261074E+00 -1.54452215E+01
  7.72261074E+00  7.72261074E+00 -1.54452215E+01  7.72261074E+00  7.72261074E+00
 -1.54452215E+01  7.72261074E+00  7.72261074E+00 -1.54452215E+01  7.72261074E+00
  7.72261074E+00 -1.54452215E+01  7.72261074E+00  7.72261074E+00 -1.54452215E+01
  7.72261074E+00  7.72261074E+00 -1.54452215E+01  7.72261074E+00  7.72261074E+00
 -1.54452215E+01  7.72261074E+00  7.72261074E+00 -1.54452215E+01  7.72261074E+00
  7.72261074E+00 -1.54452215E+01  7.72261074E+00  7.72261074E+00 -1.54452215E+01
  7.72261074E+00  7.72261074E+00 -1.54452215E+01  7.72261074E+00  7.72261074E+00
 -1.54452215E+01  7.72261074E+00  7.72261074E+00 -1.54452215E+01  7.72261074E+00
  7.72261074E+00 -1.54452215E+01  7.72261074E+00  7.72261074E+00 -1.54452215E+01
  7.72261074E+00  7.72261074E+00 -1.54452215E+01  7.72261074E+00  7.72261074E+00
 -1.54452215E+01  7.72261074E+00  7.72261074E+00 -1.54452215E+01  7.72261074E+00
  7.72261074E+00 -1.54452215E+01  7.72261074E+00  7.72261074E+00 -1.54452215E+01
  7.72261074E+00  7.72261074E+00 -1.54452215E+01  7.72261074E+00  7.72261074E+00
 -1.54452215E+01  7.72261074E+00  7.72261074E+00 -1.54452215E+01  7.72261074E+00
  7.72261074E+00 -1.54452215E+01  7.72261074E+00  7.72261074E+00 -1.54452215E+01
  7.72261074E+00  7.72261074E+00 -1.54452215E+01  7.72261074E+00  7.72261074E+00
 -1.54452215E+01  7.72261074E+00  7.72261074E+00 -1.54452215E+01  7.72261074E+00
  7.72261074E+00 -1.54452215E+01  7.72261074E+00  7.72261074E+00 -1.54452215E+01
  7.72261074E+00  7.72261074E+00 -1.54452215E+01  7.72261074E+00  7.72261074E+00
 -1.54452215E+01  7.72261074E+00  7.72261074E+00 -1.54452215E+01  7.72261074E+00
  7.72261074E+00 -1.54452215E+01  7.72261074E+00  7.72261074E+00 -1.54452215E+01
  7.72261074E+00  7.72261074E+00 -1.54452215E+01  7.72261074E+00  7.72261074E+00
 -1.54452215E+01  7.72261074E+00  7.72261074E+00 -1.54452215E+01  7.72261074E+00
  7.72261074E+00 -1.54452215E+01  7.72261074E+00  7.72261074E+00 -1.54452215E+01
  7.72261074E+00  7.72261074E+00 -1.54452215E+01  7.72261074E+00  7.72261074E+00
 -1.54452215E+01  7.72261074E+00  7.72261074E+00 -1.54452215E+01  7.72261074E+00
  7.72261074E+00 -1.54452215E+01  7.72261074E+00  7.72261074E+00 -1.54452215E+01
  7.72261074E+00  7.72261074E+00 -1.54452215E+01  7.72261074E+00  7.72261074E+00
 -1.54452215E+01  7.72261074E+00  7.72261074E+00 -1.54452215E+01  7.72261074E+00
  7.72261074E+00 -1.54452215E+01  7.72261074E+00  7.72261074E+00 -1.54452215E+01
  7.72261074E+00  7.72261074E+00 -1.54452215E+01  7.72261074E+00  7.72261074E+00
 -1.54452215E+01  7.72261074E+00  7.72261074E+00 -1.54452215E+01  7.72261074E+00
  7.72261074E+00 -1.54452215E+01  7.72261074E+00  7.72261074E+00 -1.54452215E+01
  7.72261074E+00  7.72261074E+00 -1.54452215E+01  7.72261074E+00  7.72261074E+00
 -1.54452215E+01  7.72261074E+00  7.72261074E+00 -1.54452215E+01  7.72261074E+00
  7.72261074E+00 -1.54452215E+01  7.72261074E+00  7.72261074E+00 -1.54452215E+01
  7.72261074E+00  7.72261074E+00 -1.54452215E+01  7.72261074E+00  7.72261074E+00
 -1.54452215E+01  7.72261074E+00  7.72261074E+00 -1.54452215E+01  7.72261074E+00
  7.72261074E+00 -1.54452215E+01  7.72261074E+00  7.72261074E+00 -1.54452215E+01
  7.72261074E+00  7.72261074E+00 -1.54452215E+01  7.72261074E+00  7.72261074E+00
 -1.54452215E+01  7.72261074E+00  7.72261074E+00 -1.54452215E+01  7.72261074E+00
  7.72261074E+00 -1.54452215E+01  7.72261074E+00  7.72261074E+00 -1.54452215E+01
  7.72261074E+00  7.72261074E+00 -1.54452215E+01  7.72261074E+00  7.72261074E+00
 -1.54452215E+01  7.72261074E+00  7.72261074E+00 -1.54452215E+01  7.72261074E+00
  7.72261074E+00 -1.54452215E+01  7.72261074E+00  7.72261074E+00 -1.54452215E+01
  7.72261074E+00  7.72261074E+00 -1.54452215E+01  7.72261074E+00  7.72261074E+00
 -1.54452215E+01  7.72261074E+00  7.72261074E+00 -1.54452215E+01  7.72261074E+00
  7.72261074E+00 -1.54452215E+01  7.72261074E+00  7.72261074E+00 -1.54452215E+01
  7.72261074E+00  7.72261074E+00 -1.54452215E+01  7.72261074E+00  7.72261074E+00
 -1.54452215E+01  7.72261074E+00  7.72261074E+00 -1.54452215E+01  7.72261074E+00
  7.72261074E+00 -1.54452215E+01  7.72261074E+00  7.72261074E+00 -1.54452215E+01
  7.72261074E+00  7.72261074E+00 -1.54452215E+01  7.72261074E+00  7.72261074E+00
 -1.54452215E+01  7.72261074E+00  7.72261074E+00 -1.54452215E+01  7.72261074E+00
  7.72261074E+00 -1.54452215E+01  7.72261074E+00  7.72261074E+00 -1.54452215E+01
  7.72261074E+00  7.72261074E+00 -1.54452215E+01  7.72261074E+00  7.72261074E+00
 -1.54452215E+01  7.72261074E+00  7.72261074E+00 -1.54452215E+01  7.72261074E+00
  7.72261074E+00 -1.54452215E+01  7.72261074E+00  7.72261074E+00 -1.54452215E+01
  7.72261074E+00  7.72261074E+00 -1.54452215E+01  7.72261074E+00  7.72261074E+00
 -1.54452215E+01  7.72261074E+00  7.72261074E+00 -1.54452215E+01  7.72261074E+00
  7.72261074E+00 -1.54452215E+01  7.72261074E+00  7.72261074E+00 -1.54452215E+01
  7.72261074E+00  7.72261074E+00 -1.54452215E+01  7.72261074E+00  7.72261074E+00
 -1.54452215E+01  7.72261074E+00  7.72261074E+00 -1.54452215E+01  7.72261074E+00
  7.72261074E+00 -1.54452215E+01  7.72261074E+00  7.72261074E+00 -1.54452215E+01
  7.72261074E+00  7.72261074E+00 -1.54452215E+01  7.72261074E+00  7.72261074E+00
 -1.54452215E+01  7.72261074E+00  7.72261074E+00 -1.54452215E+01  7.72261074E+00
  7.72261074E+00 -1.54452215E+01  7.72261074E+00  7.72261074E+00 -1.54452215E+01
  7.72261074E+00  7.72261074E+00 -1.54452215E+01  7.72261074E+00  7.72261074E+00
 -1.54452215E+01  7.72261074E+00  7.72261074E+00 -1.54452215E+01  7.72261074E+00
  7.72261074E+00 -1.54452215E+01  7.72261074E+00  7.72261074E+00 -1.54452215E+01
  7.72261074E+00  7.72261074E+00 -1.54452215E+01  7.72261074E+00  7.72261074E+00
 -1.54452215E+01  7.72261074E+00  7.72261074E+00 -1.54452215E+01  7.72261074E+00
  7.72261074E+00 -1.54452215E+01  7.72261074E+00  7.72261074E+00 -1.54452215E+01
  7.72261074E+00  7.72261074E+00 -1.54452215E+01  7.72261074E+00  7.72261074E+00
 -1.54452215E+01  7.72261074E+00  7.72261074E+00 -1.54452215E+01  7.72261074E+00
  7.72261074E+00 -1.54452215E+01  7.72261074E+00  7.72261074E+00 -1.54452215E+01
  7.72261074E+00  7.72261074E+00 -1.54452215E+01  7.72261074E+00  7.72261074E+00
 -1.54452215E+01  7.72261074E+00  7.72261074E+00 -1.54452215E+01  7.72261074E+00
  7.72261074E+00 -1.54452215E+01  7.72261074E+00  7.72261074E+00 -1.54452215E+01
  7.72261074E+00  7.72261074E+00 -1.54452215E+01  7.72261074E+00  7.72261074E+00
 -1.54452215E+01  7.72261074E+00  7.72261074E+00 -1.54452215E+01  7.72261074E+00
  7.72261074E+00 -1.54452215E+01  7.72261074E+00  7.72261074E+00 -1.54452215E+01
  7.72261074E+00  7.72261074E+00 -1.54452215E+01  7.72261074E+00  7.72261074E+00
 -1.54452215E+01  7.72261074E+00  7.72261074E+00 -1.54452215E+01  7.72261074E+00
  7.72261074E+00 -1.54452215E+01  7.72261074E+00  7.72261074E+00 -1.54452215E+01
  7.72261074E+00  7.72261074E+00 -1.54452215E+01  7.72261074E+00  7.72261074E+00
 -1.54452215E+01  7.72261074E+00  7.72261074E+00 -1.54452215E+01  7.72261074E+00
  7.72261074E+00 -1.54452215E+01  7.72261074E+00  7.72261074E+00 -1.54452215E+01
  7.72261074E+00  7.72261074E+00 -1.54452215E+01  7.72261074E+00  7.72261074E+00
 -1.54452215E+01  7.72261074E+00  7.72261074E+00 -1.54452215E+01  7.72261074E+00
  7.72261074E+00 -1.54452215E+01  7.72261074E+00  7.72261074E+00 -1.54452215E+01
  7.72261074E+00  7.72261074E+00 -1.54452215E+01  7.72261074E+00  7.72261074E+00
 -1.54452215E+01  7.72261074E+00  7.72261074E+00 -1.54452215E+01  7.72261074E+00
  7.72261074E+00 -1.54452215E+01  7.72261074E+00  7.72261074E+00 -1.54452215E+01
  7.72261074E+00  7.72261074E+00 -1.54452215E+01  7.72261074E+00  7.72261074E+00
 -1.54452215E+01  7.72261074E+00  7.72261074E+00 -1.54452215E+01  7.72261074E+00
  7.72261074E+00 -1.54452215E+01  7.72261074E+00  7.72261074E+00 -1.54452215E+01
  7.72261074E+00  7.72261074E+00 -1.54452215E+01  7.72261074E+00  7.72261074E+00
 -1.54452215E+01  7.72261074E+00  7.72261074E+00 -1.54452215E+01  7.72261074E+00
  7.72261074E+00 -1.54452215E+01  7.72261074E+00  7.72261074E+00 -1.54452215E+01
  7.72261074E+00  7.72261074E+00 -1.54452215E+01  7.72261074E+00  7.72261074E+00
 -1.54452215E+01  7.72261074E+00  7.72261074E+00 -1.54452215E+01  7.72261074E+00
  7.72261074E+00 -1.54452215E+01  7.72261074E+00  7.72261074E+00 -1.54452215E+01
  7.72261074E+00  7.72261074E+00 -1.54452215E+01  7.72261074E+00  7.72261074E+00
 -1.54452215E+01  7.72261074E+00  7.72261074E+00 -1.54452215E+01  7.72261074E+00
  7.72261074E+00 -1.54452215E+01  7.72261074E+00  7.72261074E+00 -1.54452215E+01
  7.72261074E+00  7.72261074E+00 -1.54452215E+01  7.72261074E+00  7.72261074E+00
 -1.54452215E+01  7.72261074E+00  7.72261074E+00 -1.54452215E+01  7.72261074E+00
  7.72261074E+00 -1.54452215E+01  7.72261074E+00  7.72261074E+00 -1.54452215E+01
  7.72261074E+00  7.72261074E+00 -1.54452215E+01  7.72261074E+00  7.72261074E+00
 -1.54452215E+01  7.72261074E+00  7.72261074E+00 -1.54452215E+01  7.72261074E+00
  7.72261074E+00 -1.54452215E+01  7.72261074E+00  7.72261074E+00 -1.54452215E+01
  7.72261074E+00  7.72261074E+00 -1.54452215E+01  7.72261074E+00  7.72261074E+00
 -1.54452215E+01  7.72261074E+00  7.72261074E+00 -1.54452215E+01  7.72261074E+00
  7.72261074E+00 -1.54452215E+01  7.72261074E+00  7.72261074E+00 -1.54452215E+01
  7.72261074E+00  7.72261074E+00 -1.54452215E+01  7.72261074E+00  7.72261074E+00
 -1.54452215E+01  7.72261074E+00  7.72261074E+00 -1.54452215E+01  7.72261074E+00
  7.72261074E+00 -1.54452215E+01  7.72261074E+00  7.72261074E+00 -1.54452215E+01
  7.72261074E+00  7.72261074E+00 -1.54452215E+01  7.72261074E+00  7.72261074E+00
 -1.54452215E+01  7.72261074E+00  7.72261074E+00 -1.54452215E+01  7.72261074E+00
  7.72261074E+00 -1.54452215E+01  7.72261074E+00  7.72261074E+00 -1.54452215E+01
  7.72261074E+00  7.72261074E+00 -1.54452215E+01  7.72261074E+00  7.72261074E+00
 -1.54452215E+01  7.72261074E+00  7.72261074E+00 -1.54452215E+01  7.72261074E+00
  7.72261074E+00 -1.54452215E+01  7.72261074E+00  7.72261074E+00 -1.54452215E+01
  7.72261074E+00  7.72261074E+00 -1.54452215E+01  7.72261074E+00  7.72261074E+00
 -1.54452215E+01  7.72261074E+00  7.72261074E+00 -1.54452215E+01  7.72261074E+00
  7.72261074E+00 -1.54452215E+01  7.72261074E+00  7.72261074E+00 -1.54452215E+01
  7.72261074E+00  7.72261074E+00 -1.54452215E+01  7.72261074E+00  7.72261074E+00
 -1.54452215E+01  7.72261074E+00  7.72261074E+00 -1.54452215E+01  7.72261074E+00
  7.72261074E+00 -1.54452215E+01  7.72261074E+00  7.72261074E+00 -1.54452215E+01
  7.72261074E+00  7.72261074E+00 -1.54452215E+01  7.72261074E+00  7.72261074E+00
 -1.54452215E+01  7.72261074E+00  7.72261074E+00 -1.54452215E+01  7.72261074E+00
  7.72261074E+00 -1.54452215E+01  7.72261074E+00  7.72261074E+00 -1.54452215E+01
  7.72261074E+00  7.72261074E+00 -1.54452215E+01  7.72261074E+00  7.72261074E+00
 -1.54452215E+01  7.72261074E+00  7.72261074E+00 -1.54452215E+01  7.72261074E+00
  7.72261074E+00 -1.54452215E+01  7.72261074E+00  7.72261074E+00 -1.54452215E+01
  7.72261074E+00  7.72261074E+00 -1.54452215E+01  7.72261074E+00  7.72261074E+00
 -1.54452215E+01  7.72261074E+00  7.72261074E+00 -1.54452215E+01  7.72261074E+00
  7.72261074E+00 -1.54452215E+01  7.72261074E+00  7.72261074E+00 -1.54452215E+01
  7.72261074E+00  7.72261074E+00 -1.54452215E+01  7.72261074E+00  7.72261074E+00
 -1.54452215E+01  7.72261074E+00  7.72261074E+00 -1.54452215E+01  7.72261074E+00
  7.72261074E+00 -1.54452215E+01  7.72261074E+00  7.72261074E+00 -1.54452215E+01
  7.72261074E+00  7.72261074E+00 -1.54452215E+01  7.72261074E+00  7.72261074E+00
 -1.54452215E+01  7.72261074E+00  7.72261074E+00 -1.54452215E+01  7.72261074E+00
  7.72261074E+00 -1.54452215E+01  7.72261074E+00  7.72261074E+00 -1.54452215E+01
  7.72261074E+00  7.72261074E+00 -1.54452215E+01  7.72261074E+00  7.72261074E+00
 -1.54452215E+01  7.72261074E+00  7.72261074E+00 -1.54452215E+01  7.72261074E+00
  7.72261074E+00 -1.54452215E+01  7.72261074E+00  7.72261074E+00 -1.54452215E+01
  7.72261074E+00  7.72261074E+00 -1.54452215E+01  7.72261074E+00  7.72261074E+00
 -1.54452215E+01  7.72261074E+00  7.72261074E+00 -1.54452215E+01  7.72261074E+00
  7.72261074E+00 -1.54452215E+01  7.72261074E+00  7.72261074E+00 -1.54452215E+01
  7.72261074E+00  7.72261074E+00 -1.54452215E+01  7.72261074E+00  7.72261074E+00
 -1.54452215E+01  7.72261074E+00  7.72261074E+00 -1.54452215E+01  7.72261074E+00
  7.72261074E+00 -1.54452215E+01  7.72261074E+00  7.72261074E+00 -1.54452215E+01
  7.72261074E+00  7.72261074E+00 -1.54452215E+01  7.72261074E+00  7.72261074E+00
 -1.54452215E+01  7.72261074E+00  7.72261074E+00 -1.54452215E+01  7.72261074E+00
  7.72261074E+00 -1.54452215E+01  7.72261074E+00  7.72261074E+00 -1.54452215E+01
  7.72261074E+00  7.72261074E+00 -1.54452215E+01  7.72261074E+00  7.72261074E+00
 -1.54452215E+01  7.72261074E+00  7.72261074E+00 -1.54452215E+01  7.72261074E+00
  7.72261074E+00 -1.54452215E+01  7.72261074E+00  7.72261074E+00 -1.54452215E+01
  7.72261074E+00  7.72261074E+00 -1.54452215E+01  7.72261074E+00  7.72261074E+00
 -1.54452215E+01  7.72261074E+00  7.72261074E+00 -1.54452215E+01  7.72261074E+00
  7.72261074E+00 -1.54452215E+01  7.72261074E+00  7.72261074E+00 -1.54452215E+01
  7.72261074E+00  7.72261074E+00 -1.54452215E+01  7.72261074E+00  7.72261074E+00
 -1.54452215E+01  7.72261074E+00  7.72261074E+00 -1.54452215E+01  7.72261074E+00
  7.72261074E+00 -1.54452215E+01  7.72261074E+00  7.72261074E+00 -1.54452215E+01
  7.72261074E+00  7.72261074E+00 -1.54452215E+01  7.72261074E+00  7.72261074E+00
 -1.54452215E+01  7.72261074E+00  7.72261074E+00 -1.54452215E+01  7.72261074E+00
  7.72261074E+00 -1.54452215E+01  7.72261074E+00  7.72261074E+00 -1.54452215E+01
  7.72261074E+00  7.72261074E+00 -1.54452215E+01  7.72261074E+00  7.72261074E+00
 -1.54452215E+01  7.72261074E+00  7.72261074E+00 -1.54452215E+01  7.72261074E+00
  7.72261074E+00 -1.54452215E+01  7.72261074E+00  7.72261074E+00 -1.54452215E+01
  7.72261074E+00  7.72261074E+00 -1.54452215E+01  7.72261074E+00  7.72261074E+00
 -1.54452215E+01  7.72261074E+00  7.72261074E+00 -1.54452215E+01  7.72261074E+00
  7.72261074E+00 -1.54452215E+01  7.72261074E+00  7.72261074E+00 -1.54452215E+01
  7.72261074E+00  7.72261074E+00 -1.54452215E+01  7.72261074E+00  7.72261074E+00
 -1.54452215E+01  7.72261074E+00  7.72261074E+00 -1.54452215E+01  7.72261074E+00
  7.72261074E+00 -1.54452215E+01  7.72261074E+00  7.72261074E+00 -1.54452215E+01
  7.72261074E+00  7.72261074E+00 -1.54452215E+01  7.72261074E+00  7.72261074E+00
 -1.54452215E+01  7.72261074E+00  7.72261074E+00 -1.54452215E+01  7.72261074E+00
  7.72261074E+00 -1.54452215E+01  7.72261074E+00  7.72261074E+00 -1.54452215E+01
  7.72261074E+00  7.72261074E+00 -1.54452215E+01  7.72261074E+00  7.72261074E+00
 -1.54452215E+01  7.72261074E+00  7.72261074E+00 -1.54452215E+01  7.72261074E+00
  7.72261074E+00 -1.54452215E+01  7.72261074E+00  7.72261074E+00 -1.54452215E+01
  7.72261074E+00  7.72261074E+00 -1.54452215E+01  7.72261074E+00  7.72261074E+00
 -1.54452215E+01  7.72261074E+00  7.72261074E+00 -1.54452215E+01  7.72261074E+00
  7.72261074E+00 -1.54452215E+01  7.72261074E+00  7.72261074E+00 -1.54452215E+01
  7.72261074E+00  7.72261074E+00 -1.54452215E+01  7.72261074E+00  7.72261074E+00
 -1.54452215E+01  7.72261074E+00  7.72261074E+00 -1.54452215E+01  7.72261074E+00
  7.72261074E+00 -1.54452215E+01  7.72261074E+00  7.72261074E+00 -1.54452215E+01
  7.72261074E+00  7.72261074E+00 -1.54452215E+01  7.72261074E+00  7.72261074E+00
 -1.54452215E+01  7.72261074E+00  7.72261074E+00 -1.54452215E+01  7.72261074E+00
  7.72261074E+00 -1.54452215E+01  7.72261074E+00  7.72261074E+00 -1.54452215E+01
  7.72261074E+00  7.72261074E+00 -1.54452215E+01  7.72261074E+00  7.72261074E+00
 -1.54452215E+01  7.72261074E+00  7.72261074E+00 -1.54452215E+01  7.72261074E+00
  7.72261074E+00 -1.54452215E+01  7.72261074E+00  7.72261074E+00 -1.54452215E+01
  7.72261074E+00  7.72261074E+00 -1.54452215E+01  7.72261074E+00  7.72261074E+00
 -1.54452215E+01  7.72261074E+00  7.72261074E+00 -1.54452215E+01  7.72261074E+00
  7.72261074E+00 -1.54452215E+01  7.72261074E+00  7.72261074E+00 -1.54452215E+01
  7.72261074E+00  7.72261074E+00 -1.54452215E+01  7.72261074E+00  7.72261074E+00
 -1.54452215E+01  7.72261074E+00  7.72261074E+00 -1.54452215E+01  7.72261074E+00
  7.72261074E+00 -1.54452215E+01  7.72261074E+00  7.72261074E+00 -1.54452215E+01
  7.72261074E+00  7.72261074E+00 -1.54452215E+01  7.72261074E+00  7.72261074E+00
 -1.54452215E+01  7.72261074E+00  7.72261074E+00 -1.54452215E+01  7.72261074E+00
  7.72261074E+00 -1.54452215E+01  7.72261074E+00  7.72261074E+00 -1.54452215E+01
  7.72261074E+00  7.72261074E+00 -1.54452215E+01  7.72261074E+00  7.72261074E+00
 -1.54452215E+01  7.72261074E+00  7.72261074E+00 -1.54452215E+01  7.72261074E+00
  7.72261074E+00 -1.54452215E+01  7.72261074E+00  7.72261074E+00 -1.54452215E+01
  7.72261074E+00  7.72261074E+00 -1.54452215E+01  7.72261074E+00  7.72261074E+00
 -1.54452215E+01  7.72261074E+00  7.72261074E+00 -1.54452215E+01  7.72261074E+00
  7.72261074E+00 -1.54452215E+01  7.72261074E+00  7.72261074E+00 -1.54452215E+01
  7.72261074E+00  7.72261074E+00 -1.54452215E+01  7.72261074E+00  7.72261074E+00
 -1.54452215E+01  7.72261074E+00  7.72261074E+00 -1.54452215E+01  7.72261074E+00
  7.72261074E+00 -1.54452215E+01  7.72261074E+00  7.72261074E+00 -1.54452215E+01
  7.72261074E+00  7.72261074E+00 -1.54452215E+01  7.72261074E+00  7.72261074E+00
 -1.54452215E+01  7.72261074E+00  7.72261074E+00 -1.54452215E+01  7.72261074E+00
  7.72261074E+00 -1.54452215E+01  7.72261074E+00  7.72261074E+00 -1.54452215E+01
  7.72261074E+00  7.72261074E+00 -1.54452215E+01  7.72261074E+00  7.72261074E+00
 -1.54452215E+01  7.72261074E+00  7.72261074E+00 -1.54452215E+01  7.72261074E+00
  7.72261074E+00 -1.54452215E+01  7.72261074E+00  7.72261074E+00 -1.54452215E+01
  7.72261074E+00  7.72261074E+00 -1.54452215E+01  7.72261074E+00  7.72261074E+00
 -1.54452215E+01  7.72261074E+00  7.72261074E+00 -1.54452215E+01  7.72261074E+00
  7.72261074E+00 -1.54452215E+01  7.72261074E+00  7.72261074E+00 -1.54452215E+01
  7.72261074E+00  7.72261074E+00 -1.54452215E+01  7.72261074E+00  7.72261074E+00
 -1.54452215E+01  7.72261074E+00  7.72261074E+00 -1.54452215E+01  7.72261074E+00
  7.72261074E+00 -1.54452215E+01  7.72261074E+00  7.72261074E+00 -1.54452215E+01
  7.72261074E+00  7.72261074E+00 -1.54452215E+01  7.72261074E+00  7.72261074E+00
 -1.54452215E+01  7.72261074E+00  7.72261074E+00 -1.54452215E+01  7.72261074E+00
  7.72261074E+00 -1.54452215E+01  7.72261074E+00  7.72261074E+00 -1.54452215E+01
  7.72261074E+00  7.72261074E+00 -1.54452215E+01  7.72261074E+00  7.72261074E+00
 -1.54452215E+01  7.72261074E+00  7.72261074E+00 -1.54452215E+01  7.72261074E+00
  7.72261074E+00 -1.54452215E+01  7.72261074E+00  7.72261074E+00 -1.54452215E+01
  7.72261074E+00  7.72261074E+00 -1.54452215E+01  7.72261074E+00  7.72261074E+00
 -1.54452215E+01  7.72261074E+00  7.72261074E+00 -1.54452215E+01  7.72261074E+00
  7.72261074E+00 -1.54452215E+01  7.72261074E+00  7.72261074E+00 -1.54452215E+01
  7.72261074E+00  7.72261074E+00 -1.54452215E+01  7.72261074E+00  7.72261074E+00
 -1.54452215E+01  7.72261074E+00  7.72261074E+00 -1.54452215E+01  7.72261074E+00
  7.72261074E+00 -1.54452215E+01  7.72261074E+00  7.72261074E+00 -1.54452215E+01
  7.72261074E+00  7.72261074E+00 -1.54452215E+01  7.72261074E+00  7.72261074E+00
 -1.54452215E+01  7.72261074E+00  7.72261074E+00 -1.54452215E+01  7.72261074E+00
  7.72261074E+00 -1.54452215E+01  7.72261074E+00  7.72261074E+00 -1.54452215E+01
  7.72261074E+00  7.72261074E+00 -1.54452215E+01  7.72261074E+00  7.72261074E+00
 -1.54452215E+01  7.72261074E+00  7.72261074E+00 -1.54452215E+01  7.72261074E+00
  7.72261074E+00 -1.54452215E+01  7.72261074E+00  7.72261074E+00 -1.54452215E+01
  7.72261074E+00  7.72261074E+00 -1.54452215E+01  7.72261074E+00  7.72261074E+00
 -1.54452215E+01  7.72261074E+00  7.72261074E+00 -1.54452215E+01  7.72261074E+00
  7.72261074E+00 -1.54452215E+01  7.72261074E+00  7.72261074E+00 -1.54452215E+01
  7.72261074E+00  7.72261074E+00 -1.54452215E+01  7.72261074E+00  7.72261074E+00
 -1.54452215E+01  7.72261074E+00  7.72261074E+00 -1.54452215E+01  7.72261074E+00
  7.72261074E+00 -1.54452215E+01  7.72261074E+00  7.72261074E+00 -1.54452215E+01
  7.72261074E+00  7.72261074E+00 -1.54452215E+01  7.72261074E+00  7.72261074E+00
 -1.54452215E+01  7.72261074E+00  7.72261074E+00 -1.54452215E+01  7.72261074E+00
  7.72261074E+00 -1.54452215E+01  7.72261074E+00  7.72261074E+00 -1.54452215E+01
  7.72261074E+00  7.72261074E+00 -1.54452215E+01  7.72261074E+00  7.72261074E+00
 -1.54452215E+01  7.72261074E+00  7.72261074E+00 -1.54452215E+01  7.72261074E+00
  7.72261074E+00 -1.54452215E+01  7.72261074E+00  7.72261074E+00 -1.54452215E+01
  7.72261074E+00  7.72261074E+00 -1.54452215E+01  7.72261074E+00  7.72261074E+00
 -1.54452215E+01  7.72261074E+00  7.72261074E+00 -1.54452215E+01  7.72261074E+00
  7.72261074E+00 -1.54452215E+01  7.72261074E+00  7.72261074E+00 -1.54452215E+01
  7.72261074E+00  7.72261074E+00 -1.54452215E+01  7.72261074E+00  7.72261074E+00
 -1.54452215E+01  7.72261074E+00  7.72261074E+00 -1.54452215E+01  7.72261074E+00
  7.72261074E+00 -1.54452215E+01  7.72261074E+00  7.72261074E+00 -1.54452215E+01
  7.72261074E+00  7.72261074E+00 -1.54452215E+01  7.72261074E+00  7.72261074E+00
 -1.54452215E+01  7.72261074E+00  7.72261074E+00 -1.54452215E+01  7.72261074E+00
  7.72261074E+00 -1.54452215E+01  7.72261074E+00  7.72261074E+00 -1.54452215E+01
  7.72261074E+00  7.72261074E+00 -1.54452215E+01  7.72261074E+00  7.72261074E+00
 -1.54452215E+01  7.72261074E+00  7.72261074E+00 -1.54452215E+01  7.72261074E+00
  7.72261074E+00 -1.54452215E+01  7.72261074E+00  7.72261074E+00 -1.54452215E+01
  7.72261074E+00  7.72261074E+00 -1.54452215E+01  7.72261074E+00  7.72261074E+00
 -1.54452215E+01  7.72261074E+00  7.72261074E+00 -1.54452215E+01  7.72261074E+00
  7.72261074E+00 -1.54452215E+01  7.72261074E+00  7.72261074E+00 -1.54452215E+01
  7.72261074E+00  7.72261074E+00 -1.54452215E+01  7.72261074E+00  7.72261074E+00
 -1.54452215E+01  7.72261074E+00  7.72261074E+00 -1.54452215E+01  7.72261074E+00
  7.72261074E+00 -1.54452215E+01  7.72261074E+00  7.72261074E+00 -1.54452215E+01
  7.72261074E+00  7.72261074E+00 -1.54452215E+01  7.72261074E+00  7.72261074E+00
 -1.54452215E+01  7.72261074E+00  7.72261074E+00 -1.54452215E+01  7.72261074E+00
  7.72261074E+00 -1.54452215E+01  7.72261074E+00  7.72261074E+00 -1.54452215E+01
  7.72261074E+00  7.72261074E+00 -1.54452215E+01  7.72261074E+00  7.72261074E+00
 -1.54452215E+01  7.72261074E+00  7.72261074E+00 -1.54452215E+01  7.72261074E+00
  7.72261074E+00 -1.54452215E+01  7.72261074E+00  7.72261074E+00 -1.54452215E+01
  7.72261074E+00  7.72261074E+00 -1.54452215E+01  7.72261074E+00  7.72261074E+00
 -1.54452215E+01  7.72261074E+00  7.72261074E+00 -1.54452215E+01  7.72261074E+00
  7.72261074E+00 -1.54452215E+01  7.72261074E+00  7.72261074E+00 -1.54452215E+01
  7.72261074E+00  7.72261074E+00 -1.54452215E+01  7.72261074E+00  7.72261074E+00
 -1.54452215E+01  7.72261074E+00  7.72261074E+00 -1.54452215E+01  7.72261074E+00
  7.72261074E+00 -1.54452215E+01  7.72261074E+00  7.72261074E+00 -1.54452215E+01
  7.72261074E+00  7.72261074E+00 -1.54452215E+01  7.72261074E+00  7.72261074E+00
 -1.54452215E+01  7.72261074E+00  7.72261074E+00 -1.54452215E+01  7.72261074E+00
  7.72261074E+00 -1.54452215E+01  7.72261074E+00  7.72261074E+00 -1.54452215E+01
  7.72261074E+00  7.72261074E+00 -1.54452215E+01  7.72261074E+00  7.72261074E+00
 -1.54452215E+01  7.72261074E+00  7.72261074E+00 -1.54452215E+01  7.72261074E+00
  7.72261074E+00 -1.54452215E+01  7.72261074E+00  7.72261074E+00 -1.54452215E+01
  7.72261074E+00  7.72261074E+00 -1.54452215E+01  7.72261074E+00  7.72261074E+00
 -1.54452215E+01  7.72261074E+00  7.72261074E+00 -1.54452215E+01  7.72261074E+00
  7.72261074E+00 -1.54452215E+01  7.72261074E+00  7.72261074E+00 -1.54452215E+01
  7.72261074E+00  7.72261074E+00 -1.54452215E+01  7.72261074E+00  7.72261074E+00
 -1.54452215E+01  7.72261074E+00  7.72261074E+00 -1.54452215E+01  7.72261074E+00
  7.72261074E+00 -1.54452215E+01  7.72261074E+00  7.72261074E+00 -1.54452215E+01
  7.72261074E+00  7.72261074E+00 -1.54452215E+01  7.72261074E+00  7.72261074E+00
 -1.54452215E+01  7.72261074E+00  7.72261074E+00 -1.54452215E+01  7.72261074E+00
  7.72261074E+00 -1.54452215E+01  7.72261074E+00  7.72261074E+00 -1.54452215E+01
  7.72261074E+00  7.72261074E+00 -1.54452215E+01  7.72261074E+00  7.72261074E+00
 -1.54452215E+01  7.72261074E+00  7.72261074E+00 -1.54452215E+01  7.72261074E+00
  7.72261074E+00 -1.54452215E+01  7.72261074E+00  7.72261074E+00 -1.54452215E+01
  7.72261074E+00  7.72261074E+00 -1.54452215E+01  7.72261074E+00  7.72261074E+00
 -1.54452215E+01  7.72261074E+00  7.72261074E+00 -1.54452215E+01  7.72261074E+00
  7.72261074E+00 -1.54452215E+01  7.72261074E+00  7.72261074E+00 -1.54452215E+01
  7.72261074E+00  7.72261074E+00 -1.54452215E+01  7.72261074E+00  7.72261074E+00
 -1.54452215E+01  7.72261074E+00  7.72261074E+00 -1.54452215E+01  7.72261074E+00
  7.72261074E+00 -1.54452215E+01  7.72261074E+00  7.72261074E+00 -1.54452215E+01
  7.72261074E+00  7.72261074E+00 -1.54452215E+01  7.72261074E+00  7.72261074E+00
 -1.54452215E+01  7.72261074E+00  7.72261074E+00 -1.54452215E+01  7.72261074E+00
  7.72261074E+00 -1.54452215E+01  7.72261074E+00  7.72261074E+00 -1.54452215E+01
  7.72261074E+00  7.72261074E+00 -1.54452215E+01  7.72261074E+00  7.72261074E+00
 -1.54452215E+01  7.72261074E+00  7.72261074E+00 -1.54452215E+01  7.72261074E+00
  7.72261074E+00 -1.54452215E+01  7.72261074E+00  7.72261074E+00 -1.54452215E+01
  7.72261074E+00  7.72261074E+00 -1.54452215E+01  7.72261074E+00  7.72261074E+00
 -1.54452215E+01  7.72261074E+00  7.72261074E+00 -1.54452215E+01  7.72261074E+00
  7.72261074E+00 -1.54452215E+01  7.72261074E+00  7.72261074E+00 -1.54452215E+01
  7.72261074E+00  7.72261074E+00 -1.54452215E+01  7.72261074E+00  7.72261074E+00
 -1.54452215E+01  7.72261074E+00  7.72261074E+00 -1.54452215E+01  7.72261074E+00
  7.72261074E+00 -1.54452215E+01  7.72261074E+00  7.72261074E+00 -1.54452215E+01
  7.72261074E+00  7.72261074E+00 -1.54452215E+01  7.72261074E+00  7.72261074E+00
 -1.54452215E+01  7.72261074E+00  7.72261074E+00 -1.54452215E+01  7.72261074E+00
  7.72261074E+00 -1.54452215E+01  7.72261074E+00  7.72261074E+00 -1.54452215E+01
  7.72261074E+00  7.72261074E+00 -1.54452215E+01  7.72261074E+00  7.72261074E+00
 -1.54452215E+01  7.72261074E+00  7.72261074E+00 -1.54452215E+01  7.72261074E+00
  7.72261074E+00 -1.54452215E+01  7.72261074E+00  7.72261074E+00 -1.54452215E+01
  7.72261074E+00  7.72261074E+00 -1.54452215E+01  7.72261074E+00  7.72261074E+00
 -1.54452215E+01  7.72261074E+00  7.72261074E+00 -1.54452215E+01  7.72261074E+00
  7.72261074E+00 -1.54452215E+01  7.72261074E+00  7.72261074E+00 -1.54452215E+01
  7.72261074E+00  7.72261074E+00 -1.54452215E+01  7.72261074E+00  7.72261074E+00
 -1.54452215E+01  7.72261074E+00  7.72261074E+00 -1.54452215E+01  7.72261074E+00
  7.72261074E+00 -1.54452215E+01  7.72261074E+00  7.72261074E+00 -1.54452215E+01
  7.72261074E+00  7.72261074E+00 -1.54452215E+01  7.72261074E+00  7.72261074E+00
 -1.54452215E+01  7.72261074E+00  7.72261074E+00 -1.54452215E+01  7.72261074E+00
  7.72261074E+00 -1.54452215E+01  7.72261074E+00  7.72261074E+00 -1.54452215E+01
  7.72261074E+00  7.72261074E+00 -1.54452215E+01  7.72261074E+00  7.72261074E+00
 -1.54452215E+01  7.72261074E+00  7.72261074E+00 -1.54452215E+01  7.72261074E+00
  7.72261074E+00 -1.54452215E+01  7.72261074E+00  7.72261074E+00 -1.54452215E+01
  7.72261074E+00  7.72261074E+00 -1.54452215E+01  7.72261074E+00  7.72261074E+00
 -1.54452215E+01  7.72261074E+00  7.72261074E+00 -1.54452215E+01  7.72261074E+00
  7.72261074E+00 -1.54452215E+01  7.72261074E+00  7.72261074E+00 -1.54452215E+01
  7.72261074E+00  7.72261074E+00 -1.54452215E+01  7.72261074E+00  7.72261074E+00
 -1.54452215E+01  7.72261074E+00  7.72261074E+00 -1.54452215E+01  7.72261074E+00
  7.72261074E+00 -1.54452215E+01  7.72261074E+00  7.72261074E+00 -1.54452215E+01
  7.72261074E+00  7.72261074E+00 -1.54452215E+01  7.72261074E+00  7.72261074E+00
 -1.54452215E+01  7.72261074E+00  7.72261074E+00 -1.54452215E+01  7.72261074E+00
  7.72261074E+00 -1.54452215E+01  7.72261074E+00  7.72261074E+00 -1.54452215E+01
  7.72261074E+00  7.72261074E+00 -1.54452215E+01  7.72261074E+00  7.72261074E+00
 -1.54452215E+01  7.72261074E+00  7.72261074E+00 -1.54452215E+01  7.72261074E+00
  7.72261074E+00 -1.54452215E+01  7.72261074E+00  7.72261074E+00 -1.54452215E+01
  7.72261074E+00  7.72261074E+00 -1.54452215E+01  7.72261074E+00  7.72261074E+00
 -1.54452215E+01  7.72261074E+00  7.72261074E+00 -1.54452215E+01  7.72261074E+00
  7.72261074E+00 -1.54452215E+01  7.72261074E+00  7.72261074E+00 -1.54452215E+01
  7.72261074E+00  7.72261074E+00 -1.54452215E+01  7.72261074E+00  7.72261074E+00
 -1.54452215E+01  7.72261074E+00  7.72261074E+00 -1.54452215E+01  7.72261074E+00
  7.72261074E+00 -1.54452215E+01  7.72261074E+00  7.72261074E+00 -1.54452215E+01
  7.72261074E+00  7.72261074E+00 -1.54452215E+01  7.72261074E+00  7.72261074E+00
 -1.54452215E+01  7.72261074E+00  7.72261074E+00 -1.54452215E+01  7.72261074E+00
  7.72261074E+00 -1.54452215E+01  7.72261074E+00  7.72261074E+00 -1.54452215E+01
  7.72261074E+00  7.72261074E+00 -1.54452215E+01  7.72261074E+00  7.72261074E+00
 -1.54452215E+01  7.72261074E+00  7.72261074E+00 -1.54452215E+01  7.72261074E+00
  7.72261074E+00 -1.54452215E+01  7.72261074E+00  7.72261074E+00 -1.54452215E+01
  7.72261074E+00  7.72261074E+00 -1.54452215E+01  7.72261074E+00  7.72261074E+00
 -1.54452215E+01  7.72261074E+00  7.72261074E+00 -1.54452215E+01  7.72261074E+00
  7.72261074E+00 -1.54452215E+01  7.72261074E+00  7.72261074E+00 -1.54452215E+01
  7.72261074E+00  7.72261074E+00 -1.54452215E+01  7.72261074E+00  7.72261074E+00
 -1.54452215E+01  7.72261074E+00  7.72261074E+00 -1.54452215E+01  7.72261074E+00
  7.72261074E+00 -1.54452215E+01  7.72261074E+00  7.72261074E+00 -1.54452215E+01
  7.72261074E+00  7.72261074E+00 -1.54452215E+01  7.72261074E+00  7.72261074E+00
 -1.54452215E+01  7.72261074E+00  7.72261074E+00 -1.54452215E+01  7.72261074E+00
  7.72261074E+00 -1.54452215E+01  7.72261074E+00  7.72261074E+00 -1.54452215E+01
  7.72261074E+00  7.72261074E+00 -1.54452215E+01  7.72261074E+00  7.72261074E+00
 -1.54452215E+01  7.72261074E+00  7.72261074E+00 -1.54452215E+01  7.72261074E+00
  7.72261074E+00 -1.54452215E+01  7.72261074E+00  7.72261074E+00 -1.54452215E+01
  7.72261074E+00  7.72261074E+00 -1.54452215E+01  7.72261074E+00  7.72261074E+00
 -1.54452215E+01  7.72261074E+00  7.72261074E+00 -1.54452215E+01  7.72261074E+00
  7.72261074E+00 -1.54452215E+01  7.72261074E+00  7.72261074E+00 -1.54452215E+01
  7.72261074E+00  7.72261074E+00 -1.54452215E+01  7.72261074E+00  7.72261074E+00
 -1.54452215E+01  7.72261074E+00  7.72261074E+00 -1.54452215E+01  7.72261074E+00
  7.72261074E+00 -1.54452215E+01  7.72261074E+00  7.72261074E+00 -1.54452215E+01
  7.72261074E+00  7.72261074E+00 -1.54452215E+01  7.72261074E+00  7.72261074E+00
 -1.54452215E+01  7.72261074E+00  7.72261074E+00 -1.54452215E+01  7.72261074E+00
  7.72261074E+00 -1.54452215E+01  7.72261074E+00  7.72261074E+00 -1.54452215E+01
  7.72261074E+00  7.72261074E+00 -1.54452215E+01  7.72261074E+00  7.72261074E+00
 -1.54452215E+01  7.72261074E+00  7.72261074E+00 -1.54452215E+01  7.72261074E+00
  7.72261074E+00 -1.54452215E+01  7.72261074E+00  7.72261074E+00 -1.54452215E+01
  7.72261074E+00  7.72261074E+00 -1.54452215E+01  7.72261074E+00  7.72261074E+00
 -1.54452215E+01  7.72261074E+00  7.72261074E+00 -1.54452215E+01  7.72261074E+00
  7.72261074E+00 -1.54452215E+01  7.72261074E+00  7.72261074E+00 -1.54452215E+01
  7.72261074E+00  7.72261074E+00 -1.54452215E+01  7.72261074E+00  7.72261074E+00
 -1.54452215E+01  7.72261074E+00  7.72261074E+00 -1.54452215E+01  7.72261074E+00
  7.72261074E+00 -1.54452215E+01  7.72261074E+00  7.72261074E+00 -1.54452215E+01
  7.72261074E+00  7.72261074E+00 -1.54452215E+01  7.72261074E+00  7.72261074E+00
 -1.54452215E+01  7.72261074E+00  7.72261074E+00 -1.54452215E+01  7.72261074E+00
  7.72261074E+00 -1.54452215E+01  7.72261074E+00  7.72261074E+00 -1.54452215E+01
  7.72261074E+00  7.72261074E+00 -1.54452215E+01  7.72261074E+00  7.72261074E+00
 -1.54452215E+01  7.72261074E+00  7.72261074E+00 -1.54452215E+01  7.72261074E+00
  7.72261074E+00 -1.54452215E+01  7.72261074E+00  7.72261074E+00 -1.54452215E+01
  7.72261074E+00  7.72261074E+00 -1.54452215E+01  7.72261074E+00  7.72261074E+00
 -1.54452215E+01  7.72261074E+00  7.72261074E+00 -1.54452215E+01  7.72261074E+00
  7.72261074E+00 -1.54452215E+01  7.72261074E+00  7.72261074E+00 -1.54452215E+01
  7.72261074E+00  7.72261074E+00 -1.54452215E+01  7.72261074E+00  7.72261074E+00
 -1.54452215E+01  7.72261074E+00  7.72261074E+00 -1.54452215E+01  7.72261074E+00
  7.72261074E+00 -1.54452215E+01  7.72261074E+00  7.72261074E+00 -1.54452215E+01
  7.72261074E+00  7.72261074E+00 -1.54452215E+01  7.72261074E+00  7.72261074E+00
 -1.54452215E+01  7.72261074E+00  7.72261074E+00 -1.54452215E+01  7.72261074E+00
  7.72261074E+00 -1.54452215E+01  7.72261074E+00  7.72261074E+00 -1.54452215E+01
  7.72261074E+00  7.72261074E+00 -1.54452215E+01  7.72261074E+00  7.72261074E+00
 -1.54452215E+01  7.72261074E+00  7.72261074E+00 -1.54452215E+01  7.72261074E+00
  7.72261074E+00 -1.54452215E+01  7.72261074E+00  7.72261074E+00 -1.54452215E+01
  7.72261074E+00  7.72261074E+00 -1.54452215E+01  7.72261074E+00  7.72261074E+00
 -1.54452215E+01  7.72261074E+00  7.72261074E+00 -1.54452215E+01  7.72261074E+00
  7.72261074E+00 -1.54452215E+01  7.72261074E+00  7.72261074E+00 -1.54452215E+01
  7.72261074E+00  7.72261074E+00 -1.54452215E+01  7.72261074E+00  7.72261074E+00
 -1.54452215E+01  7.72261074E+00  7.72261074E+00 -1.54452215E+01  7.72261074E+00
  7.72261074E+00 -1.54452215E+01  7.72261074E+00  7.72261074E+00 -1.54452215E+01
  7.72261074E+00  7.72261074E+00 -1.54452215E+01  7.72261074E+00  7.72261074E+00
 -1.54452215E+01  7.72261074E+00  7.72261074E+00 -1.54452215E+01  7.72261074E+00
  7.72261074E+00 -1.54452215E+01  7.72261074E+00  7.72261074E+00 -1.54452215E+01
  7.72261074E+00  7.72261074E+00 -1.54452215E+01  7.72261074E+00  7.72261074E+00
 -1.54452215E+01  7.72261074E+00  7.72261074E+00 -1.54452215E+01  7.72261074E+00
  7.72261074E+00 -1.54452215E+01  7.72261074E+00  7.72261074E+00 -1.54452215E+01
  7.72261074E+00  7.72261074E+00 -1.54452215E+01  7.72261074E+00  7.72261074E+00
 -1.54452215E+01  7.72261074E+00  7.72261074E+00 -1.54452215E+01  7.72261074E+00
  7.72261074E+00 -1.54452215E+01  7.72261074E+00  7.72261074E+00 -1.54452215E+01
  7.72261074E+00  7.72261074E+00 -1.54452215E+01  7.72261074E+00  7.72261074E+00
 -1.54452215E+01  7.72261074E+00  7.72261074E+00 -1.54452215E+01  7.72261074E+00
  7.72261074E+00 -1.54452215E+01  7.72261074E+00  7.72261074E+00 -1.54452215E+01
  7.72261074E+00  7.72261074E+00 -1.54452215E+01  7.72261074E+00  7.72261074E+00
 -1.54452215E+01  7.72261074E+00  7.72261074E+00 -1.54452215E+01  7.72261074E+00
  7.72261074E+00 -1.54452215E+01  7.72261074E+00  7.72261074E+00 -1.54452215E+01
  7.72261074E+00  7.72261074E+00 -1.54452215E+01  7.72261074E+00  7.72261074E+00
 -1.54452215E+01  7.72261074E+00  7.72261074E+00 -1.54452215E+01  7.72261074E+00
  7.72261074E+00 -1.54452215E+01  7.72261074E+00  7.72261074E+00 -1.54452215E+01
  7.72261074E+00  7.72261074E+00 -1.54452215E+01  7.72261074E+00  7.72261074E+00
 -1.54452215E+01  7.72261074E+00  7.72261074E+00 -1.54452215E+01  7.72261074E+00
  7.72261074E+00 -1.54452215E+01  7.72261074E+00  7.72261074E+00 -1.54452215E+01
  7.72261074E+00  7.72261074E+00 -1.54452215E+01  7.72261074E+00  7.72261074E+00
 -1.54452215E+01  7.72261074E+00  7.72261074E+00 -1.54452215E+01  7.72261074E+00
  7.72261074E+00 -1.54452215E+01  7.72261074E+00  7.72261074E+00 -1.54452215E+01
  7.72261074E+00  7.72261074E+00 -1.54452215E+01  7.72261074E+00  7.72261074E+00
 -1.54452215E+01  7.72261074E+00  7.72261074E+00 -1.54452215E+01  7.72261074E+00
  7.72261074E+00 -1.54452215E+01  7.72261074E+00  7.72261074E+00 -1.54452215E+01
  7.72261074E+00  7.72261074E+00 -1.54452215E+01  7.72261074E+00  7.72261074E+00
 -1.54452215E+01  7.72261074E+00  7.72261074E+00 -1.54452215E+01  7.72261074E+00
  7.72261074E+00 -1.54452215E+01  7.72261074E+00  7.72261074E+00 -1.54452215E+01
  7.72261074E+00  7.72261074E+00 -1.54452215E+01  7.72261074E+00  7.72261074E+00
 -1.54452215E+01  7.72261074E+00  7.72261074E+00 -1.54452215E+01  7.72261074E+00
  7.72261074E+00 -1.54452215E+01  7.72261074E+00  7.72261074E+00 -1.54452215E+01
  7.72261074E+00  7.72261074E+00 -1.54452215E+01  7.72261074E+00  7.72261074E+00
 -1.54452215E+01  7.72261074E+00  7.72261074E+00 -1.54452215E+01  7.72261074E+00
  7.72261074E+00 -1.54452215E+01  7.72261074E+00  7.72261074E+00 -1.54452215E+01
  7.72261074E+00  7.72261074E+00 -1.54452215E+01  7.72261074E+00  7.72261074E+00
 -1.54452215E+01  7.72261074E+00  7.72261074E+00 -1.54452215E+01  7.72261074E+00
  7.72261074E+00 -1.54452215E+01  7.72261074E+00  7.72261074E+00 -1.54452215E+01
  7.72261074E+00  7.72261074E+00 -1.54452215E+01  7.72261074E+00  7.72261074E+00
 -1.54452215E+01  7.72261074E+00  7.72261074E+00 -1.54452215E+01  7.72261074E+00
  7.72261074E+00 -1.54452215E+01  7.72261074E+00  7.72261074E+00 -1.54452215E+01
  7.72261074E+00  7.72261074E+00 -1.54452215E+01  7.72261074E+00  7.72261074E+00
 -1.54452215E+01  7.72261074E+00  7.72261074E+00 -1.54452215E+01  7.72261074E+00
  7.72261074E+00 -1.54452215E+01  7.72261074E+00  7.72261074E+00 -1.54452215E+01
  7.72261074E+00  7.72261074E+00 -1.54452215E+01  7.72261074E+00  7.72261074E+00
 -1.54452215E+01  7.72261074E+00  7.72261074E+00 -1.54452215E+01  7.72261074E+00
  7.72261074E+00 -1.54452215E+01  7.72261074E+00  7.72261074E+00 -1.54452215E+01
  7.72261074E+00  7.72261074E+00 -1.54452215E+01  7.72261074E+00  7.72261074E+00
 -1.54452215E+01  7.72261074E+00  7.72261074E+00 -1.54452215E+01  7.72261074E+00
  7.72261074E+00 -1.54452215E+01  7.72261074E+00  7.72261074E+00 -1.54452215E+01
  7.72261074E+00  7.72261074E+00 -1.54452215E+01  7.72261074E+00  7.72261074E+00
 -1.54452215E+01  7.72261074E+00  7.72261074E+00 -1.54452215E+01  7.72261074E+00
  7.72261074E+00 -1.54452215E+01  7.72261074E+00  7.72261074E+00 -1.54452215E+01
  7.72261074E+00  7.72261074E+00 -1.54452215E+01  7.72261074E+00  7.72261074E+00
 -1.54452215E+01  7.72261074E+00  7.72261074E+00 -1.54452215E+01  7.72261074E+00
  7.72261074E+00 -1.54452215E+01  7.72261074E+00  7.72261074E+00 -1.54452215E+01
  7.72261074E+00  7.72261074E+00 -1.54452215E+01  7.72261074E+00  7.72261074E+00
 -1.54452215E+01  7.72261074E+00  7.72261074E+00 -1.54452215E+01  7.72261074E+00
  7.72261074E+00 -1.54452215E+01  7.72261074E+00  7.72261074E+00 -1.54452215E+01
  7.72261074E+00  7.72261074E+00 -1.54452215E+01  7.72261074E+00  7.72261074E+00
 -1.54452215E+01  7.72261074E+00  7.72261074E+00 -1.54452215E+01  7.72261074E+00
  7.72261074E+00 -1.54452215E+01  7.72261074E+00  7.72261074E+00 -1.54452215E+01
  7.72261074E+00  7.72261074E+00 -1.54452215E+01  7.72261074E+00  7.72261074E+00
 -1.54452215E+01  7.72261074E+00  7.72261074E+00 -1.54452215E+01  7.72261074E+00
  7.72261074E+00 -1.54452215E+01  7.72261074E+00  7.72261074E+00 -1.54452215E+01
  7.72261074E+00  7.72261074E+00 -1.54452215E+01  7.72261074E+00  7.72261074E+00
 -1.54452215E+01  7.72261074E+00  7.72261074E+00 -1.54452215E+01  7.72261074E+00
  7.72261074E+00 -1.54452215E+01  7.72261074E+00  7.72261074E+00 -1.54452215E+01
  7.72261074E+00  7.72261074E+00 -1.54452215E+01  7.72261074E+00  7.72261074E+00
 -1.54452215E+01  7.72261074E+00  7.72261074E+00 -1.54452215E+01  7.72261074E+00
  7.72261074E+00 -1.54452215E+01  7.72261074E+00  7.72261074E+00 -1.54452215E+01
  7.72261074E+00  7.72261074E+00 -1.54452215E+01  7.72261074E+00  7.72261074E+00
 -1.54452215E+01  7.72261074E+00  7.72261074E+00 -1.54452215E+01  7.72261074E+00
  7.72261074E+00 -1.54452215E+01  7.72261074E+00  7.72261074E+00 -1.54452215E+01
  7.72261074E+00  7.72261074E+00 -1.54452215E+01  7.72261074E+00  7.72261074E+00
 -1.54452215E+01  7.72261074E+00  7.72261074E+00 -1.54452215E+01  7.72261074E+00
  7.72261074E+00 -1.54452215E+01  7.72261074E+00  7.72261074E+00 -1.54452215E+01
  7.72261074E+00  7.72261074E+00 -1.54452215E+01  7.72261074E+00  7.72261074E+00
 -1.54452215E+01  7.72261074E+00  7.72261074E+00 -1.54452215E+01  7.72261074E+00
  7.72261074E+00 -1.54452215E+01  7.72261074E+00  7.72261074E+00 -1.54452215E+01
  7.72261074E+00  7.72261074E+00 -1.54452215E+01  7.72261074E+00  7.72261074E+00
 -1.54452215E+01  7.72261074E+00  7.72261074E+00 -1.54452215E+01  7.72261074E+00
  7.72261074E+00 -1.54452215E+01  7.72261074E+00  7.72261074E+00 -1.54452215E+01
  7.72261074E+00  7.72261074E+00 -1.54452215E+01  7.72261074E+00  7.72261074E+00
 -1.54452215E+01  7.72261074E+00  7.72261074E+00 -1.54452215E+01  7.72261074E+00
  7.72261074E+00 -1.54452215E+01  7.72261074E+00  7.72261074E+00 -1.54452215E+01
  7.72261074E+00  7.72261074E+00 -1.54452215E+01  7.72261074E+00  7.72261074E+00
 -1.54452215E+01  7.72261074E+00  7.72261074E+00 -1.54452215E+01  7.72261074E+00
  7.72261074E+00 -1.54452215E+01  7.72261074E+00  7.72261074E+00 -1.54452215E+01
  7.72261074E+00  7.72261074E+00 -1.54452215E+01  7.72261074E+00  7.72261074E+00
 -1.54452215E+01  7.72261074E+00  7.72261074E+00 -1.54452215E+01  7.72261074E+00
  7.72261074E+00 -1.54452215E+01  7.72261074E+00  7.72261074E+00 -1.54452215E+01
  7.72261074E+00  7.72261074E+00 -1.54452215E+01  7.72261074E+00  7.72261074E+00
 -1.54452215E+01  7.72261074E+00  7.72261074E+00 -1.54452215E+01  7.72261074E+00
  7.72261074E+00 -1.54452215E+01  7.72261074E+00  7.72261074E+00 -1.54452215E+01
  7.72261074E+00  7.72261074E+00 -1.54452215E+01  7.72261074E+00  7.72261074E+00
 -1.54452215E+01  7.72261074E+00  7.72261074E+00 -1.54452215E+01  7.72261074E+00
  7.72261074E+00 -1.54452215E+01  7.72261074E+00  7.72261074E+00 -1.54452215E+01
  7.72261074E+00  7.72261074E+00 -1.54452215E+01  7.72261074E+00  7.72261074E+00
 -1.54452215E+01  7.72261074E+00  7.72261074E+00 -1.54452215E+01  7.72261074E+00
  7.72261074E+00 -1.54452215E+01  7.72261074E+00  7.72261074E+00 -1.54452215E+01
  7.72261074E+00  7.72261074E+00 -1.54452215E+01  7.72261074E+00  7.72261074E+00
 -1.54452215E+01  7.72261074E+00  7.72261074E+00 -1.54452215E+01  7.72261074E+00
  7.72261074E+00 -1.54452215E+01  7.72261074E+00  7.72261074E+00 -1.54452215E+01
  7.72261074E+00  7.72261074E+00 -1.54452215E+01  7.72261074E+00  7.72261074E+00
 -1.54452215E+01  7.72261074E+00  7.72261074E+00 -1.54452215E+01  7.72261074E+00
  7.72261074E+00 -1.54452215E+01  7.72261074E+00  7.72261074E+00 -1.54452215E+01
  7.72261074E+00  7.72261074E+00 -1.54452215E+01  7.72261074E+00  7.72261074E+00
 -1.54452215E+01  7.72261074E+00  7.72261074E+00 -1.54452215E+01  7.72261074E+00
  7.72261074E+00 -1.54452215E+01  7.72261074E+00  7.72261074E+00 -1.54452215E+01
  7.72261074E+00  7.72261074E+00 -1.54452215E+01  7.72261074E+00  7.72261074E+00
 -1.54452215E+01  7.72261074E+00  7.72261074E+00 -1.54452215E+01  7.72261074E+00
  7.72261074E+00 -1.54452215E+01  7.72261074E+00  7.72261074E+00 -1.54452215E+01
  7.72261074E+00  7.72261074E+00 -1.54452215E+01  7.72261074E+00  7.72261074E+00
 -1.54452215E+01  7.72261074E+00  7.72261074E+00 -1.54452215E+01  7.72261074E+00
  7.72261074E+00 -1.54452215E+01  7.72261074E+00  7.72261074E+00 -1.54452215E+01
  7.72261074E+00  7.72261074E+00 -1.54452215E+01  7.72261074E+00  7.72261074E+00
 -1.54452215E+01  7.72261074E+00  7.72261074E+00 -1.54452215E+01  7.72261074E+00
  7.72261074E+00 -1.54452215E+01  7.72261074E+00  7.72261074E+00 -1.54452215E+01
  7.72261074E+00  7.72261074E+00 -1.54452215E+01  7.72261074E+00  7.72261074E+00
 -1.54452215E+01  7.72261074E+00  7.72261074E+00 -1.54452215E+01  7.72261074E+00
  7.72261074E+00 -1.54452215E+01  7.72261074E+00  7.72261074E+00 -1.54452215E+01
  7.72261074E+00  7.72261074E+00 -1.54452215E+01  7.72261074E+00  7.72261074E+00
 -1.54452215E+01  7.72261074E+00  7.72261074E+00 -1.54452215E+01  7.72261074E+00
  7.72261074E+00 -1.54452215E+01  7.72261074E+00  7.72261074E+00 -1.54452215E+01
  7.72261074E+00  7.72261074E+00 -1.54452215E+01  7.72261074E+00  7.72261074E+00
 -1.54452215E+01  7.72261074E+00  7.72261074E+00 -1.54452215E+01  7.72261074E+00
  7.72261074E+00 -1.54452215E+01  7.72261074E+00  7.72261074E+00 -1.54452215E+01
  7.72261074E+00  7.72261074E+00 -1.54452215E+01  7.72261074E+00  7.72261074E+00
 -1.54452215E+01  7.72261074E+00  7.72261074E+00 -1.54452215E+01  7.72261074E+00
  7.72261074E+00 -1.54452215E+01  7.72261074E+00  7.72261074E+00 -1.54452215E+01
  7.72261074E+00  7.72261074E+00 -1.54452215E+01  7.72261074E+00  7.72261074E+00
 -1.54452215E+01  7.72261074E+00  7.72261074E+00 -1.54452215E+01  7.72261074E+00
  7.72261074E+00 -1.54452215E+01  7.72261074E+00  7.72261074E+00 -1.54452215E+01
  7.72261074E+00  7.72261074E+00 -1.54452215E+01  7.72261074E+00  7.72261074E+00
 -1.54452215E+01  7.72261074E+00  7.72261074E+00 -1.54452215E+01  7.72261074E+00
  7.72261074E+00 -1.54452215E+01  7.72261074E+00  7.72261074E+00 -1.54452215E+01
  7.72261074E+00  7.72261074E+00 -1.54452215E+01  7.72261074E+00  7.72261074E+00
 -1.54452215E+01  7.72261074E+00  7.72261074E+00 -1.54452215E+01  7.72261074E+00
  7.72261074E+00 -1.54452215E+01  7.72261074E+00  7.72261074E+00 -1.54452215E+01
  7.72261074E+00  7.72261074E+00 -1.54452215E+01  7.72261074E+00  7.72261074E+00
 -1.54452215E+01  7.72261074E+00  7.72261074E+00 -1.54452215E+01  7.72261074E+00
  7.72261074E+00 -1.54452215E+01  7.72261074E+00  7.72261074E+00 -1.54452215E+01
  7.72261074E+00  7.72261074E+00 -1.54452215E+01  7.72261074E+00  7.72261074E+00
 -1.54452215E+01  7.72261074E+00  7.72261074E+00 -1.54452215E+01  7.72261074E+00
  7.72261074E+00 -1.54452215E+01  7.72261074E+00  7.72261074E+00 -1.54452215E+01
  7.72261074E+00  7.72261074E+00 -1.54452215E+01  7.72261074E+00  7.72261074E+00
 -1.54452215E+01  7.72261074E+00  7.72261074E+00 -1.54452215E+01  7.72261074E+00
  7.72261074E+00 -1.54452215E+01  7.72261074E+00  7.72261074E+00 -1.54452215E+01
  7.72261074E+00  7.72261074E+00 -1.54452215E+01  7.72261074E+00  7.72261074E+00
 -1.54452215E+01  7.72261074E+00  7.72261074E+00 -1.54452215E+01  7.72261074E+00
  7.72261074E+00 -1.54452215E+01  7.72261074E+00  7.72261074E+00 -1.54452215E+01
  7.72261074E+00  7.72261074E+00 -1.54452215E+01  7.72261074E+00  7.72261074E+00
 -1.54452215E+01  7.72261074E+00  7.72261074E+00 -1.54452215E+01  7.72261074E+00
  7.72261074E+00 -1.54452215E+01  7.72261074E+00  7.72261074E+00 -1.54452215E+01
  7.72261074E+00  7.72261074E+00 -1.54452215E+01  7.72261074E+00  7.72261074E+00
 -1.54452215E+01  7.72261074E+00  7.72261074E+00 -1.54452215E+01  7.72261074E+00
  7.72261074E+00 -1.54452215E+01  7.72261074E+00  7.72261074E+00 -1.54452215E+01
  7.72261074E+00  7.72261074E+00 -1.54452215E+01  7.72261074E+00  7.72261074E+00
 -1.54452215E+01  7.72261074E+00  7.72261074E+00 -1.54452215E+01  7.72261074E+00
  7.72261074E+00 -1.54452215E+01  7.72261074E+00  7.72261074E+00 -1.54452215E+01
  7.72261074E+00  7.72261074E+00 -1.54452215E+01  7.72261074E+00  7.72261074E+00
 -1.54452215E+01  7.72261074E+00  7.72261074E+00 -1.54452215E+01  7.72261074E+00
  7.72261074E+00 -1.54452215E+01  7.72261074E+00  7.72261074E+00 -1.54452215E+01
  7.72261074E+00  7.72261074E+00 -1.54452215E+01  7.72261074E+00  7.72261074E+00
 -1.54452215E+01  7.72261074E+00  7.72261074E+00 -1.54452215E+01  7.72261074E+00
  7.72261074E+00 -1.54452215E+01  7.72261074E+00  7.72261074E+00 -1.54452215E+01
  7.72261074E+00  7.72261074E+00 -1.54452215E+01  7.72261074E+00  7.72261074E+00
 -1.54452215E+01  7.72261074E+00  7.72261074E+00 -1.54452215E+01  7.72261074E+00
  7.72261074E+00 -1.54452215E+01  7.72261074E+00  7.72261074E+00 -1.54452215E+01
  7.72261074E+00  7.72261074E+00 -1.54452215E+01  7.72261074E+00  7.72261074E+00
 -1.54452215E+01  7.72261074E+00  7.72261074E+00 -1.54452215E+01  7.72261074E+00
  7.72261074E+00 -1.54452215E+01  7.72261074E+00  7.72261074E+00 -1.54452215E+01
  7.72261074E+00  7.72261074E+00 -1.54452215E+01  7.72261074E+00  7.72261074E+00
 -1.54452215E+01  7.72261074E+00  7.72261074E+00 -1.54452215E+01  7.72261074E+00
  7.72261074E+00 -1.54452215E+01  7.72261074E+00  7.72261074E+00 -1.54452215E+01
  7.72261074E+00  7.72261074E+00 -1.54452215E+01  7.72261074E+00  7.72261074E+00
 -1.54452215E+01  7.72261074E+00  7.72261074E+00 -1.54452215E+01  7.72261074E+00
  7.72261074E+00 -1.54452215E+01  7.72261074E+00  7.72261074E+00 -1.54452215E+01
  7.72261074E+00  7.72261074E+00 -1.54452215E+01  7.72261074E+00  7.72261074E+00
 -1.54452215E+01  7.72261074E+00  7.72261074E+00 -1.54452215E+01  7.72261074E+00
  7.72261074E+00 -1.54452215E+01  7.72261074E+00  7.72261074E+00 -1.54452215E+01
  7.72261074E+00  7.72261074E+00 -1.54452215E+01  7.72261074E+00  7.72261074E+00
 -1.54452215E+01  7.72261074E+00  7.72261074E+00 -1.54452215E+01  7.72261074E+00
  7.72261074E+00 -1.54452215E+01  7.72261074E+00  7.72261074E+00 -1.54452215E+01
  7.72261074E+00  7.72261074E+00 -1.54452215E+01  7.72261074E+00  7.72261074E+00
 -1.54452215E+01  7.72261074E+00  7.72261074E+00 -1.54452215E+01  7.72261074E+00
  7.72261074E+00 -1.54452215E+01  7.72261074E+00  7.72261074E+00 -1.54452215E+01
  7.72261074E+00  7.72261074E+00 -1.54452215E+01  7.72261074E+00  7.72261074E+00
 -1.54452215E+01  7.72261074E+00  7.72261074E+00 -1.54452215E+01  7.72261074E+00
  7.72261074E+00 -1.54452215E+01  7.72261074E+00  7.72261074E+00 -1.54452215E+01
  7.72261074E+00  7.72261074E+00 -1.54452215E+01  7.72261074E+00  7.72261074E+00
 -1.54452215E+01  7.72261074E+00  7.72261074E+00 -1.54452215E+01  7.72261074E+00
  7.72261074E+00 -1.54452215E+01  7.72261074E+00  7.72261074E+00 -1.54452215E+01
  7.72261074E+00  7.72261074E+00 -1.54452215E+01  7.72261074E+00  7.72261074E+00
 -1.54452215E+01  7.72261074E+00  7.72261074E+00 -1.54452215E+01  7.72261074E+00
  7.72261074E+00 -1.54452215E+01  7.72261074E+00  7.72261074E+00 -1.54452215E+01
  7.72261074E+00  7.72261074E+00 -1.54452215E+01  7.72261074E+00  7.72261074E+00
 -1.54452215E+01  7.72261074E+00  7.72261074E+00 -1.54452215E+01  7.72261074E+00
  7.72261074E+00 -1.54452215E+01  7.72261074E+00  7.72261074E+00 -1.54452215E+01
  7.72261074E+00  7.72261074E+00 -1.54452215E+01  7.72261074E+00  7.72261074E+00
 -1.54452215E+01  7.72261074E+00  7.72261074E+00 -1.54452215E+01  7.72261074E+00
  7.72261074E+00 -1.54452215E+01  7.72261074E+00  7.72261074E+00 -1.54452215E+01
  7.72261074E+00  7.72261074E+00 -1.54452215E+01  7.72261074E+00  7.72261074E+00
 -1.54452215E+01  7.72261074E+00  7.72261074E+00 -1.54452215E+01  7.72261074E+00
  7.72261074E+00 -1.54452215E+01  7.72261074E+00  7.72261074E+00 -1.54452215E+01
  7.72261074E+00  7.72261074E+00 -1.54452215E+01  7.72261074E+00  7.72261074E+00
 -1.54452215E+01  7.72261074E+00  7.72261074E+00 -1.54452215E+01  7.72261074E+00
  7.72261074E+00 -1.54452215E+01  7.72261074E+00  7.72261074E+00 -1.54452215E+01
  7.72261074E+00  7.72261074E+00 -1.54452215E+01  7.72261074E+00  7.72261074E+00
 -1.54452215E+01  7.72261074E+00  7.72261074E+00 -1.54452215E+01  7.72261074E+00
  7.72261074E+00 -1.54452215E+01  7.72261074E+00  7.72261074E+00 -1.54452215E+01
  7.72261074E+00  7.72261074E+00 -1.54452215E+01  7.72261074E+00  7.72261074E+00
 -1.54452215E+01  7.72261074E+00  7.72261074E+00 -1.54452215E+01  7.72261074E+00
  7.72261074E+00 -1.54452215E+01  7.72261074E+00  7.72261074E+00 -1.54452215E+01
  7.72261074E+00  7.72261074E+00 -1.54452215E+01  7.72261074E+00  7.72261074E+00
 -1.54452215E+01  7.72261074E+00  7.72261074E+00 -1.54452215E+01  7.72261074E+00
  7.72261074E+00 -1.54452215E+01  7.72261074E+00  7.72261074E+00 -1.54452215E+01
  7.72261074E+00  7.72261074E+00 -1.54452215E+01  7.72261074E+00  7.72261074E+00
 -1.54452215E+01  7.72261074E+00  7.72261074E+00 -1.54452215E+01  7.72261074E+00
  7.72261074E+00 -1.54452215E+01  7.72261074E+00  7.72261074E+00 -1.54452215E+01
  7.72261074E+00  7.72261074E+00 -1.54452215E+01  7.72261074E+00  7.72261074E+00
 -1.54452215E+01  7.72261074E+00  7.72261074E+00 -1.54452215E+01  7.72261074E+00
  7.72261074E+00 -1.54452215E+01  7.72261074E+00  7.72261074E+00 -1.54452215E+01
  7.72261074E+00  7.72261074E+00 -1.54452215E+01  7.72261074E+00  7.72261074E+00
 -1.54452215E+01  7.72261074E+00  7.72261074E+00 -1.54452215E+01  7.72261074E+00
  7.72261074E+00 -1.54452215E+01  7.72261074E+00  7.72261074E+00 -1.54452215E+01
  7.72261074E+00  7.72261074E+00 -1.54452215E+01  7.72261074E+00  7.72261074E+00
 -1.54452215E+01  7.72261074E+00  7.72261074E+00 -1.54452215E+01  7.72261074E+00
  7.72261074E+00 -1.54452215E+01  7.72261074E+00  7.72261074E+00 -1.54452215E+01
  7.72261074E+00  7.72261074E+00 -1.54452215E+01  7.72261074E+00  7.72261074E+00
 -1.54452215E+01  7.72261074E+00  7.72261074E+00 -1.54452215E+01  7.72261074E+00
  7.72261074E+00 -1.54452215E+01  7.72261074E+00  7.72261074E+00 -1.54452215E+01
  7.72261074E+00  7.72261074E+00 -1.54452215E+01  7.72261074E+00  7.72261074E+00
 -1.54452215E+01  7.72261074E+00  7.72261074E+00 -1.54452215E+01  7.72261074E+00
  7.72261074E+00 -1.54452215E+01  7.72261074E+00  7.72261074E+00 -1.54452215E+01
  7.72261074E+00  7.72261074E+00 -1.54452215E+01  7.72261074E+00  7.72261074E+00
 -1.54452215E+01  7.72261074E+00  7.72261074E+00 -1.54452215E+01  7.72261074E+00
  7.72261074E+00 -1.54452215E+01  7.72261074E+00  7.72261074E+00 -1.54452215E+01
  7.72261074E+00  7.72261074E+00 -1.54452215E+01  7.72261074E+00  7.72261074E+00
 -1.54452215E+01  7.72261074E+00  7.72261074E+00 -1.54452215E+01  7.72261074E+00
  7.72261074E+00 -1.54452215E+01  7.72261074E+00  7.72261074E+00 -1.54452215E+01
  7.72261074E+00  7.72261074E+00 -1.54452215E+01  7.72261074E+00  7.72261074E+00
 -1.54452215E+01  7.72261074E+00  7.72261074E+00 -1.54452215E+01  7.72261074E+00
  7.72261074E+00 -1.54452215E+01  7.72261074E+00  7.72261074E+00 -1.54452215E+01
  7.72261074E+00  7.72261074E+00 -1.54452215E+01  7.72261074E+00  7.72261074E+00
 -1.54452215E+01  7.72261074E+00  7.72261074E+00 -1.54452215E+01  7.72261074E+00
  7.72261074E+00 -1.54452215E+01  7.72261074E+00  7.72261074E+00 -1.54452215E+01
  7.72261074E+00  7.72261074E+00 -1.54452215E+01  7.72261074E+00  7.72261074E+00
 -1.54452215E+01  7.72261074E+00  7.72261074E+00 -1.54452215E+01  7.72261074E+00
  7.72261074E+00 -1.54452215E+01  7.72261074E+00  7.72261074E+00 -1.54452215E+01
  7.72261074E+00  7.72261074E+00 -1.54452215E+01  7.72261074E+00  7.72261074E+00
 -1.54452215E+01  7.72261074E+00  7.72261074E+00 -1.54452215E+01  7.72261074E+00
  7.72261074E+00 -1.54452215E+01  7.72261074E+00  7.72261074E+00 -1.54452215E+01
  7.72261074E+00  7.72261074E+00 -1.54452215E+01  7.72261074E+00  7.72261074E+00
 -1.54452215E+01  7.72261074E+00  7.72261074E+00 -1.54452215E+01  7.72261074E+00
  7.72261074E+00 -1.54452215E+01  7.72261074E+00  7.72261074E+00 -1.54452215E+01
  7.72261074E+00  7.72261074E+00 -1.54452215E+01  7.72261074E+00  7.72261074E+00
 -1.54452215E+01  7.72261074E+00  7.72261074E+00 -1.54452215E+01  7.72261074E+00
  7.72261074E+00 -1.54452215E+01  7.72261074E+00  7.72261074E+00 -1.54452215E+01
  7.72261074E+00  7.72261074E+00 -1.54452215E+01  7.72261074E+00  7.72261074E+00
 -1.54452215E+01  7.72261074E+00  7.72261074E+00 -1.54452215E+01  7.72261074E+00
  7.72261074E+00 -1.54452215E+01  7.72261074E+00  7.72261074E+00 -1.54452215E+01
  7.72261074E+00  7.72261074E+00 -1.54452215E+01  7.72261074E+00  7.72261074E+00
 -1.54452215E+01  7.72261074E+00  7.72261074E+00 -1.54452215E+01  7.72261074E+00
  7.72261074E+00 -1.54452215E+01  7.72261074E+00  7.72261074E+00 -1.54452215E+01
  7.72261074E+00  7.72261074E+00 -1.54452215E+01  7.72261074E+00  7.72261074E+00
 -1.54452215E+01  7.72261074E+00  7.72261074E+00 -1.54452215E+01  7.72261074E+00
  7.72261074E+00 -1.54452215E+01  7.72261074E+00  7.72261074E+00 -1.54452215E+01
  7.72261074E+00  7.72261074E+00 -1.54452215E+01  7.72261074E+00  7.72261074E+00
 -1.54452215E+01  7.72261074E+00  7.72261074E+00 -1.54452215E+01  7.72261074E+00
  7.72261074E+00 -1.54452215E+01  7.72261074E+00  7.72261074E+00 -1.54452215E+01
  7.72261074E+00  7.72261074E+00 -1.54452215E+01  7.72261074E+00  7.72261074E+00
 -1.54452215E+01  7.72261074E+00  7.72261074E+00 -1.54452215E+01  7.72261074E+00
  7.72261074E+00 -1.54452215E+01  7.72261074E+00  7.72261074E+00 -1.54452215E+01
  7.72261074E+00  7.72261074E+00 -1.54452215E+01  7.72261074E+00  7.72261074E+00
 -1.54452215E+01  7.72261074E+00  7.72261074E+00 -1.54452215E+01  7.72261074E+00
  7.72261074E+00 -1.54452215E+01  7.72261074E+00  7.72261074E+00 -1.54452215E+01
  7.72261074E+00  7.72261074E+00 -1.54452215E+01  7.72261074E+00  7.72261074E+00
 -1.54452215E+01  7.72261074E+00  7.72261074E+00 -1.54452215E+01  7.72261074E+00
  7.72261074E+00 -1.54452215E+01  7.72261074E+00  7.72261074E+00 -1.54452215E+01
  7.72261074E+00  7.72261074E+00 -1.54452215E+01  7.72261074E+00  7.72261074E+00
 -1.54452215E+01  7.72261074E+00  7.72261074E+00 -1.54452215E+01  7.72261074E+00
  7.72261074E+00 -1.54452215E+01  7.72261074E+00  7.72261074E+00 -1.54452215E+01
  7.72261074E+00  7.72261074E+00 -1.54452215E+01  7.72261074E+00  7.72261074E+00
 -1.54452215E+01  7.72261074E+00  7.72261074E+00 -1.54452215E+01  7.72261074E+00
  7.72261074E+00 -1.54452215E+01  7.72261074E+00  7.72261074E+00 -1.54452215E+01
  7.72261074E+00  7.72261074E+00 -1.54452215E+01  7.72261074E+00  7.72261074E+00
 -1.54452215E+01  7.72261074E+00  7.72261074E+00 -1.54452215E+01  7.72261074E+00
  7.72261074E+00 -1.54452215E+01  7.72261074E+00  7.72261074E+00 -1.54452215E+01
  7.72261074E+00  7.72261074E+00 -1.54452215E+01  7.72261074E+00  7.72261074E+00
 -1.54452215E+01  7.72261074E+00  7.72261074E+00 -1.54452215E+01  7.72261074E+00
  7.72261074E+00 -1.54452215E+01  7.72261074E+00  7.72261074E+00 -1.54452215E+01
  7.72261074E+00  7.72261074E+00 -1.54452215E+01  7.72261074E+00  7.72261074E+00
 -1.54452215E+01  7.72261074E+00  7.72261074E+00 -1.54452215E+01  7.72261074E+00
  7.72261074E+00 -1.54452215E+01  7.72261074E+00  7.72261074E+00 -1.54452215E+01
  7.72261074E+00  7.72261074E+00 -1.54452215E+01  7.72261074E+00  7.72261074E+00
 -1.54452215E+01  7.72261074E+00  7.72261074E+00 -1.54452215E+01  7.72261074E+00
  7.72261074E+00 -1.54452215E+01  7.72261074E+00  7.72261074E+00 -1.54452215E+01
  7.72261074E+00  7.72261074E+00 -1.54452215E+01  7.72261074E+00  7.72261074E+00
 -1.54452215E+01  7.72261074E+00  7.72261074E+00 -1.54452215E+01  7.72261074E+00
  7.72261074E+00 -1.54452215E+01  7.72261074E+00  7.72261074E+00 -1.54452215E+01
  7.72261074E+00  7.72261074E+00 -1.54452215E+01  7.72261074E+00  7.72261074E+00
 -1.54452215E+01  7.72261074E+00  7.72261074E+00 -1.54452215E+01  7.72261074E+00
  7.72261074E+00 -1.54452215E+01  7.72261074E+00  7.72261074E+00 -1.54452215E+01
  7.72261074E+00  7.72261074E+00 -1.54452215E+01  7.72261074E+00  7.72261074E+00
 -1.54452215E+01  7.72261074E+00  7.72261074E+00 -1.54452215E+01  7.72261074E+00
  7.72261074E+00 -1.54452215E+01  7.72261074E+00  7.72261074E+00 -1.54452215E+01
  7.72261074E+00  7.72261074E+00 -1.54452215E+01  7.72261074E+00  7.72261074E+00
 -1.54452215E+01  7.72261074E+00  7.72261074E+00 -1.54452215E+01  7.72261074E+00
  7.72261074E+00 -1.54452215E+01  7.72261074E+00  7.72261074E+00 -1.54452215E+01
  7.72261074E+00  7.72261074E+00 -1.54452215E+01  7.72261074E+00  7.72261074E+00
 -1.54452215E+01  7.72261074E+00  7.72261074E+00 -1.54452215E+01  7.72261074E+00
  7.72261074E+00 -1.54452215E+01  7.72261074E+00  7.72261074E+00 -1.54452215E+01
  7.72261074E+00  7.72261074E+00 -1.54452215E+01  7.72261074E+00  7.72261074E+00
 -1.54452215E+01  7.72261074E+00  7.72261074E+00 -1.54452215E+01  7.72261074E+00
  7.72261074E+00 -1.54452215E+01  7.72261074E+00  7.72261074E+00 -1.54452215E+01
  7.72261074E+00  7.72261074E+00 -1.54452215E+01  7.72261074E+00  7.72261074E+00
 -1.54452215E+01  7.72261074E+00  7.72261074E+00 -1.54452215E+01  7.72261074E+00
  7.72261074E+00 -1.54452215E+01  7.72261074E+00  7.72261074E+00 -1.54452215E+01
  7.72261074E+00  7.72261074E+00 -1.54452215E+01  7.72261074E+00  7.72261074E+00
 -1.54452215E+01  7.72261074E+00  7.72261074E+00 -1.54452215E+01  7.72261074E+00
  7.72261074E+00 -1.54452215E+01  7.72261074E+00  7.72261074E+00 -1.54452215E+01
  7.72261074E+00  7.72261074E+00 -1.54452215E+01  7.72261074E+00  7.72261074E+00
 -1.54452215E+01  7.72261074E+00  7.72261074E+00 -1.54452215E+01  7.72261074E+00
  7.72261074E+00 -1.54452215E+01  7.72261074E+00  7.72261074E+00 -1.54452215E+01
  7.72261074E+00  7.72261074E+00 -1.54452215E+01  7.72261074E+00  7.72261074E+00
 -1.54452215E+01  7.72261074E+00  7.72261074E+00 -1.54452215E+01  7.72261074E+00
  7.72261074E+00 -1.54452215E+01  7.72261074E+00  7.72261074E+00 -1.54452215E+01
  7.72261074E+00  7.72261074E+00 -1.54452215E+01  7.72261074E+00  7.72261074E+00
 -1.54452215E+01  7.72261074E+00  7.72261074E+00 -1.54452215E+01  7.72261074E+00
  7.72261074E+00 -1.54452215E+01  7.72261074E+00  7.72261074E+00 -1.54452215E+01
  7.72261074E+00  7.72261074E+00 -1.54452215E+01  7.72261074E+00  7.72261074E+00
 -1.54452215E+01  7.72261074E+00  7.72261074E+00 -1.54452215E+01  7.72261074E+00
  7.72261074E+00 -1.54452215E+01  7.72261074E+00  7.72261074E+00 -1.54452215E+01
  7.72261074E+00  7.72261074E+00 -1.54452215E+01  7.72261074E+00  7.72261074E+00
 -1.54452215E+01  7.72261074E+00  7.72261074E+00 -1.54452215E+01  7.72261074E+00
  7.72261074E+00 -1.54452215E+01  7.72261074E+00  7.72261074E+00 -1.54452215E+01
  7.72261074E+00  7.72261074E+00 -1.54452215E+01  7.72261074E+00  7.72261074E+00
 -1.54452215E+01  7.72261074E+00  7.72261074E+00 -1.54452215E+01  7.72261074E+00
  7.72261074E+00 -1.54452215E+01  7.72261074E+00  7.72261074E+00 -1.54452215E+01
  7.72261074E+00  7.72261074E+00 -1.54452215E+01  7.72261074E+00  7.72261074E+00
 -1.54452215E+01  7.72261074E+00  7.72261074E+00 -1.54452215E+01  7.72261074E+00
  7.72261074E+00 -1.54452215E+01  7.72261074E+00  7.72261074E+00 -1.54452215E+01
  7.72261074E+00  7.72261074E+00 -1.54452215E+01  7.72261074E+00  7.72261074E+00
 -1.54452215E+01  7.72261074E+00  7.72261074E+00 -1.54452215E+01  7.72261074E+00
  7.72261074E+00 -1.54452215E+01  7.72261074E+00  7.72261074E+00 -1.54452215E+01
  7.72261074E+00  7.72261074E+00 -1.54452215E+01  7.72261074E+00  7.72261074E+00
 -1.54452215E+01  7.72261074E+00  7.72261074E+00 -1.54452215E+01  7.72261074E+00
  7.72261074E+00 -1.54452215E+01  7.72261074E+00  7.72261074E+00 -1.54452215E+01
  7.72261074E+00  7.72261074E+00 -1.54452215E+01  7.72261074E+00  7.72261074E+00
 -1.54452215E+01  7.72261074E+00  7.72261074E+00 -1.54452215E+01  7.72261074E+00
  7.72261074E+00 -1.54452215E+01  7.72261074E+00  7.72261074E+00 -1.54452215E+01
  7.72261074E+00  7.72261074E+00 -1.54452215E+01  7.72261074E+00  7.72261074E+00
 -1.54452215E+01  7.72261074E+00  7.72261074E+00 -1.54452215E+01  7.72261074E+00
  7.72261074E+00 -1.54452215E+01  7.72261074E+00  7.72261074E+00 -1.54452215E+01
  7.72261074E+00  7.72261074E+00 -1.54452215E+01  7.72261074E+00  7.72261074E+00
 -1.54452215E+01  7.72261074E+00  7.72261074E+00 -1.54452215E+01  7.72261074E+00
  7.72261074E+00 -1.54452215E+01  7.72261074E+00  7.72261074E+00 -1.54452215E+01
  7.72261074E+00  7.72261074E+00 -1.54452215E+01  7.72261074E+00  7.72261074E+00
 -1.54452215E+01  7.72261074E+00  7.72261074E+00 -1.54452215E+01  7.72261074E+00
  7.72261074E+00 -1.54452215E+01  7.72261074E+00  7.72261074E+00 -1.54452215E+01
  7.72261074E+00  7.72261074E+00 -1.54452215E+01  7.72261074E+00  7.72261074E+00
 -1.54452215E+01  7.72261074E+00  7.72261074E+00 -1.54452215E+01  7.72261074E+00
  7.72261074E+00 -1.54452215E+01  7.72261074E+00  7.72261074E+00 -1.54452215E+01
  7.72261074E+00  7.72261074E+00 -1.54452215E+01  7.72261074E+00  7.72261074E+00
 -1.54452215E+01  7.72261074E+00  7.72261074E+00 -1.54452215E+01  7.72261074E+00
  7.72261074E+00 -1.54452215E+01  7.72261074E+00  7.72261074E+00 -1.54452215E+01
  7.72261074E+00  7.72261074E+00 -1.54452215E+01  7.72261074E+00  7.72261074E+00
 -1.54452215E+01  7.72261074E+00  7.72261074E+00 -1.54452215E+01  7.72261074E+00
  7.72261074E+00 -1.54452215E+01  7.72261074E+00  7.72261074E+00 -1.54452215E+01
  7.72261074E+00  7.72261074E+00 -1.54452215E+01  7.72261074E+00  7.72261074E+00
 -1.54452215E+01  7.72261074E+00  7.72261074E+00 -1.54452215E+01  7.72261074E+00
  7.72261074E+00 -1.54452215E+01  7.72261074E+00  7.72261074E+00 -1.54452215E+01
  7.72261074E+00  7.72261074E+00 -1.54452215E+01  7.72261074E+00  7.72261074E+00
 -1.54452215E+01  7.72261074E+00  7.72261074E+00 -1.54452215E+01  7.72261074E+00
  7.72261074E+00 -1.54452215E+01  7.72261074E+00  7.72261074E+00 -1.54452215E+01
  7.72261074E+00  7.72261074E+00 -1.54452215E+01  7.72261074E+00  7.72261074E+00
 -1.54452215E+01  7.72261074E+00  7.72261074E+00 -1.54452215E+01  7.72261074E+00
  7.72261074E+00 -1.54452215E+01  7.72261074E+00  7.72261074E+00 -1.54452215E+01
  7.72261074E+00  7.72261074E+00 -1.54452215E+01  7.72261074E+00  7.72261074E+00
 -1.54452215E+01  7.72261074E+00  7.72261074E+00 -1.54452215E+01  7.72261074E+00
  7.72261074E+00 -1.54452215E+01  7.72261074E+00  7.72261074E+00 -1.54452215E+01
  7.72261074E+00  7.72261074E+00 -1.54452215E+01  7.72261074E+00  7.72261074E+00
 -1.54452215E+01  7.72261074E+00  7.72261074E+00 -1.54452215E+01  7.72261074E+00
  7.72261074E+00 -1.54452215E+01  7.72261074E+00  7.72261074E+00 -1.54452215E+01
  7.72261074E+00  7.72261074E+00 -1.54452215E+01  7.72261074E+00  7.72261074E+00
 -1.54452215E+01  7.72261074E+00  7.72261074E+00 -1.54452215E+01  7.72261074E+00
  7.72261074E+00 -1.54452215E+01  7.72261074E+00  7.72261074E+00 -1.54452215E+01
  7.72261074E+00  7.72261074E+00 -1.54452215E+01  7.72261074E+00  7.72261074E+00
 -1.54452215E+01  7.72261074E+00  7.72261074E+00 -1.54452215E+01  7.72261074E+00
  7.72261074E+00 -1.54452215E+01  7.72261074E+00  7.72261074E+00 -1.54452215E+01
  7.72261074E+00  7.72261074E+00 -1.54452215E+01  7.72261074E+00  7.72261074E+00
 -1.54452215E+01  7.72261074E+00  7.72261074E+00 -1.54452215E+01  7.72261074E+00
  7.72261074E+00 -1.54452215E+01  7.72261074E+00  7.72261074E+00 -1.54452215E+01
  7.72261074E+00  7.72261074E+00 -1.54452215E+01  7.72261074E+00  7.72261074E+00
 -1.54452215E+01  7.72261074E+00  7.72261074E+00 -1.54452215E+01  7.72261074E+00
  7.72261074E+00 -1.54452215E+01  7.72261074E+00  7.72261074E+00 -1.54452215E+01
  7.72261074E+00  7.72261074E+00 -1.54452215E+01  7.72261074E+00  7.72261074E+00
 -1.54452215E+01  7.72261074E+00  7.72261074E+00 -1.54452215E+01  7.72261074E+00
  7.72261074E+00 -1.54452215E+01  7.72261074E+00  7.72261074E+00 -1.54452215E+01
  7.72261074E+00  7.72261074E+00 -1.54452215E+01  7.72261074E+00  7.72261074E+00
 -1.54452215E+01  7.72261074E+00  7.72261074E+00 -1.54452215E+01  7.72261074E+00
  7.72261074E+00 -1.54452215E+01  7.72261074E+00  7.72261074E+00 -1.54452215E+01
  7.72261074E+00  7.72261074E+00 -1.54452215E+01  7.72261074E+00  7.72261074E+00
 -1.54452215E+01  7.72261074E+00  7.72261074E+00 -1.54452215E+01  7.72261074E+00
  7.72261074E+00 -1.54452215E+01  7.72261074E+00  7.72261074E+00 -1.54452215E+01
  7.72261074E+00  7.72261074E+00 -1.54452215E+01  7.72261074E+00  7.72261074E+00
 -1.54452215E+01  7.72261074E+00  7.72261074E+00 -1.54452215E+01  7.72261074E+00
  7.72261074E+00 -1.54452215E+01  7.72261074E+00  7.72261074E+00 -1.54452215E+01
  7.72261074E+00  7.72261074E+00 -1.54452215E+01  7.72261074E+00  7.72261074E+00
 -1.54452215E+01  7.72261074E+00  7.72261074E+00 -1.54452215E+01  7.72261074E+00
  7.72261074E+00 -1.54452215E+01  7.72261074E+00  7.72261074E+00 -1.54452215E+01
  7.72261074E+00  7.72261074E+00 -1.54452215E+01  7.72261074E+00  7.72261074E+00
 -1.54452215E+01  7.72261074E+00  7.72261074E+00 -1.54452215E+01  7.72261074E+00
  7.72261074E+00 -1.54452215E+01  7.72261074E+00  7.72261074E+00 -1.54452215E+01
  7.72261074E+00  7.72261074E+00 -1.54452215E+01  7.72261074E+00  7.72261074E+00
 -1.54452215E+01  7.72261074E+00  7.72261074E+00 -1.54452215E+01  7.72261074E+00
  7.72261074E+00 -1.54452215E+01  7.72261074E+00  7.72261074E+00 -1.54452215E+01
  7.72261074E+00  7.72261074E+00 -1.54452215E+01  7.72261074E+00  7.72261074E+00
 -1.54452215E+01  7.72261074E+00  7.72261074E+00 -1.54452215E+01  7.72261074E+00
  7.72261074E+00 -1.54452215E+01  7.72261074E+00  7.72261074E+00 -1.54452215E+01
  7.72261074E+00  7.72261074E+00 -1.54452215E+01  7.72261074E+00  7.72261074E+00
 -1.54452215E+01  7.72261074E+00  7.72261074E+00 -1.54452215E+01  7.72261074E+00
  7.72261074E+00 -1.54452215E+01  7.72261074E+00  7.72261074E+00 -1.54452215E+01
  7.72261074E+00  7.72261074E+00 -1.54452215E+01  7.72261074E+00  7.72261074E+00
 -1.54452215E+01  7.72261074E+00  7.72261074E+00 -1.54452215E+01  7.72261074E+00
  7.72261074E+00 -1.54452215E+01  7.72261074E+00  7.72261074E+00 -1.54452215E+01
  7.72261074E+00  7.72261074E+00 -1.54452215E+01  7.72261074E+00  7.72261074E+00
 -1.54452215E+01  7.72261074E+00  7.72261074E+00 -1.54452215E+01  7.72261074E+00
  7.72261074E+00 -1.54452215E+01  7.72261074E+00  7.72261074E+00 -1.54452215E+01
  7.72261074E+00  7.72261074E+00 -1.54452215E+01  7.72261074E+00  7.72261074E+00
 -1.54452215E+01  7.72261074E+00  7.72261074E+00 -1.54452215E+01  7.72261074E+00
  7.72261074E+00 -1.54452215E+01  7.72261074E+00  7.72261074E+00 -1.54452215E+01
  7.72261074E+00  7.72261074E+00 -1.54452215E+01  7.72261074E+00  7.72261074E+00
 -1.54452215E+01  7.72261074E+00  7.72261074E+00 -1.54452215E+01  7.72261074E+00
  7.72261074E+00 -1.54452215E+01  7.72261074E+00  7.72261074E+00 -1.54452215E+01
  7.72261074E+00  7.72261074E+00 -1.54452215E+01  7.72261074E+00  7.72261074E+00
 -1.54452215E+01  7.72261074E+00  7.72261074E+00 -1.54452215E+01  7.72261074E+00
  7.72261074E+00 -1.54452215E+01  7.72261074E+00  7.72261074E+00 -1.54452215E+01
  7.72261074E+00  7.72261074E+00 -1.54452215E+01  7.72261074E+00  7.72261074E+00
 -1.54452215E+01  7.72261074E+00  7.72261074E+00 -1.54452215E+01  7.72261074E+00
  7.72261074E+00 -1.54452215E+01  7.72261074E+00  7.72261074E+00 -1.54452215E+01
  7.72261074E+00  7.72261074E+00 -1.54452215E+01  7.72261074E+00  7.72261074E+00
 -1.54452215E+01  7.72261074E+00  7.72261074E+00 -1.54452215E+01  7.72261074E+00
  7.72261074E+00 -1.54452215E+01  7.72261074E+00  7.72261074E+00 -1.54452215E+01
  7.72261074E+00  7.72261074E+00 -1.54452215E+01  7.72261074E+00  7.72261074E+00
 -1.54452215E+01  7.72261074E+00  7.72261074E+00 -1.54452215E+01  7.72261074E+00
  7.72261074E+00 -1.54452215E+01  7.72261074E+00  7.72261074E+00 -1.54452215E+01
  7.72261074E+00  7.72261074E+00 -1.54452215E+01  7.72261074E+00  7.72261074E+00
 -1.54452215E+01  7.72261074E+00  7.72261074E+00 -1.54452215E+01  7.72261074E+00
  7.72261074E+00 -1.54452215E+01  7.72261074E+00  7.72261074E+00 -1.54452215E+01
  7.72261074E+00  7.72261074E+00 -1.54452215E+01  7.72261074E+00  7.72261074E+00
 -1.54452215E+01  7.72261074E+00  7.72261074E+00 -1.54452215E+01  7.72261074E+00
  7.72261074E+00 -1.54452215E+01  7.72261074E+00  7.72261074E+00 -1.54452215E+01
  7.72261074E+00  7.72261074E+00 -1.54452215E+01  7.72261074E+00  7.72261074E+00
 -1.54452215E+01  7.72261074E+00  7.72261074E+00 -1.54452215E+01  7.72261074E+00
  7.72261074E+00 -1.54452215E+01  7.72261074E+00  7.72261074E+00 -1.54452215E+01
  7.72261074E+00  7.72261074E+00 -1.54452215E+01  7.72261074E+00  7.72261074E+00
 -1.54452215E+01  7.72261074E+00  7.72261074E+00 -1.54452215E+01  7.72261074E+00
  7.72261074E+00 -1.54452215E+01  7.72261074E+00  7.72261074E+00 -1.54452215E+01
  7.72261074E+00  7.72261074E+00 -1.54452215E+01  7.72261074E+00  7.72261074E+00
 -1.54452215E+01  7.72261074E+00  7.72261074E+00 -1.54452215E+01  7.72261074E+00
  7.72261074E+00 -1.54452215E+01  7.72261074E+00  7.72261074E+00 -1.54452215E+01
  7.72261074E+00  7.72261074E+00 -1.54452215E+01  7.72261074E+00  7.72261074E+00
 -1.54452215E+01  7.72261074E+00  7.72261074E+00 -1.54452215E+01  7.72261074E+00
  7.72261074E+00 -1.54452215E+01  7.72261074E+00  7.72261074E+00 -1.54452215E+01
  7.72261074E+00  7.72261074E+00 -1.54452215E+01  7.72261074E+00  7.72261074E+00
 -1.54452215E+01  7.72261074E+00  7.72261074E+00 -1.54452215E+01  7.72261074E+00
  7.72261074E+00 -1.54452215E+01  7.72261074E+00  7.72261074E+00 -1.54452215E+01
  7.72261074E+00  7.72261074E+00 -1.54452215E+01  7.72261074E+00  7.72261074E+00
 -1.54452215E+01  7.72261074E+00  7.72261074E+00 -1.54452215E+01  7.72261074E+00
  7.72261074E+00 -1.54452215E+01  7.72261074E+00  7.72261074E+00 -1.54452215E+01
  7.72261074E+00  7.72261074E+00 -1.54452215E+01  7.72261074E+00  7.72261074E+00
 -1.54452215E+01  7.72261074E+00  7.72261074E+00 -1.54452215E+01  7.72261074E+00
  7.72261074E+00 -1.54452215E+01  7.72261074E+00  7.72261074E+00 -1.54452215E+01
  7.72261074E+00  7.72261074E+00 -1.54452215E+01  7.72261074E+00  7.72261074E+00
 -1.54452215E+01  7.72261074E+00  7.72261074E+00 -1.54452215E+01  7.72261074E+00
  7.72261074E+00 -1.54452215E+01  7.72261074E+00  7.72261074E+00 -1.54452215E+01
  7.72261074E+00  7.72261074E+00 -1.54452215E+01  7.72261074E+00  7.72261074E+00
 -1.54452215E+01  7.72261074E+00  7.72261074E+00 -1.54452215E+01  7.72261074E+00
  7.72261074E+00 -1.54452215E+01  7.72261074E+00  7.72261074E+00 -1.54452215E+01
  7.72261074E+00  7.72261074E+00 -1.54452215E+01  7.72261074E+00  7.72261074E+00
 -1.54452215E+01  7.72261074E+00  7.72261074E+00 -1.54452215E+01  7.72261074E+00
  7.72261074E+00 -1.54452215E+01  7.72261074E+00  7.72261074E+00 -1.54452215E+01
  7.72261074E+00  7.72261074E+00 -1.54452215E+01  7.72261074E+00  7.72261074E+00
 -1.54452215E+01  7.72261074E+00  7.72261074E+00 -1.54452215E+01  7.72261074E+00
  7.72261074E+00 -1.54452215E+01  7.72261074E+00  7.72261074E+00 -1.54452215E+01
  7.72261074E+00  7.72261074E+00 -1.54452215E+01  7.72261074E+00  7.72261074E+00
 -1.54452215E+01  7.72261074E+00  7.72261074E+00 -1.54452215E+01  7.72261074E+00
  7.72261074E+00 -1.54452215E+01  7.72261074E+00  7.72261074E+00 -1.54452215E+01
  7.72261074E+00  7.72261074E+00 -1.54452215E+01  7.72261074E+00  7.72261074E+00
 -1.54452215E+01  7.72261074E+00  7.72261074E+00 -1.54452215E+01  7.72261074E+00
  7.72261074E+00 -1.54452215E+01  7.72261074E+00  7.72261074E+00 -1.54452215E+01
  7.72261074E+00  7.72261074E+00 -1.54452215E+01  7.72261074E+00  7.72261074E+00
 -1.54452215E+01  7.72261074E+00  7.72261074E+00 -1.54452215E+01  7.72261074E+00
  7.72261074E+00 -1.54452215E+01  7.72261074E+00  7.72261074E+00 -1.54452215E+01
  7.72261074E+00  7.72261074E+00 -1.54452215E+01  7.72261074E+00  7.72261074E+00
 -1.54452215E+01  7.72261074E+00  7.72261074E+00 -1.54452215E+01  7.72261074E+00
  7.72261074E+00 -1.54452215E+01  7.72261074E+00  7.72261074E+00 -1.54452215E+01
  7.72261074E+00  7.72261074E+00 -1.54452215E+01  7.72261074E+00  7.72261074E+00
 -1.54452215E+01  7.72261074E+00  7.72261074E+00 -1.54452215E+01  7.72261074E+00
  7.72261074E+00 -1.54452215E+01  7.72261074E+00  7.72261074E+00 -1.54452215E+01
  7.72261074E+00  7.72261074E+00 -1.54452215E+01  7.72261074E+00  7.72261074E+00
 -1.54452215E+01  7.72261074E+00  7.72261074E+00 -1.54452215E+01  7.72261074E+00
  7.72261074E+00 -1.54452215E+01  7.72261074E+00  7.72261074E+00 -1.54452215E+01
  7.72261074E+00  7.72261074E+00 -1.54452215E+01  7.72261074E+00  7.72261074E+00
 -1.54452215E+01  7.72261074E+00  7.72261074E+00 -1.54452215E+01  7.72261074E+00
  7.72261074E+00 -1.54452215E+01  7.72261074E+00  7.72261074E+00 -1.54452215E+01
  7.72261074E+00  7.72261074E+00 -1.54452215E+01  7.72261074E+00  7.72261074E+00
 -1.54452215E+01  7.72261074E+00  7.72261074E+00 -1.54452215E+01  7.72261074E+00
  7.72261074E+00 -1.54452215E+01  7.72261074E+00  7.72261074E+00 -1.54452215E+01
  7.72261074E+00  7.72261074E+00 -1.54452215E+01  7.72261074E+00  7.72261074E+00
 -1.54452215E+01  7.72261074E+00  7.72261074E+00 -1.54452215E+01  7.72261074E+00
  7.72261074E+00 -1.54452215E+01  7.72261074E+00  7.72261074E+00 -1.54452215E+01
  7.72261074E+00  7.72261074E+00 -1.54452215E+01  7.72261074E+00  7.72261074E+00
 -1.54452215E+01  7.72261074E+00  7.72261074E+00 -1.54452215E+01  7.72261074E+00
  7.72261074E+00 -1.54452215E+01  7.72261074E+00  7.72261074E+00 -1.54452215E+01
  7.72261074E+00  7.72261074E+00 -1.54452215E+01  7.72261074E+00  7.72261074E+00
 -1.54452215E+01  7.72261074E+00  7.72261074E+00 -1.54452215E+01  7.72261074E+00
  7.72261074E+00 -1.54452215E+01  7.72261074E+00  7.72261074E+00 -1.54452215E+01
  7.72261074E+00  7.72261074E+00 -1.54452215E+01  7.72261074E+00  7.72261074E+00
 -1.54452215E+01  7.72261074E+00  7.72261074E+00 -1.54452215E+01  7.72261074E+00
  7.72261074E+00 -1.54452215E+01  7.72261074E+00  7.72261074E+00 -1.54452215E+01
  7.72261074E+00  7.72261074E+00 -1.54452215E+01  7.72261074E+00  7.72261074E+00
 -1.54452215E+01  7.72261074E+00  7.72261074E+00 -1.54452215E+01  7.72261074E+00
  7.72261074E+00 -1.54452215E+01  7.72261074E+00  7.72261074E+00 -1.54452215E+01
  7.72261074E+00  7.72261074E+00 -1.54452215E+01  7.72261074E+00  7.72261074E+00
 -1.54452215E+01  7.72261074E+00  7.72261074E+00 -1.54452215E+01  7.72261074E+00
  7.72261074E+00 -1.54452215E+01  7.72261074E+00  7.72261074E+00 -1.54452215E+01
  7.72261074E+00  7.72261074E+00 -1.54452215E+01  7.72261074E+00  7.72261074E+00
 -1.54452215E+01  7.72261074E+00  7.72261074E+00 -1.54452215E+01  7.72261074E+00
  7.72261074E+00 -1.54452215E+01  7.72261074E+00  7.72261074E+00 -1.54452215E+01
  7.72261074E+00  7.72261074E+00 -1.54452215E+01  7.72261074E+00  7.72261074E+00
 -1.54452215E+01  7.72261074E+00  7.72261074E+00 -1.54452215E+01  7.72261074E+00
  7.72261074E+00 -1.54452215E+01  7.72261074E+00  7.72261074E+00 -1.54452215E+01
  7.72261074E+00  7.72261074E+00 -1.54452215E+01  7.72261074E+00  7.72261074E+00
 -1.54452215E+01  7.72261074E+00  7.72261074E+00 -1.54452215E+01  7.72261074E+00
  7.72261074E+00 -1.54452215E+01  7.72261074E+00  7.72261074E+00 -1.54452215E+01
  7.72261074E+00  7.72261074E+00 -1.54452215E+01  7.72261074E+00  7.72261074E+00
 -1.54452215E+01  7.72261074E+00  7.72261074E+00 -1.54452215E+01  7.72261074E+00
  7.72261074E+00 -1.54452215E+01  7.72261074E+00  7.72261074E+00 -1.54452215E+01
  7.72261074E+00  7.72261074E+00 -1.54452215E+01  7.72261074E+00  7.72261074E+00
 -1.54452215E+01  7.72261074E+00  7.72261074E+00 -1.54452215E+01  7.72261074E+00
  7.72261074E+00 -1.54452215E+01  7.72261074E+00  7.72261074E+00 -1.54452215E+01
  7.72261074E+00  7.72261074E+00 -1.54452215E+01  7.72261074E+00  7.72261074E+00
 -1.54452215E+01  7.72261074E+00  7.72261074E+00 -1.54452215E+01  7.72261074E+00
  7.72261074E+00 -1.54452215E+01  7.72261074E+00  7.72261074E+00 -1.54452215E+01
  7.72261074E+00  7.72261074E+00 -1.54452215E+01  7.72261074E+00  7.72261074E+00
 -1.54452215E+01  7.72261074E+00  7.72261074E+00 -1.54452215E+01  7.72261074E+00
  7.72261074E+00 -1.54452215E+01  7.72261074E+00  7.72261074E+00 -1.54452215E+01
  7.72261074E+00  7.72261074E+00 -1.54452215E+01  7.72261074E+00  7.72261074E+00
 -1.54452215E+01  7.72261074E+00  7.72261074E+00 -1.54452215E+01  7.72261074E+00
  7.72261074E+00 -1.54452215E+01  7.72261074E+00  7.72261074E+00 -1.54452215E+01
  7.72261074E+00  7.72261074E+00 -1.54452215E+01  7.72261074E+00  7.72261074E+00
 -1.54452215E+01  7.72261074E+00  7.72261074E+00 -1.54452215E+01  7.72261074E+00
  7.72261074E+00 -1.54452215E+01  7.72261074E+00  7.72261074E+00 -1.54452215E+01
  7.72261074E+00  7.72261074E+00 -1.54452215E+01  7.72261074E+00  7.72261074E+00
 -1.54452215E+01  7.72261074E+00  7.72261074E+00 -1.54452215E+01  7.72261074E+00
  7.72261074E+00 -1.54452215E+01  7.72261074E+00  7.72261074E+00 -1.54452215E+01
  7.72261074E+00  7.72261074E+00 -1.54452215E+01  7.72261074E+00  7.72261074E+00
 -1.54452215E+01  7.72261074E+00  7.72261074E+00 -1.54452215E+01  7.72261074E+00
  7.72261074E+00 -1.54452215E+01  7.72261074E+00  7.72261074E+00 -1.54452215E+01
  7.72261074E+00  7.72261074E+00 -1.54452215E+01  7.72261074E+00  7.72261074E+00
 -1.54452215E+01  7.72261074E+00  7.72261074E+00 -1.54452215E+01  7.72261074E+00
  7.72261074E+00 -1.54452215E+01  7.72261074E+00  7.72261074E+00 -1.54452215E+01
  7.72261074E+00  7.72261074E+00 -1.54452215E+01  7.72261074E+00  7.72261074E+00
 -1.54452215E+01  7.72261074E+00  7.72261074E+00 -1.54452215E+01  7.72261074E+00
  7.72261074E+00 -1.54452215E+01  7.72261074E+00  7.72261074E+00 -1.54452215E+01
  7.72261074E+00  7.72261074E+00 -1.54452215E+01  7.72261074E+00  7.72261074E+00
 -1.54452215E+01  7.72261074E+00  7.72261074E+00 -1.54452215E+01  7.72261074E+00
  7.72261074E+00 -1.54452215E+01  7.72261074E+00  7.72261074E+00 -1.54452215E+01
  7.72261074E+00  7.72261074E+00 -1.54452215E+01  7.72261074E+00  7.72261074E+00
 -1.54452215E+01  7.72261074E+00  7.72261074E+00 -1.54452215E+01  7.72261074E+00
  7.72261074E+00 -1.54452215E+01  7.72261074E+00  7.72261074E+00 -1.54452215E+01
  7.72261074E+00  7.72261074E+00 -1.54452215E+01  7.72261074E+00  7.72261074E+00
 -1.54452215E+01  7.72261074E+00  7.72261074E+00 -1.54452215E+01  7.72261074E+00
  7.72261074E+00 -1.54452215E+01  7.72261074E+00  7.72261074E+00 -1.54452215E+01
  7.72261074E+00  7.72261074E+00 -1.54452215E+01  7.72261074E+00  7.72261074E+00
 -1.54452215E+01  7.72261074E+00  7.72261074E+00 -1.54452215E+01  7.72261074E+00
  7.72261074E+00 -1.54452215E+01  7.72261074E+00  7.72261074E+00 -1.54452215E+01
  7.72261074E+00  7.72261074E+00 -1.54452215E+01  7.72261074E+00  7.72261074E+00
 -1.54452215E+01  7.72261074E+00  7.72261074E+00 -1.54452215E+01  7.72261074E+00
  7.72261074E+00 -1.54452215E+01  7.72261074E+00  7.72261074E+00 -1.54452215E+01
  7.72261074E+00  7.72261074E+00 -1.54452215E+01  7.72261074E+00  7.72261074E+00
 -1.54452215E+01  7.72261074E+00  7.72261074E+00 -1.54452215E+01  7.72261074E+00
  7.72261074E+00 -1.54452215E+01  7.72261074E+00  7.72261074E+00 -1.54452215E+01
  7.72261074E+00  7.72261074E+00 -1.54452215E+01  7.72261074E+00  7.72261074E+00
 -1.54452215E+01  7.72261074E+00  7.72261074E+00 -1.54452215E+01  7.72261074E+00
  7.72261074E+00 -1.54452215E+01  7.72261074E+00  7.72261074E+00 -1.54452215E+01
  7.72261074E+00  7.72261074E+00 -1.54452215E+01  7.72261074E+00  7.72261074E+00
 -1.54452215E+01  7.72261074E+00  7.72261074E+00 -1.54452215E+01  7.72261074E+00
  7.72261074E+00 -1.54452215E+01  7.72261074E+00  7.72261074E+00 -1.54452215E+01
  7.72261074E+00  7.72261074E+00 -1.54452215E+01  7.72261074E+00  7.72261074E+00
 -1.54452215E+01  7.72261074E+00  7.72261074E+00 -1.54452215E+01  7.72261074E+00
  7.72261074E+00 -1.54452215E+01  7.72261074E+00  7.72261074E+00 -1.54452215E+01
  7.72261074E+00  7.72261074E+00 -1.54452215E+01  7.72261074E+00  7.72261074E+00
 -1.54452215E+01  7.72261074E+00  7.72261074E+00 -1.54452215E+01  7.72261074E+00
  7.72261074E+00 -1.54452215E+01  7.72261074E+00  7.72261074E+00 -1.54452215E+01
  7.72261074E+00  7.72261074E+00 -1.54452215E+01  7.72261074E+00  7.72261074E+00
 -1.54452215E+01  7.72261074E+00  7.72261074E+00 -1.54452215E+01  7.72261074E+00
  7.72261074E+00 -1.54452215E+01  7.72261074E+00  7.72261074E+00 -1.54452215E+01
  7.72261074E+00  7.72261074E+00 -1.54452215E+01  7.72261074E+00  7.72261074E+00
 -1.54452215E+01  7.72261074E+00  7.72261074E+00 -1.54452215E+01  7.72261074E+00
  7.72261074E+00 -1.54452215E+01  7.72261074E+00  7.72261074E+00 -1.54452215E+01
  7.72261074E+00  7.72261074E+00 -1.54452215E+01  7.72261074E+00  7.72261074E+00
 -1.54452215E+01  7.72261074E+00  7.72261074E+00 -1.54452215E+01  7.72261074E+00
  7.72261074E+00 -1.54452215E+01  7.72261074E+00  7.72261074E+00 -1.54452215E+01
  7.72261074E+00  7.72261074E+00 -1.54452215E+01  7.72261074E+00  7.72261074E+00
 -1.54452215E+01  7.72261074E+00  7.72261074E+00 -1.54452215E+01  7.72261074E+00
  7.72261074E+00 -1.54452215E+01  7.72261074E+00  7.72261074E+00 -1.54452215E+01
  7.72261074E+00  7.72261074E+00 -1.54452215E+01  7.72261074E+00  7.72261074E+00
 -1.54452215E+01  7.72261074E+00  7.72261074E+00 -1.54452215E+01  7.72261074E+00
  7.72261074E+00 -1.54452215E+01  7.72261074E+00  7.72261074E+00 -1.54452215E+01
  7.72261074E+00  7.72261074E+00 -1.54452215E+01  7.72261074E+00  7.72261074E+00
 -1.54452215E+01  7.72261074E+00  7.72261074E+00 -1.54452215E+01  7.72261074E+00
  7.72261074E+00 -1.54452215E+01  7.72261074E+00  7.72261074E+00 -1.54452215E+01
  7.72261074E+00  7.72261074E+00 -1.54452215E+01  7.72261074E+00  7.72261074E+00
 -1.54452215E+01  7.72261074E+00  7.72261074E+00 -1.54452215E+01  7.72261074E+00
  7.72261074E+00 -1.54452215E+01  7.72261074E+00  7.72261074E+00 -1.54452215E+01
  7.72261074E+00  7.72261074E+00 -1.54452215E+01  7.72261074E+00  7.72261074E+00
 -1.54452215E+01  7.72261074E+00  7.72261074E+00 -1.54452215E+01  7.72261074E+00
  7.72261074E+00 -1.54452215E+01  7.72261074E+00  7.72261074E+00 -1.54452215E+01
  7.72261074E+00  7.72261074E+00 -1.54452215E+01  7.72261074E+00  7.72261074E+00
 -1.54452215E+01  7.72261074E+00  7.72261074E+00 -1.54452215E+01  7.72261074E+00
  7.72261074E+00 -1.54452215E+01  7.72261074E+00  7.72261074E+00 -1.54452215E+01
  7.72261074E+00  7.72261074E+00 -1.54452215E+01  7.72261074E+00  7.72261074E+00
 -1.54452215E+01  7.72261074E+00  7.72261074E+00 -1.54452215E+01  7.72261074E+00
  7.72261074E+00 -1.54452215E+01  7.72261074E+00  7.72261074E+00 -1.54452215E+01
  7.72261074E+00  7.72261074E+00 -1.54452215E+01  7.72261074E+00  7.72261074E+00
 -1.54452215E+01  7.72261074E+00  7.72261074E+00 -1.54452215E+01  7.72261074E+00
  7.72261074E+00 -1.54452215E+01  7.72261074E+00  7.72261074E+00 -1.54452215E+01
  7.72261074E+00  7.72261074E+00 -1.54452215E+01  7.72261074E+00  7.72261074E+00
 -1.54452215E+01  7.72261074E+00  7.72261074E+00 -1.54452215E+01  7.72261074E+00
  7.72261074E+00 -1.54452215E+01  7.72261074E+00  7.72261074E+00 -1.54452215E+01
  7.72261074E+00  7.72261074E+00 -1.54452215E+01  7.72261074E+00  7.72261074E+00
 -1.54452215E+01  7.72261074E+00  7.72261074E+00 -1.54452215E+01  7.72261074E+00
  7.72261074E+00 -1.54452215E+01  7.72261074E+00  7.72261074E+00 -1.54452215E+01
  7.72261074E+00  7.72261074E+00 -1.54452215E+01  7.72261074E+00  7.72261074E+00
 -1.54452215E+01  7.72261074E+00  7.72261074E+00 -1.54452215E+01  7.72261074E+00
  7.72261074E+00 -1.54452215E+01  7.72261074E+00  7.72261074E+00 -1.54452215E+01
  7.72261074E+00  7.72261074E+00 -1.54452215E+01  7.72261074E+00  7.72261074E+00
 -1.54452215E+01  7.72261074E+00  7.72261074E+00 -1.54452215E+01  7.72261074E+00
  7.72261074E+00 -1.54452215E+01  7.72261074E+00  7.72261074E+00 -1.54452215E+01
  7.72261074E+00  7.72261074E+00 -1.54452215E+01  7.72261074E+00  7.72261074E+00
 -1.54452215E+01  7.72261074E+00  7.72261074E+00 -1.54452215E+01  7.72261074E+00
  7.72261074E+00 -1.54452215E+01  7.72261074E+00  7.72261074E+00 -1.54452215E+01
  7.72261074E+00  7.72261074E+00 -1.54452215E+01  7.72261074E+00  7.72261074E+00
 -1.54452215E+01  7.72261074E+00  7.72261074E+00 -1.54452215E+01  7.72261074E+00
  7.72261074E+00 -1.54452215E+01  7.72261074E+00  7.72261074E+00 -1.54452215E+01
  7.72261074E+00  7.72261074E+00 -1.54452215E+01  7.72261074E+00  7.72261074E+00
 -1.54452215E+01  7.72261074E+00  7.72261074E+00 -1.54452215E+01  7.72261074E+00
  7.72261074E+00 -1.54452215E+01  7.72261074E+00  7.72261074E+00 -1.54452215E+01
  7.72261074E+00  7.72261074E+00 -1.54452215E+01  7.72261074E+00  7.72261074E+00
 -1.54452215E+01  7.72261074E+00  7.72261074E+00 -1.54452215E+01  7.72261074E+00
  7.72261074E+00 -1.54452215E+01  7.72261074E+00  7.72261074E+00 -1.54452215E+01
  7.72261074E+00  7.72261074E+00 -1.54452215E+01  7.72261074E+00  7.72261074E+00
 -1.54452215E+01  7.72261074E+00  7.72261074E+00 -1.54452215E+01  7.72261074E+00
  7.72261074E+00 -1.54452215E+01  7.72261074E+00  7.72261074E+00 -1.54452215E+01
  7.72261074E+00  7.72261074E+00 -1.54452215E+01  7.72261074E+00  7.72261074E+00
 -1.54452215E+01  7.72261074E+00  7.72261074E+00 -1.54452215E+01  7.72261074E+00
  7.72261074E+00 -1.54452215E+01  7.72261074E+00  7.72261074E+00 -1.54452215E+01
  7.72261074E+00  7.72261074E+00 -1.54452215E+01  7.72261074E+00  7.72261074E+00
 -1.54452215E+01  7.72261074E+00  7.72261074E+00 -1.54452215E+01  7.72261074E+00
  7.72261074E+00 -1.54452215E+01  7.72261074E+00  7.72261074E+00 -1.54452215E+01
  7.72261074E+00  7.72261074E+00 -1.54452215E+01  7.72261074E+00  7.72261074E+00
 -1.54452215E+01  7.72261074E+00  7.72261074E+00 -1.54452215E+01  7.72261074E+00
  7.72261074E+00 -1.54452215E+01  7.72261074E+00  7.72261074E+00 -1.54452215E+01
  7.72261074E+00  7.72261074E+00 -1.54452215E+01  7.72261074E+00  7.72261074E+00
 -1.54452215E+01  7.72261074E+00  7.72261074E+00 -1.54452215E+01  7.72261074E+00
  7.72261074E+00 -1.54452215E+01  7.72261074E+00  7.72261074E+00 -1.54452215E+01
  7.72261074E+00  7.72261074E+00 -1.54452215E+01  7.72261074E+00  7.72261074E+00
 -1.54452215E+01  7.72261074E+00  7.72261074E+00 -1.54452215E+01  7.72261074E+00
  7.72261074E+00 -1.54452215E+01  7.72261074E+00  7.72261074E+00 -1.54452215E+01
  7.72261074E+00  7.72261074E+00 -1.54452215E+01  7.72261074E+00  7.72261074E+00
 -1.54452215E+01  7.72261074E+00  7.72261074E+00 -1.54452215E+01  7.72261074E+00
  7.72261074E+00 -1.54452215E+01  7.72261074E+00  7.72261074E+00 -1.54452215E+01
  7.72261074E+00  7.72261074E+00 -1.54452215E+01  7.72261074E+00  7.72261074E+00
 -1.54452215E+01  7.72261074E+00  7.72261074E+00 -1.54452215E+01  7.72261074E+00
  7.72261074E+00 -1.54452215E+01  7.72261074E+00  7.72261074E+00 -1.54452215E+01
  7.72261074E+00  7.72261074E+00 -1.54452215E+01  7.72261074E+00  7.72261074E+00
 -1.54452215E+01  7.72261074E+00  7.72261074E+00 -1.54452215E+01  7.72261074E+00
  7.72261074E+00 -1.54452215E+01  7.72261074E+00  7.72261074E+00 -1.54452215E+01
  7.72261074E+00  7.72261074E+00 -1.54452215E+01  7.72261074E+00  7.72261074E+00
 -1.54452215E+01  7.72261074E+00  7.72261074E+00 -1.54452215E+01  7.72261074E+00
  7.72261074E+00 -1.54452215E+01  7.72261074E+00  7.72261074E+00 -1.54452215E+01
  7.72261074E+00  7.72261074E+00 -1.54452215E+01  7.72261074E+00  7.72261074E+00
 -1.54452215E+01  7.72261074E+00  7.72261074E+00 -1.54452215E+01  7.72261074E+00
  7.72261074E+00 -1.54452215E+01  7.72261074E+00  7.72261074E+00 -1.54452215E+01
  7.72261074E+00  7.72261074E+00 -1.54452215E+01  7.72261074E+00  7.72261074E+00
 -1.54452215E+01  7.72261074E+00  7.72261074E+00 -1.54452215E+01  7.72261074E+00
  7.72261074E+00 -1.54452215E+01  7.72261074E+00  7.72261074E+00 -1.54452215E+01
  7.72261074E+00  7.72261074E+00 -1.54452215E+01  7.72261074E+00  7.72261074E+00
 -1.54452215E+01  7.72261074E+00  7.72261074E+00 -1.54452215E+01  7.72261074E+00
  7.72261074E+00 -1.54452215E+01  7.72261074E+00  7.72261074E+00 -1.54452215E+01
  7.72261074E+00  7.72261074E+00 -1.54452215E+01  7.72261074E+00  7.72261074E+00
 -1.54452215E+01  7.72261074E+00  7.72261074E+00 -1.54452215E+01  7.72261074E+00
  7.72261074E+00 -1.54452215E+01  7.72261074E+00  7.72261074E+00 -1.54452215E+01
  7.72261074E+00  7.72261074E+00 -1.54452215E+01  7.72261074E+00  7.72261074E+00
 -1.54452215E+01  7.72261074E+00  7.72261074E+00 -1.54452215E+01  7.72261074E+00
  7.72261074E+00 -1.54452215E+01  7.72261074E+00  7.72261074E+00 -1.54452215E+01
  7.72261074E+00  7.72261074E+00 -1.54452215E+01  7.72261074E+00  7.72261074E+00
 -1.54452215E+01  7.72261074E+00  7.72261074E+00 -1.54452215E+01  7.72261074E+00
  7.72261074E+00 -1.54452215E+01  7.72261074E+00  7.72261074E+00 -1.54452215E+01
  7.72261074E+00  7.72261074E+00 -1.54452215E+01  7.72261074E+00  7.72261074E+00
 -1.54452215E+01  7.72261074E+00  7.72261074E+00 -1.54452215E+01  7.72261074E+00
  7.72261074E+00 -1.54452215E+01  7.72261074E+00  7.72261074E+00 -1.54452215E+01
  7.72261074E+00  7.72261074E+00 -1.54452215E+01  7.72261074E+00  7.72261074E+00
 -1.54452215E+01  7.72261074E+00  7.72261074E+00 -1.54452215E+01  7.72261074E+00
  7.72261074E+00 -1.54452215E+01  7.72261074E+00  7.72261074E+00 -1.54452215E+01
  7.72261074E+00  7.72261074E+00 -1.54452215E+01  7.72261074E+00  7.72261074E+00
 -1.54452215E+01  7.72261074E+00  7.72261074E+00 -1.54452215E+01  7.72261074E+00
  7.72261074E+00 -1.54452215E+01  7.72261074E+00  7.72261074E+00 -1.54452215E+01
  7.72261074E+00  7.72261074E+00 -1.54452215E+01  7.72261074E+00  7.72261074E+00
 -1.54452215E+01  7.72261074E+00  7.72261074E+00 -1.54452215E+01  7.72261074E+00
  7.72261074E+00 -1.54452215E+01  7.72261074E+00  7.72261074E+00 -1.54452215E+01
  7.72261074E+00  7.72261074E+00 -1.54452215E+01  7.72261074E+00  7.72261074E+00
 -1.54452215E+01  7.72261074E+00  7.72261074E+00 -1.54452215E+01  7.72261074E+00
  7.72261074E+00 -1.54452215E+01  7.72261074E+00  7.72261074E+00 -1.54452215E+01
  7.72261074E+00  7.72261074E+00 -1.54452215E+01  7.72261074E+00  7.72261074E+00
 -1.54452215E+01  7.72261074E+00  7.72261074E+00 -1.54452215E+01  7.72261074E+00
  7.72261074E+00 -1.54452215E+01  7.72261074E+00  7.72261074E+00 -1.54452215E+01
  7.72261074E+00  7.72261074E+00 -1.54452215E+01  7.72261074E+00  7.72261074E+00
 -1.54452215E+01  7.72261074E+00  7.72261074E+00 -1.54452215E+01  7.72261074E+00
  7.72261074E+00 -1.54452215E+01  7.72261074E+00  7.72261074E+00 -1.54452215E+01
  7.72261074E+00  7.72261074E+00 -1.54452215E+01  7.72261074E+00  7.72261074E+00
 -1.54452215E+01  7.72261074E+00  7.72261074E+00 -1.54452215E+01  7.72261074E+00
  7.72261074E+00 -1.54452215E+01  7.72261074E+00  7.72261074E+00 -1.54452215E+01
  7.72261074E+00  7.72261074E+00 -1.54452215E+01  7.72261074E+00  7.72261074E+00
 -1.54452215E+01  7.72261074E+00  7.72261074E+00 -1.54452215E+01  7.72261074E+00
  7.72261074E+00 -1.54452215E+01  7.72261074E+00  7.72261074E+00 -1.54452215E+01
  7.72261074E+00  7.72261074E+00 -1.54452215E+01  7.72261074E+00  7.72261074E+00
 -1.54452215E+01  7.72261074E+00  7.72261074E+00 -1.54452215E+01  7.72261074E+00
  7.72261074E+00 -1.54452215E+01  7.72261074E+00  7.72261074E+00 -1.54452215E+01
  7.72261074E+00  7.72261074E+00 -1.54452215E+01  7.72261074E+00  7.72261074E+00
 -1.54452215E+01  7.72261074E+00  7.72261074E+00 -1.54452215E+01  7.72261074E+00
  7.72261074E+00 -1.54452215E+01  7.72261074E+00  7.72261074E+00 -1.54452215E+01
  7.72261074E+00  7.72261074E+00 -1.54452215E+01  7.72261074E+00  7.72261074E+00
 -1.54452215E+01  7.72261074E+00  7.72261074E+00 -1.54452215E+01  7.72261074E+00
  7.72261074E+00 -1.54452215E+01  7.72261074E+00  7.72261074E+00 -1.54452215E+01
  7.72261074E+00  7.72261074E+00 -1.54452215E+01  7.72261074E+00  7.72261074E+00
 -1.54452215E+01  7.72261074E+00  7.72261074E+00 -1.54452215E+01  7.72261074E+00
  7.72261074E+00 -1.54452215E+01  7.72261074E+00  7.72261074E+00 -1.54452215E+01
  7.72261074E+00  7.72261074E+00 -1.54452215E+01  7.72261074E+00  7.72261074E+00
 -1.54452215E+01  7.72261074E+00  7.72261074E+00 -1.54452215E+01  7.72261074E+00
  7.72261074E+00 -1.54452215E+01  7.72261074E+00  7.72261074E+00 -1.54452215E+01
  7.72261074E+00  7.72261074E+00 -1.54452215E+01  7.72261074E+00  7.72261074E+00
 -1.54452215E+01  7.72261074E+00  7.72261074E+00 -1.54452215E+01  7.72261074E+00
  7.72261074E+00 -1.54452215E+01  7.72261074E+00  7.72261074E+00 -1.54452215E+01
  7.72261074E+00  7.72261074E+00 -1.54452215E+01  7.72261074E+00  7.72261074E+00
 -1.54452215E+01  7.72261074E+00  7.72261074E+00 -1.54452215E+01  7.72261074E+00
  7.72261074E+00 -1.54452215E+01  7.72261074E+00  7.72261074E+00 -1.54452215E+01
  7.72261074E+00  7.72261074E+00 -1.54452215E+01  7.72261074E+00  7.72261074E+00
 -1.54452215E+01  7.72261074E+00  7.72261074E+00 -1.54452215E+01  7.72261074E+00
  7.72261074E+00 -1.54452215E+01  7.72261074E+00  7.72261074E+00 -1.54452215E+01
  7.72261074E+00  7.72261074E+00 -1.54452215E+01  7.72261074E+00  7.72261074E+00
 -1.54452215E+01  7.72261074E+00  7.72261074E+00 -1.54452215E+01  7.72261074E+00
  7.72261074E+00 -1.54452215E+01  7.72261074E+00  7.72261074E+00 -1.54452215E+01
  7.72261074E+00  7.72261074E+00 -1.54452215E+01  7.72261074E+00  7.72261074E+00
 -1.54452215E+01  7.72261074E+00  7.72261074E+00 -1.54452215E+01  7.72261074E+00
  7.72261074E+00 -1.54452215E+01  7.72261074E+00  7.72261074E+00 -1.54452215E+01
  7.72261074E+00  7.72261074E+00 -1.54452215E+01  7.72261074E+00  7.72261074E+00
 -1.54452215E+01  7.72261074E+00  7.72261074E+00 -1.54452215E+01  7.72261074E+00
  7.72261074E+00 -1.54452215E+01  7.72261074E+00  7.72261074E+00 -1.54452215E+01
  7.72261074E+00  7.72261074E+00 -1.54452215E+01  7.72261074E+00  7.72261074E+00
 -1.54452215E+01  7.72261074E+00  7.72261074E+00 -1.54452215E+01  7.72261074E+00
  7.72261074E+00 -1.54452215E+01  7.72261074E+00  7.72261074E+00 -1.54452215E+01
  7.72261074E+00  7.72261074E+00 -1.54452215E+01  7.72261074E+00  7.72261074E+00
 -1.54452215E+01  7.72261074E+00  7.72261074E+00 -1.54452215E+01  7.72261074E+00
  7.72261074E+00 -1.54452215E+01  7.72261074E+00  7.72261074E+00 -1.54452215E+01
  7.72261074E+00  7.72261074E+00 -1.54452215E+01  7.72261074E+00  7.72261074E+00
 -1.54452215E+01  7.72261074E+00  7.72261074E+00 -1.54452215E+01  7.72261074E+00
  7.72261074E+00 -1.54452215E+01  7.72261074E+00  7.72261074E+00 -1.54452215E+01
  7.72261074E+00  7.72261074E+00 -1.54452215E+01  7.72261074E+00  7.72261074E+00
 -1.54452215E+01  7.72261074E+00  7.72261074E+00 -1.54452215E+01  7.72261074E+00
  7.72261074E+00 -1.54452215E+01  7.72261074E+00  7.72261074E+00 -1.54452215E+01
  7.72261074E+00  7.72261074E+00 -1.54452215E+01  7.72261074E+00  7.72261074E+00
 -1.54452215E+01  7.72261074E+00  7.72261074E+00 -1.54452215E+01  7.72261074E+00
  7.72261074E+00 -1.54452215E+01  7.72261074E+00  7.72261074E+00 -1.54452215E+01
  7.72261074E+00  7.72261074E+00 -1.54452215E+01  7.72261074E+00  7.72261074E+00
 -1.54452215E+01  7.72261074E+00  7.72261074E+00 -1.54452215E+01  7.72261074E+00
  7.72261074E+00 -1.54452215E+01  7.72261074E+00  7.72261074E+00 -1.54452215E+01
  7.72261074E+00  7.72261074E+00 -1.54452215E+01  7.72261074E+00  7.72261074E+00
 -1.54452215E+01  7.72261074E+00  7.72261074E+00 -1.54452215E+01  7.72261074E+00
  7.72261074E+00 -1.54452215E+01  7.72261074E+00  7.72261074E+00 -1.54452215E+01
  7.72261074E+00  7.72261074E+00 -1.54452215E+01  7.72261074E+00  7.72261074E+00
 -1.54452215E+01  7.72261074E+00  7.72261074E+00 -1.54452215E+01  7.72261074E+00
  7.72261074E+00 -1.54452215E+01  7.72261074E+00  7.72261074E+00 -1.54452215E+01
  7.72261074E+00  7.72261074E+00 -1.54452215E+01  7.72261074E+00  7.72261074E+00
 -1.54452215E+01  7.72261074E+00  7.72261074E+00 -1.54452215E+01  7.72261074E+00
  7.72261074E+00 -1.54452215E+01  7.72261074E+00  7.72261074E+00 -1.54452215E+01
  7.72261074E+00  7.72261074E+00 -1.54452215E+01  7.72261074E+00  7.72261074E+00
 -1.54452215E+01  7.72261074E+00  7.72261074E+00 -1.54452215E+01  7.72261074E+00
  7.72261074E+00 -1.54452215E+01  7.72261074E+00  7.72261074E+00 -1.54452215E+01
  7.72261074E+00  7.72261074E+00 -1.54452215E+01  7.72261074E+00  7.72261074E+00
 -1.54452215E+01  7.72261074E+00  7.72261074E+00 -1.54452215E+01  7.72261074E+00
  7.72261074E+00 -1.54452215E+01  7.72261074E+00  7.72261074E+00 -1.54452215E+01
  7.72261074E+00  7.72261074E+00 -1.54452215E+01  7.72261074E+00  7.72261074E+00
 -1.54452215E+01  7.72261074E+00  7.72261074E+00 -1.54452215E+01  7.72261074E+00
  7.72261074E+00 -1.54452215E+01  7.72261074E+00  7.72261074E+00 -1.54452215E+01
  7.72261074E+00  7.72261074E+00 -1.54452215E+01  7.72261074E+00  7.72261074E+00
 -1.54452215E+01  7.72261074E+00  7.72261074E+00 -1.54452215E+01  7.72261074E+00
  7.72261074E+00 -1.54452215E+01  7.72261074E+00  7.72261074E+00 -1.54452215E+01
  7.72261074E+00  7.72261074E+00 -1.54452215E+01  7.72261074E+00  7.72261074E+00
 -1.54452215E+01  7.72261074E+00  7.72261074E+00 -1.54452215E+01  7.72261074E+00
  7.72261074E+00 -1.54452215E+01  7.72261074E+00  7.72261074E+00 -1.54452215E+01
  7.72261074E+00  7.72261074E+00 -1.54452215E+01  7.72261074E+00  7.72261074E+00
 -1.54452215E+01  7.72261074E+00  7.72261074E+00 -1.54452215E+01  7.72261074E+00
  7.72261074E+00 -1.54452215E+01  7.72261074E+00  7.72261074E+00 -1.54452215E+01
  7.72261074E+00  7.72261074E+00 -1.54452215E+01  7.72261074E+00  7.72261074E+00
 -1.54452215E+01  7.72261074E+00  7.72261074E+00 -1.54452215E+01  7.72261074E+00
  7.72261074E+00 -1.54452215E+01  7.72261074E+00  7.72261074E+00 -1.54452215E+01
  7.72261074E+00  7.72261074E+00 -1.54452215E+01  7.72261074E+00  7.72261074E+00
 -1.54452215E+01  7.72261074E+00  7.72261074E+00 -1.54452215E+01  7.72261074E+00
  7.72261074E+00 -1.54452215E+01  7.72261074E+00  7.72261074E+00 -1.54452215E+01
  7.72261074E+00  7.72261074E+00 -1.54452215E+01  7.72261074E+00  7.72261074E+00
 -1.54452215E+01  7.72261074E+00  7.72261074E+00 -1.54452215E+01  7.72261074E+00
  7.72261074E+00 -1.54452215E+01  7.72261074E+00  7.72261074E+00 -1.54452215E+01
  7.72261074E+00  7.72261074E+00 -1.54452215E+01  7.72261074E+00  7.72261074E+00
 -1.54452215E+01  7.72261074E+00  7.72261074E+00 -1.54452215E+01  7.72261074E+00
  7.72261074E+00 -1.54452215E+01  7.72261074E+00  7.72261074E+00 -1.54452215E+01
  7.72261074E+00  7.72261074E+00 -1.54452215E+01  7.72261074E+00  7.72261074E+00
 -1.54452215E+01  7.72261074E+00  7.72261074E+00 -1.54452215E+01  7.72261074E+00
  7.72261074E+00 -1.54452215E+01  7.72261074E+00  7.72261074E+00 -1.54452215E+01
  7.72261074E+00  7.72261074E+00 -1.54452215E+01  7.72261074E+00  7.72261074E+00
 -1.54452215E+01  7.72261074E+00  7.72261074E+00 -1.54452215E+01  7.72261074E+00
  7.72261074E+00 -1.54452215E+01  7.72261074E+00  7.72261074E+00 -1.54452215E+01
  7.72261074E+00  7.72261074E+00 -1.54452215E+01  7.72261074E+00  7.72261074E+00
 -1.54452215E+01  7.72261074E+00  7.72261074E+00 -1.54452215E+01  7.72261074E+00
  7.72261074E+00 -1.54452215E+01  7.72261074E+00  7.72261074E+00 -1.54452215E+01
  7.72261074E+00  7.72261074E+00 -1.54452215E+01  7.72261074E+00  7.72261074E+00
 -1.54452215E+01  7.72261074E+00  7.72261074E+00 -1.54452215E+01  7.72261074E+00
  7.72261074E+00 -1.54452215E+01  7.72261074E+00  7.72261074E+00 -1.54452215E+01
  7.72261074E+00  7.72261074E+00 -1.54452215E+01  7.72261074E+00  7.72261074E+00
 -1.54452215E+01  7.72261074E+00  7.72261074E+00 -1.54452215E+01  7.72261074E+00
  7.72261074E+00 -1.54452215E+01  7.72261074E+00  7.72261074E+00 -1.54452215E+01
  7.72261074E+00  7.72261074E+00 -1.54452215E+01  7.72261074E+00  7.72261074E+00
 -1.54452215E+01  7.72261074E+00  7.72261074E+00 -1.54452215E+01  7.72261074E+00
  7.72261074E+00 -1.54452215E+01  7.72261074E+00  7.72261074E+00 -1.54452215E+01
  7.72261074E+00  7.72261074E+00 -1.54452215E+01  7.72261074E+00  7.72261074E+00
 -1.54452215E+01  7.72261074E+00  7.72261074E+00 -1.54452215E+01  7.72261074E+00
  7.72261074E+00 -1.54452215E+01  7.72261074E+00  7.72261074E+00 -1.54452215E+01
  7.72261074E+00  7.72261074E+00 -1.54452215E+01  7.72261074E+00  7.72261074E+00
 -1.54452215E+01  7.72261074E+00  7.72261074E+00 -1.54452215E+01  7.72261074E+00
  7.72261074E+00 -1.54452215E+01  7.72261074E+00  7.72261074E+00 -1.54452215E+01
  7.72261074E+00  7.72261074E+00 -1.54452215E+01  7.72261074E+00  7.72261074E+00
 -1.54452215E+01  7.72261074E+00  7.72261074E+00 -1.54452215E+01  7.72261074E+00
  7.72261074E+00 -1.54452215E+01  7.72261074E+00  7.72261074E+00 -1.54452215E+01
  7.72261074E+00  7.72261074E+00 -1.54452215E+01  7.72261074E+00  7.72261074E+00
 -1.54452215E+01  7.72261074E+00  7.72261074E+00 -1.54452215E+01  7.72261074E+00
  7.72261074E+00 -1.54452215E+01  7.72261074E+00  7.72261074E+00 -1.54452215E+01
  7.72261074E+00  7.72261074E+00 -1.54452215E+01  7.72261074E+00  7.72261074E+00
 -1.54452215E+01  7.72261074E+00  7.72261074E+00 -1.54452215E+01  7.72261074E+00
  7.72261074E+00 -1.54452215E+01  7.72261074E+00  7.72261074E+00 -1.54452215E+01
  7.72261074E+00  7.72261074E+00 -1.54452215E+01  7.72261074E+00  7.72261074E+00
 -1.54452215E+01  7.72261074E+00  7.72261074E+00 -1.54452215E+01  7.72261074E+00
  7.72261074E+00 -1.54452215E+01  7.72261074E+00  7.72261074E+00 -1.54452215E+01
  7.72261074E+00  7.72261074E+00 -1.54452215E+01  7.72261074E+00  7.72261074E+00
 -1.54452215E+01  7.72261074E+00  7.72261074E+00 -1.54452215E+01  7.72261074E+00
  7.72261074E+00 -1.54452215E+01  7.72261074E+00  7.72261074E+00 -1.54452215E+01
  7.72261074E+00  7.72261074E+00 -1.54452215E+01  7.72261074E+00  7.72261074E+00
 -1.54452215E+01  7.72261074E+00  7.72261074E+00 -1.54452215E+01  7.72261074E+00
  7.72261074E+00 -1.54452215E+01  7.72261074E+00  7.72261074E+00 -1.54452215E+01
  7.72261074E+00  7.72261074E+00 -1.54452215E+01  7.72261074E+00  7.72261074E+00
 -1.54452215E+01  7.72261074E+00  7.72261074E+00 -1.54452215E+01  7.72261074E+00
  7.72261074E+00 -1.54452215E+01  7.72261074E+00  7.72261074E+00 -1.54452215E+01
  7.72261074E+00  7.72261074E+00 -1.54452215E+01  7.72261074E+00  7.72261074E+00
 -1.54452215E+01  7.72261074E+00  7.72261074E+00 -1.54452215E+01  7.72261074E+00
  7.72261074E+00 -1.54452215E+01  7.72261074E+00  7.72261074E+00 -1.54452215E+01
  7.72261074E+00  7.72261074E+00 -1.54452215E+01  7.72261074E+00  7.72261074E+00
 -1.54452215E+01  7.72261074E+00  7.72261074E+00 -1.54452215E+01  7.72261074E+00
  7.72261074E+00 -1.54452215E+01  7.72261074E+00  7.72261074E+00 -1.54452215E+01
  7.72261074E+00  7.72261074E+00 -1.54452215E+01  7.72261074E+00  7.72261074E+00
 -1.54452215E+01  7.72261074E+00  7.72261074E+00 -1.54452215E+01  7.72261074E+00
  7.72261074E+00 -1.54452215E+01  7.72261074E+00  7.72261074E+00 -1.54452215E+01
  7.72261074E+00  7.72261074E+00 -1.54452215E+01  7.72261074E+00  7.72261074E+00
 -1.54452215E+01  7.72261074E+00  7.72261074E+00 -1.54452215E+01  7.72261074E+00
  7.72261074E+00 -1.54452215E+01  7.72261074E+00  7.72261074E+00 -1.54452215E+01
  7.72261074E+00  7.72261074E+00 -1.54452215E+01  7.72261074E+00  7.72261074E+00
 -1.54452215E+01  7.72261074E+00  7.72261074E+00 -1.54452215E+01  7.72261074E+00
  7.72261074E+00 -1.54452215E+01  7.72261074E+00  7.72261074E+00 -1.54452215E+01
  7.72261074E+00  7.72261074E+00 -1.54452215E+01  7.72261074E+00  7.72261074E+00
 -1.54452215E+01  7.72261074E+00  7.72261074E+00 -1.54452215E+01  7.72261074E+00
  7.72261074E+00 -1.54452215E+01  7.72261074E+00  7.72261074E+00 -1.54452215E+01
  7.72261074E+00  7.72261074E+00 -1.54452215E+01  7.72261074E+00  7.72261074E+00
 -1.54452215E+01  7.72261074E+00  7.72261074E+00 -1.54452215E+01  7.72261074E+00
  7.72261074E+00 -1.54452215E+01  7.72261074E+00  7.72261074E+00 -1.54452215E+01
  7.72261074E+00  7.72261074E+00 -1.54452215E+01  7.72261074E+00  7.72261074E+00
 -1.54452215E+01  7.72261074E+00  7.72261074E+00 -1.54452215E+01  7.72261074E+00
  7.72261074E+00 -1.54452215E+01  7.72261074E+00  7.72261074E+00 -1.54452215E+01
  7.72261074E+00  7.72261074E+00 -1.54452215E+01  7.72261074E+00  7.72261074E+00
 -1.54452215E+01  7.72261074E+00  7.72261074E+00 -1.54452215E+01  7.72261074E+00
  7.72261074E+00 -1.54452215E+01  7.72261074E+00  7.72261074E+00 -1.54452215E+01
  7.72261074E+00  7.72261074E+00 -1.54452215E+01  7.72261074E+00  7.72261074E+00
 -1.54452215E+01  7.72261074E+00  7.72261074E+00 -1.54452215E+01  7.72261074E+00
  7.72261074E+00 -1.54452215E+01  7.72261074E+00  7.72261074E+00 -1.54452215E+01
  7.72261074E+00  7.72261074E+00 -1.54452215E+01  7.72261074E+00  7.72261074E+00
 -1.54452215E+01  7.72261074E+00  7.72261074E+00 -1.54452215E+01  7.72261074E+00
  7.72261074E+00 -1.54452215E+01  7.72261074E+00  7.72261074E+00 -1.54452215E+01
  7.72261074E+00  7.72261074E+00 -1.54452215E+01  7.72261074E+00  7.72261074E+00
 -1.54452215E+01  7.72261074E+00  7.72261074E+00 -1.54452215E+01  7.72261074E+00
  7.72261074E+00 -1.54452215E+01  7.72261074E+00  7.72261074E+00 -1.54452215E+01
  7.72261074E+00  7.72261074E+00 -1.54452215E+01  7.72261074E+00  7.72261074E+00
 -1.54452215E+01  7.72261074E+00  7.72261074E+00 -1.54452215E+01  7.72261074E+00
  7.72261074E+00 -1.54452215E+01  7.72261074E+00  7.72261074E+00 -1.54452215E+01
  7.72261074E+00  7.72261074E+00 -1.54452215E+01  7.72261074E+00  7.72261074E+00
 -1.54452215E+01  7.72261074E+00  7.72261074E+00 -1.54452215E+01  7.72261074E+00
  7.72261074E+00 -1.54452215E+01  7.72261074E+00  7.72261074E+00 -1.54452215E+01
  7.72261074E+00  7.72261074E+00 -1.54452215E+01  7.72261074E+00  7.72261074E+00
 -1.54452215E+01  7.72261074E+00  7.72261074E+00 -1.54452215E+01  7.72261074E+00
  7.72261074E+00 -1.54452215E+01  7.72261074E+00  7.72261074E+00 -1.54452215E+01
  7.72261074E+00  7.72261074E+00 -1.54452215E+01  7.72261074E+00  7.72261074E+00
 -1.54452215E+01  7.72261074E+00  7.72261074E+00 -1.54452215E+01  7.72261074E+00
  7.72261074E+00 -1.54452215E+01  7.72261074E+00  7.72261074E+00 -1.54452215E+01
  7.72261074E+00  7.72261074E+00 -1.54452215E+01  7.72261074E+00  7.72261074E+00
 -1.54452215E+01  7.72261074E+00  7.72261074E+00 -1.54452215E+01  7.72261074E+00
  7.72261074E+00 -1.54452215E+01  7.72261074E+00  7.72261074E+00 -1.54452215E+01
  7.72261074E+00  7.72261074E+00 -1.54452215E+01  7.72261074E+00  7.72261074E+00
 -1.54452215E+01  7.72261074E+00  7.72261074E+00 -1.54452215E+01  7.72261074E+00
  7.72261074E+00 -1.54452215E+01  7.72261074E+00  7.72261074E+00 -1.54452215E+01
  7.72261074E+00  7.72261074E+00 -1.54452215E+01  7.72261074E+00  7.72261074E+00
 -1.54452215E+01  7.72261074E+00  7.72261074E+00 -1.54452215E+01  7.72261074E+00
  7.72261074E+00 -1.54452215E+01  7.72261074E+00  7.72261074E+00 -1.54452215E+01
  7.72261074E+00  7.72261074E+00 -1.54452215E+01  7.72261074E+00  7.72261074E+00
 -1.54452215E+01  7.72261074E+00  7.72261074E+00 -1.54452215E+01  7.72261074E+00
  7.72261074E+00 -1.54452215E+01  7.72261074E+00  7.72261074E+00 -1.54452215E+01
  7.72261074E+00  7.72261074E+00 -1.54452215E+01  7.72261074E+00  7.72261074E+00
 -1.54452215E+01  7.72261074E+00  7.72261074E+00 -1.54452215E+01  7.72261074E+00
  7.72261074E+00 -1.54452215E+01  7.72261074E+00  7.72261074E+00 -1.54452215E+01
  7.72261074E+00  7.72261074E+00 -1.54452215E+01  7.72261074E+00  7.72261074E+00
 -1.54452215E+01  7.72261074E+00  7.72261074E+00 -1.54452215E+01  7.72261074E+00
  7.72261074E+00 -1.54452215E+01  7.72261074E+00  7.72261074E+00 -1.54452215E+01
  7.72261074E+00  7.72261074E+00 -1.54452215E+01  7.72261074E+00  7.72261074E+00
 -1.54452215E+01  7.72261074E+00  7.72261074E+00 -1.54452215E+01  7.72261074E+00
  7.72261074E+00 -1.54452215E+01  7.72261074E+00  7.72261074E+00 -1.54452215E+01
  7.72261074E+00  7.72261074E+00 -1.54452215E+01  7.72261074E+00  7.72261074E+00
 -1.54452215E+01  7.72261074E+00  7.72261074E+00 -1.54452215E+01  7.72261074E+00
  7.72261074E+00 -1.54452215E+01  7.72261074E+00  7.72261074E+00 -1.54452215E+01
  7.72261074E+00  7.72261074E+00 -1.54452215E+01  7.72261074E+00  7.72261074E+00
 -1.54452215E+01  7.72261074E+00  7.72261074E+00 -1.54452215E+01  7.72261074E+00
  7.72261074E+00 -1.54452215E+01  7.72261074E+00  7.72261074E+00 -1.54452215E+01
  7.72261074E+00  7.72261074E+00 -1.54452215E+01  7.72261074E+00  7.72261074E+00
 -1.54452215E+01  7.72261074E+00  7.72261074E+00 -1.54452215E+01  7.72261074E+00
  7.72261074E+00 -1.54452215E+01  7.72261074E+00  7.72261074E+00 -1.54452215E+01
  7.72261074E+00  7.72261074E+00 -1.54452215E+01  7.72261074E+00  7.72261074E+00
 -1.54452215E+01  7.72261074E+00  7.72261074E+00 -1.54452215E+01  7.72261074E+00
  7.72261074E+00 -1.54452215E+01  7.72261074E+00  7.72261074E+00 -1.54452215E+01
  7.72261074E+00  7.72261074E+00 -1.54452215E+01  7.72261074E+00  7.72261074E+00
 -1.54452215E+01  7.72261074E+00  7.72261074E+00 -1.54452215E+01  7.72261074E+00
  7.72261074E+00 -1.54452215E+01  7.72261074E+00  7.72261074E+00 -1.54452215E+01
  7.72261074E+00  7.72261074E+00 -1.54452215E+01  7.72261074E+00  7.72261074E+00
 -1.54452215E+01  7.72261074E+00  7.72261074E+00 -1.54452215E+01  7.72261074E+00
  7.72261074E+00 -1.54452215E+01  7.72261074E+00  7.72261074E+00 -1.54452215E+01
  7.72261074E+00  7.72261074E+00 -1.54452215E+01  7.72261074E+00  7.72261074E+00
 -1.54452215E+01  7.72261074E+00  7.72261074E+00 -1.54452215E+01  7.72261074E+00
  7.72261074E+00 -1.54452215E+01  7.72261074E+00  7.72261074E+00 -1.54452215E+01
  7.72261074E+00  7.72261074E+00 -1.54452215E+01  7.72261074E+00  7.72261074E+00
 -1.54452215E+01  7.72261074E+00  7.72261074E+00 -1.54452215E+01  7.72261074E+00
  7.72261074E+00 -1.54452215E+01  7.72261074E+00  7.72261074E+00 -1.54452215E+01
  7.72261074E+00  7.72261074E+00 -1.54452215E+01  7.72261074E+00  7.72261074E+00
 -1.54452215E+01  7.72261074E+00  7.72261074E+00 -1.54452215E+01  7.72261074E+00
  7.72261074E+00 -1.54452215E+01  7.72261074E+00  7.72261074E+00 -1.54452215E+01
  7.72261074E+00  7.72261074E+00 -1.54452215E+01  7.72261074E+00  7.72261074E+00
 -1.54452215E+01  7.72261074E+00  7.72261074E+00 -1.54452215E+01  7.72261074E+00
  7.72261074E+00 -1.54452215E+01  7.72261074E+00  7.72261074E+00 -1.54452215E+01
  7.72261074E+00  7.72261074E+00 -1.54452215E+01  7.72261074E+00  7.72261074E+00
 -1.54452215E+01  7.72261074E+00  7.72261074E+00 -1.54452215E+01  7.72261074E+00
  7.72261074E+00 -1.54452215E+01  7.72261074E+00  7.72261074E+00 -1.54452215E+01
  7.72261074E+00  7.72261074E+00 -1.54452215E+01  7.72261074E+00  7.72261074E+00
 -1.54452215E+01  7.72261074E+00  7.72261074E+00 -1.54452215E+01  7.72261074E+00
  7.72261074E+00 -1.54452215E+01  7.72261074E+00  7.72261074E+00 -1.54452215E+01
  7.72261074E+00  7.72261074E+00 -1.54452215E+01  7.72261074E+00  7.72261074E+00
 -1.54452215E+01  7.72261074E+00  7.72261074E+00 -1.54452215E+01  7.72261074E+00
  7.72261074E+00 -1.54452215E+01  7.72261074E+00  7.72261074E+00 -1.54452215E+01
  7.72261074E+00  7.72261074E+00 -1.54452215E+01  7.72261074E+00  7.72261074E+00
 -1.54452215E+01  7.72261074E+00  7.72261074E+00 -1.54452215E+01  7.72261074E+00
  7.72261074E+00 -1.54452215E+01  7.72261074E+00  7.72261074E+00 -1.54452215E+01
  7.72261074E+00  7.72261074E+00 -1.54452215E+01  7.72261074E+00  7.72261074E+00
 -1.54452215E+01  7.72261074E+00  7.72261074E+00 -1.54452215E+01  7.72261074E+00
  7.72261074E+00 -1.54452215E+01  7.72261074E+00  7.72261074E+00 -1.54452215E+01
  7.72261074E+00  7.72261074E+00 -1.54452215E+01  7.72261074E+00  7.72261074E+00
 -1.54452215E+01  7.72261074E+00  7.72261074E+00 -1.54452215E+01  7.72261074E+00
  7.72261074E+00 -1.54452215E+01  7.72261074E+00  7.72261074E+00 -1.54452215E+01
  7.72261074E+00  7.72261074E+00 -1.54452215E+01  7.72261074E+00  7.72261074E+00
 -1.54452215E+01  7.72261074E+00  7.72261074E+00 -1.54452215E+01  7.72261074E+00
  7.72261074E+00 -1.54452215E+01  7.72261074E+00  7.72261074E+00 -1.54452215E+01
  7.72261074E+00  7.72261074E+00 -1.54452215E+01  7.72261074E+00  7.72261074E+00
 -1.54452215E+01  7.72261074E+00  7.72261074E+00 -1.54452215E+01  7.72261074E+00
  7.72261074E+00 -1.54452215E+01  7.72261074E+00  7.72261074E+00 -1.54452215E+01
  7.72261074E+00  7.72261074E+00 -1.54452215E+01  7.72261074E+00  7.72261074E+00
 -1.54452215E+01  7.72261074E+00  7.72261074E+00 -1.54452215E+01  7.72261074E+00
  7.72261074E+00 -1.54452215E+01  7.72261074E+00  7.72261074E+00 -1.54452215E+01
  7.72261074E+00  7.72261074E+00 -1.54452215E+01  7.72261074E+00  7.72261074E+00
 -1.54452215E+01  7.72261074E+00  7.72261074E+00 -1.54452215E+01  7.72261074E+00
  7.72261074E+00 -1.54452215E+01  7.72261074E+00  7.72261074E+00 -1.54452215E+01
  7.72261074E+00  7.72261074E+00 -1.54452215E+01  7.72261074E+00  7.72261074E+00
 -1.54452215E+01  7.72261074E+00  7.72261074E+00 -1.54452215E+01  7.72261074E+00
  7.72261074E+00 -1.54452215E+01  7.72261074E+00  7.72261074E+00 -1.54452215E+01
  7.72261074E+00  7.72261074E+00 -1.54452215E+01  7.72261074E+00  7.72261074E+00
 -1.54452215E+01  7.72261074E+00  7.72261074E+00 -1.54452215E+01  7.72261074E+00
  7.72261074E+00 -1.54452215E+01  7.72261074E+00  7.72261074E+00 -1.54452215E+01
  7.72261074E+00  7.72261074E+00 -1.54452215E+01  7.72261074E+00  7.72261074E+00
 -1.54452215E+01  7.72261074E+00  7.72261074E+00 -1.54452215E+01  7.72261074E+00
  7.72261074E+00 -1.54452215E+01  7.72261074E+00  7.72261074E+00 -1.54452215E+01
  7.72261074E+00  7.72261074E+00 -1.54452215E+01  7.72261074E+00  7.72261074E+00
 -1.54452215E+01  7.72261074E+00  7.72261074E+00 -1.54452215E+01  7.72261074E+00
  7.72261074E+00 -1.54452215E+01  7.72261074E+00  7.72261074E+00 -1.54452215E+01
  7.72261074E+00  7.72261074E+00 -1.54452215E+01  7.72261074E+00  7.72261074E+00
 -1.54452215E+01  7.72261074E+00  7.72261074E+00 -1.54452215E+01  7.72261074E+00
  7.72261074E+00 -1.54452215E+01  7.72261074E+00  7.72261074E+00 -1.54452215E+01
  7.72261074E+00  7.72261074E+00 -1.54452215E+01  7.72261074E+00  7.72261074E+00
 -1.54452215E+01  7.72261074E+00  7.72261074E+00 -1.54452215E+01  7.72261074E+00
  7.72261074E+00 -1.54452215E+01  7.72261074E+00  7.72261074E+00 -1.54452215E+01
  7.72261074E+00  7.72261074E+00 -1.54452215E+01  7.72261074E+00  7.72261074E+00
 -1.54452215E+01  7.72261074E+00  7.72261074E+00 -1.54452215E+01  7.72261074E+00
  7.72261074E+00 -1.54452215E+01  7.72261074E+00  7.72261074E+00 -1.54452215E+01
  7.72261074E+00  7.72261074E+00 -1.54452215E+01  7.72261074E+00  7.72261074E+00
 -1.54452215E+01  7.72261074E+00  7.72261074E+00 -1.54452215E+01  7.72261074E+00
  7.72261074E+00 -1.54452215E+01  7.72261074E+00  7.72261074E+00 -1.54452215E+01
  7.72261074E+00  7.72261074E+00 -1.54452215E+01  7.72261074E+00  7.72261074E+00
 -1.54452215E+01  7.72261074E+00  7.72261074E+00 -1.54452215E+01  7.72261074E+00
  7.72261074E+00 -1.54452215E+01  7.72261074E+00  7.72261074E+00 -1.54452215E+01
  7.72261074E+00  7.72261074E+00 -1.54452215E+01  7.72261074E+00  7.72261074E+00
 -1.54452215E+01  7.72261074E+00  7.72261074E+00 -1.54452215E+01  7.72261074E+00
  7.72261074E+00 -1.54452215E+01  7.72261074E+00  7.72261074E+00 -1.54452215E+01
  7.72261074E+00  7.72261074E+00 -1.54452215E+01  7.72261074E+00  7.72261074E+00
 -1.54452215E+01  7.72261074E+00  7.72261074E+00 -1.54452215E+01  7.72261074E+00
  7.72261074E+00 -1.54452215E+01  7.72261074E+00  7.72261074E+00 -1.54452215E+01
  7.72261074E+00  7.72261074E+00 -1.54452215E+01  7.72261074E+00  7.72261074E+00
 -1.54452215E+01  7.72261074E+00  7.72261074E+00 -1.54452215E+01  7.72261074E+00
  7.72261074E+00 -1.54452215E+01  7.72261074E+00  7.72261074E+00 -1.54452215E+01
  7.72261074E+00  7.72261074E+00 -1.54452215E+01  7.72261074E+00  7.72261074E+00
 -1.54452215E+01  7.72261074E+00  7.72261074E+00 -1.54452215E+01  7.72261074E+00
  7.72261074E+00 -1.54452215E+01  7.72261074E+00  7.72261074E+00 -1.54452215E+01
  7.72261074E+00  7.72261074E+00 -1.54452215E+01  7.72261074E+00  7.72261074E+00
 -1.54452215E+01  7.72261074E+00  7.72261074E+00 -1.54452215E+01  7.72261074E+00
  7.72261074E+00 -1.54452215E+01  7.72261074E+00  7.72261074E+00 -1.54452215E+01
  7.72261074E+00  7.72261074E+00 -1.54452215E+01  7.72261074E+00  7.72261074E+00
 -1.54452215E+01  7.72261074E+00  7.72261074E+00 -1.54452215E+01  7.72261074E+00
  7.72261074E+00 -1.54452215E+01  7.72261074E+00  7.72261074E+00 -1.54452215E+01
  7.72261074E+00  7.72261074E+00 -1.54452215E+01  7.72261074E+00  7.72261074E+00
 -1.54452215E+01  7.72261074E+00  7.72261074E+00 -1.54452215E+01  7.72261074E+00
  7.72261074E+00 -1.54452215E+01  7.72261074E+00  7.72261074E+00 -1.54452215E+01
  7.72261074E+00  7.72261074E+00 -1.54452215E+01  7.72261074E+00  7.72261074E+00
 -1.54452215E+01  7.72261074E+00  7.72261074E+00 -1.54452215E+01  7.72261074E+00
  7.72261074E+00 -1.54452215E+01  7.72261074E+00  7.72261074E+00 -1.54452215E+01
  7.72261074E+00  7.72261074E+00 -1.54452215E+01  7.72261074E+00  7.72261074E+00
 -1.54452215E+01  7.72261074E+00  7.72261074E+00 -1.54452215E+01  7.72261074E+00
  7.72261074E+00 -1.54452215E+01  7.72261074E+00  7.72261074E+00 -1.54452215E+01
  7.72261074E+00  7.72261074E+00 -1.54452215E+01  7.72261074E+00  7.72261074E+00
 -1.54452215E+01  7.72261074E+00  7.72261074E+00 -1.54452215E+01  7.72261074E+00
  7.72261074E+00 -1.54452215E+01  7.72261074E+00  7.72261074E+00 -1.54452215E+01
  7.72261074E+00  7.72261074E+00 -1.54452215E+01  7.72261074E+00  7.72261074E+00
 -1.54452215E+01  7.72261074E+00  7.72261074E+00 -1.54452215E+01  7.72261074E+00
  7.72261074E+00 -1.54452215E+01  7.72261074E+00  7.72261074E+00 -1.54452215E+01
  7.72261074E+00  7.72261074E+00 -1.54452215E+01  7.72261074E+00  7.72261074E+00
 -1.54452215E+01  7.72261074E+00  7.72261074E+00 -1.54452215E+01  7.72261074E+00
  7.72261074E+00 -1.54452215E+01  7.72261074E+00  7.72261074E+00 -1.54452215E+01
  7.72261074E+00  7.72261074E+00 -1.54452215E+01  7.72261074E+00  7.72261074E+00
 -1.54452215E+01  7.72261074E+00  7.72261074E+00 -1.54452215E+01  7.72261074E+00
  7.72261074E+00 -1.54452215E+01  7.72261074E+00  7.72261074E+00 -1.54452215E+01
  7.72261074E+00  7.72261074E+00 -1.54452215E+01  7.72261074E+00  7.72261074E+00
 -1.54452215E+01  7.72261074E+00  7.72261074E+00 -1.54452215E+01  7.72261074E+00
  7.72261074E+00 -1.54452215E+01  7.72261074E+00  7.72261074E+00 -1.54452215E+01
  7.72261074E+00  7.72261074E+00 -1.54452215E+01  7.72261074E+00  7.72261074E+00
 -1.54452215E+01  7.72261074E+00  7.72261074E+00 -1.54452215E+01  7.72261074E+00
  7.72261074E+00 -1.54452215E+01  7.72261074E+00  7.72261074E+00 -1.54452215E+01
  7.72261074E+00  7.72261074E+00 -1.54452215E+01  7.72261074E+00  7.72261074E+00
 -1.54452215E+01  7.72261074E+00  7.72261074E+00 -1.54452215E+01  7.72261074E+00
  7.72261074E+00 -1.54452215E+01  7.72261074E+00  7.72261074E+00 -1.54452215E+01
  7.72261074E+00  7.72261074E+00 -1.54452215E+01  7.72261074E+00  7.72261074E+00
 -1.54452215E+01  7.72261074E+00  7.72261074E+00 -1.54452215E+01  7.72261074E+00
  7.72261074E+00 -1.54452215E+01  7.72261074E+00  7.72261074E+00 -1.54452215E+01
  7.72261074E+00  7.72261074E+00 -1.54452215E+01  7.72261074E+00  7.72261074E+00
 -1.54452215E+01  7.72261074E+00  7.72261074E+00 -1.54452215E+01  7.72261074E+00
  7.72261074E+00 -1.54452215E+01  7.72261074E+00  7.72261074E+00 -1.54452215E+01
  7.72261074E+00  7.72261074E+00 -1.54452215E+01  7.72261074E+00  7.72261074E+00
 -1.54452215E+01  7.72261074E+00  7.72261074E+00 -1.54452215E+01  7.72261074E+00
  7.72261074E+00 -1.54452215E+01  7.72261074E+00  7.72261074E+00 -1.54452215E+01
  7.72261074E+00  7.72261074E+00 -1.54452215E+01  7.72261074E+00  7.72261074E+00
 -1.54452215E+01  7.72261074E+00  7.72261074E+00 -1.54452215E+01  7.72261074E+00
  7.72261074E+00 -1.54452215E+01  7.72261074E+00  7.72261074E+00 -1.54452215E+01
  7.72261074E+00  7.72261074E+00 -1.54452215E+01  7.72261074E+00  7.72261074E+00
 -1.54452215E+01  7.72261074E+00  7.72261074E+00 -1.54452215E+01  7.72261074E+00
  7.72261074E+00 -1.54452215E+01  7.72261074E+00  7.72261074E+00 -1.54452215E+01
  7.72261074E+00  7.72261074E+00 -1.54452215E+01  7.72261074E+00  7.72261074E+00
 -1.54452215E+01  7.72261074E+00  7.72261074E+00 -1.54452215E+01  7.72261074E+00
  7.72261074E+00 -1.54452215E+01  7.72261074E+00  7.72261074E+00 -1.54452215E+01
  7.72261074E+00  7.72261074E+00 -1.54452215E+01  7.72261074E+00  7.72261074E+00
 -1.54452215E+01  7.72261074E+00  7.72261074E+00 -1.54452215E+01  7.72261074E+00
  7.72261074E+00 -1.54452215E+01  7.72261074E+00  7.72261074E+00 -1.54452215E+01
  7.72261074E+00  7.72261074E+00 -1.54452215E+01  7.72261074E+00  7.72261074E+00
 -1.54452215E+01  7.72261074E+00  7.72261074E+00 -1.54452215E+01  7.72261074E+00
  7.72261074E+00 -1.54452215E+01  7.72261074E+00  7.72261074E+00 -1.54452215E+01
  7.72261074E+00  7.72261074E+00 -1.54452215E+01  7.72261074E+00  7.72261074E+00
 -1.54452215E+01  7.72261074E+00  7.72261074E+00 -1.54452215E+01  7.72261074E+00
  7.72261074E+00 -1.54452215E+01  7.72261074E+00  7.72261074E+00 -1.54452215E+01
  7.72261074E+00  7.72261074E+00 -1.54452215E+01  7.72261074E+00  7.72261074E+00
 -1.54452215E+01  7.72261074E+00  7.72261074E+00 -1.54452215E+01  7.72261074E+00
  7.72261074E+00 -1.54452215E+01  7.72261074E+00  7.72261074E+00 -1.54452215E+01
  7.72261074E+00  7.72261074E+00 -1.54452215E+01  7.72261074E+00  7.72261074E+00
 -1.54452215E+01  7.72261074E+00  7.72261074E+00 -1.54452215E+01  7.72261074E+00
  7.72261074E+00 -1.54452215E+01  7.72261074E+00  7.72261074E+00 -1.54452215E+01
  7.72261074E+00  7.72261074E+00 -1.54452215E+01  7.72261074E+00  7.72261074E+00
 -1.54452215E+01  7.72261074E+00  7.72261074E+00 -1.54452215E+01  7.72261074E+00
  7.72261074E+00 -1.54452215E+01  7.72261074E+00  7.72261074E+00 -1.54452215E+01
  7.72261074E+00  7.72261074E+00 -1.54452215E+01  7.72261074E+00  7.72261074E+00
 -1.54452215E+01  7.72261074E+00  7.72261074E+00 -1.54452215E+01  7.72261074E+00
  7.72261074E+00 -1.54452215E+01  7.72261074E+00  7.72261074E+00 -1.54452215E+01
  7.72261074E+00  7.72261074E+00 -1.54452215E+01  7.72261074E+00  7.72261074E+00
 -1.54452215E+01  7.72261074E+00  7.72261074E+00 -1.54452215E+01  7.72261074E+00
  7.72261074E+00 -1.54452215E+01  7.72261074E+00  7.72261074E+00 -1.54452215E+01
  7.72261074E+00  7.72261074E+00 -1.54452215E+01  7.72261074E+00  7.72261074E+00
 -1.54452215E+01  7.72261074E+00  7.72261074E+00 -1.54452215E+01  7.72261074E+00
  7.72261074E+00 -1.54452215E+01  7.72261074E+00  7.72261074E+00 -1.54452215E+01
  7.72261074E+00  7.72261074E+00 -1.54452215E+01  7.72261074E+00  7.72261074E+00
 -1.54452215E+01  7.72261074E+00  7.72261074E+00 -1.54452215E+01  7.72261074E+00
  7.72261074E+00 -1.54452215E+01  7.72261074E+00  7.72261074E+00 -1.54452215E+01
  7.72261074E+00  7.72261074E+00 -1.54452215E+01  7.72261074E+00  7.72261074E+00
 -1.54452215E+01  7.72261074E+00  7.72261074E+00 -1.54452215E+01  7.72261074E+00
  7.72261074E+00 -1.54452215E+01  7.72261074E+00  7.72261074E+00 -1.54452215E+01
  7.72261074E+00  7.72261074E+00 -1.54452215E+01  7.72261074E+00  7.72261074E+00
 -1.54452215E+01  7.72261074E+00  7.72261074E+00 -1.54452215E+01  7.72261074E+00
  7.72261074E+00 -1.54452215E+01  7.72261074E+00  7.72261074E+00 -1.54452215E+01
  7.72261074E+00  7.72261074E+00 -1.54452215E+01  7.72261074E+00  7.72261074E+00
 -1.54452215E+01  7.72261074E+00  7.72261074E+00 -1.54452215E+01  7.72261074E+00
  7.72261074E+00 -1.54452215E+01  7.72261074E+00  7.72261074E+00 -1.54452215E+01
  7.72261074E+00  7.72261074E+00 -1.54452215E+01  7.72261074E+00  7.72261074E+00
 -1.54452215E+01  7.72261074E+00  7.72261074E+00 -1.54452215E+01  7.72261074E+00
  7.72261074E+00 -1.54452215E+01  7.72261074E+00  7.72261074E+00 -1.54452215E+01
  7.72261074E+00  7.72261074E+00 -1.54452215E+01  7.72261074E+00  7.72261074E+00
 -1.54452215E+01  7.72261074E+00  7.72261074E+00 -1.54452215E+01  7.72261074E+00
  7.72261074E+00 -1.54452215E+01  7.72261074E+00  7.72261074E+00 -1.54452215E+01
  7.72261074E+00  7.72261074E+00 -1.54452215E+01  7.72261074E+00  7.72261074E+00
 -1.54452215E+01  7.72261074E+00  7.72261074E+00 -1.54452215E+01  7.72261074E+00
  7.72261074E+00 -1.54452215E+01  7.72261074E+00  7.72261074E+00 -1.54452215E+01
  7.72261074E+00  7.72261074E+00 -1.54452215E+01  7.72261074E+00  7.72261074E+00
 -1.54452215E+01  7.72261074E+00  7.72261074E+00 -1.54452215E+01  7.72261074E+00
  7.72261074E+00 -1.54452215E+01  7.72261074E+00  7.72261074E+00 -1.54452215E+01
  7.72261074E+00  7.72261074E+00 -1.54452215E+01  7.72261074E+00  7.72261074E+00
 -1.54452215E+01  7.72261074E+00  7.72261074E+00 -1.54452215E+01  7.72261074E+00
  7.72261074E+00 -1.54452215E+01  7.72261074E+00  7.72261074E+00 -1.54452215E+01
  7.72261074E+00  7.72261074E+00 -1.54452215E+01  7.72261074E+00  7.72261074E+00
 -1.54452215E+01  7.72261074E+00  7.72261074E+00 -1.54452215E+01  7.72261074E+00
  7.72261074E+00 -1.54452215E+01  7.72261074E+00  7.72261074E+00 -1.54452215E+01
  7.72261074E+00  7.72261074E+00 -1.54452215E+01  7.72261074E+00  7.72261074E+00
 -1.54452215E+01  7.72261074E+00  7.72261074E+00 -1.54452215E+01  7.72261074E+00
  7.72261074E+00 -1.54452215E+01  7.72261074E+00  7.72261074E+00 -1.54452215E+01
  7.72261074E+00  7.72261074E+00 -1.54452215E+01  7.72261074E+00  7.72261074E+00
 -1.54452215E+01  7.72261074E+00  7.72261074E+00 -1.54452215E+01  7.72261074E+00
  7.72261074E+00 -1.54452215E+01  7.72261074E+00  7.72261074E+00 -1.54452215E+01
  7.72261074E+00  7.72261074E+00 -1.54452215E+01  7.72261074E+00  7.72261074E+00
 -1.54452215E+01  7.72261074E+00  7.72261074E+00 -1.54452215E+01  7.72261074E+00
  7.72261074E+00 -1.54452215E+01  7.72261074E+00  7.72261074E+00 -1.54452215E+01
  7.72261074E+00  7.72261074E+00 -1.54452215E+01  7.72261074E+00  7.72261074E+00
 -1.54452215E+01  7.72261074E+00  7.72261074E+00 -1.54452215E+01  7.72261074E+00
  7.72261074E+00 -1.54452215E+01  7.72261074E+00  7.72261074E+00 -1.54452215E+01
  7.72261074E+00  7.72261074E+00 -1.54452215E+01  7.72261074E+00  7.72261074E+00
 -1.54452215E+01  7.72261074E+00  7.72261074E+00 -1.54452215E+01  7.72261074E+00
  7.72261074E+00 -1.54452215E+01  7.72261074E+00  7.72261074E+00 -1.54452215E+01
  7.72261074E+00  7.72261074E+00 -1.54452215E+01  7.72261074E+00  7.72261074E+00
 -1.54452215E+01  7.72261074E+00  7.72261074E+00 -1.54452215E+01  7.72261074E+00
  7.72261074E+00 -1.54452215E+01  7.72261074E+00  7.72261074E+00 -1.54452215E+01
  7.72261074E+00  7.72261074E+00 -1.54452215E+01  7.72261074E+00  7.72261074E+00
 -1.54452215E+01  7.72261074E+00  7.72261074E+00 -1.54452215E+01  7.72261074E+00
  7.72261074E+00 -1.54452215E+01  7.72261074E+00  7.72261074E+00 -1.54452215E+01
  7.72261074E+00  7.72261074E+00 -1.54452215E+01  7.72261074E+00  7.72261074E+00
 -1.54452215E+01  7.72261074E+00  7.72261074E+00 -1.54452215E+01  7.72261074E+00
  7.72261074E+00 -1.54452215E+01  7.72261074E+00  7.72261074E+00 -1.54452215E+01
  7.72261074E+00  7.72261074E+00 -1.54452215E+01  7.72261074E+00  7.72261074E+00
 -1.54452215E+01  7.72261074E+00  7.72261074E+00 -1.54452215E+01  7.72261074E+00
  7.72261074E+00 -1.54452215E+01  7.72261074E+00  7.72261074E+00 -1.54452215E+01
  7.72261074E+00  7.72261074E+00 -1.54452215E+01  7.72261074E+00  7.72261074E+00
 -1.54452215E+01  7.72261074E+00  7.72261074E+00 -1.54452215E+01  7.72261074E+00
  7.72261074E+00 -1.54452215E+01  7.72261074E+00  7.72261074E+00 -1.54452215E+01
  7.72261074E+00  7.72261074E+00 -1.54452215E+01  7.72261074E+00  7.72261074E+00
 -1.54452215E+01  7.72261074E+00  7.72261074E+00 -1.54452215E+01  7.72261074E+00
  7.72261074E+00 -1.54452215E+01  7.72261074E+00  7.72261074E+00 -1.54452215E+01
  7.72261074E+00  7.72261074E+00 -1.54452215E+01  7.72261074E+00  7.72261074E+00
 -1.54452215E+01  7.72261074E+00  7.72261074E+00 -1.54452215E+01  7.72261074E+00
  7.72261074E+00 -1.54452215E+01  7.72261074E+00  7.72261074E+00 -1.54452215E+01
  7.72261074E+00  7.72261074E+00 -1.54452215E+01  7.72261074E+00  7.72261074E+00
 -1.54452215E+01  7.72261074E+00  7.72261074E+00 -1.54452215E+01  7.72261074E+00
  7.72261074E+00 -1.54452215E+01  7.72261074E+00  7.72261074E+00 -1.54452215E+01
  7.72261074E+00  7.72261074E+00 -1.54452215E+01  7.72261074E+00  7.72261074E+00
 -1.54452215E+01  7.72261074E+00  7.72261074E+00 -1.54452215E+01  7.72261074E+00
  7.72261074E+00 -1.54452215E+01  7.72261074E+00  7.72261074E+00 -1.54452215E+01
  7.72261074E+00  7.72261074E+00 -1.54452215E+01  7.72261074E+00  7.72261074E+00
 -1.54452215E+01  7.72261074E+00  7.72261074E+00 -1.54452215E+01  7.72261074E+00
  7.72261074E+00 -1.54452215E+01  7.72261074E+00  7.72261074E+00 -1.54452215E+01
  7.72261074E+00  7.72261074E+00 -1.54452215E+01  7.72261074E+00  7.72261074E+00
 -1.54452215E+01  7.72261074E+00  7.72261074E+00 -1.54452215E+01  7.72261074E+00
  7.72261074E+00 -1.54452215E+01  7.72261074E+00  7.72261074E+00 -1.54452215E+01
  7.72261074E+00  7.72261074E+00 -1.54452215E+01  7.72261074E+00  7.72261074E+00
 -1.54452215E+01  7.72261074E+00  7.72261074E+00 -1.54452215E+01  7.72261074E+00
  7.72261074E+00 -1.54452215E+01  7.72261074E+00  7.72261074E+00 -1.54452215E+01
  7.72261074E+00  7.72261074E+00 -1.54452215E+01  7.72261074E+00  7.72261074E+00
 -1.54452215E+01  7.72261074E+00  7.72261074E+00 -1.54452215E+01  7.72261074E+00
  7.72261074E+00 -1.54452215E+01  7.72261074E+00  7.72261074E+00 -1.54452215E+01
  7.72261074E+00  7.72261074E+00 -1.54452215E+01  7.72261074E+00  7.72261074E+00
 -1.54452215E+01  7.72261074E+00  7.72261074E+00 -1.54452215E+01  7.72261074E+00
  7.72261074E+00 -1.54452215E+01  7.72261074E+00  7.72261074E+00 -1.54452215E+01
  7.72261074E+00  7.72261074E+00 -1.54452215E+01  7.72261074E+00  7.72261074E+00
 -1.54452215E+01  7.72261074E+00  7.72261074E+00 -1.54452215E+01  7.72261074E+00
  7.72261074E+00 -1.54452215E+01  7.72261074E+00  7.72261074E+00 -1.54452215E+01
  7.72261074E+00  7.72261074E+00 -1.54452215E+01  7.72261074E+00  7.72261074E+00
 -1.54452215E+01  7.72261074E+00  7.72261074E+00 -1.54452215E+01  7.72261074E+00
  7.72261074E+00 -1.54452215E+01  7.72261074E+00  7.72261074E+00 -1.54452215E+01
  7.72261074E+00  7.72261074E+00 -1.54452215E+01  7.72261074E+00  7.72261074E+00
 -1.54452215E+01  7.72261074E+00  7.72261074E+00 -1.54452215E+01  7.72261074E+00
  7.72261074E+00 -1.54452215E+01  7.72261074E+00  7.72261074E+00 -1.54452215E+01
  7.72261074E+00  7.72261074E+00 -1.54452215E+01  7.72261074E+00  7.72261074E+00
 -1.54452215E+01  7.72261074E+00  7.72261074E+00 -1.54452215E+01  7.72261074E+00
  7.72261074E+00 -1.54452215E+01  7.72261074E+00  7.72261074E+00 -1.54452215E+01
  7.72261074E+00  7.72261074E+00 -1.54452215E+01  7.72261074E+00  7.72261074E+00
 -1.54452215E+01  7.72261074E+00  7.72261074E+00 -1.54452215E+01  7.72261074E+00
  7.72261074E+00 -1.54452215E+01  7.72261074E+00  7.72261074E+00 -1.54452215E+01
  7.72261074E+00  7.72261074E+00 -1.54452215E+01  7.72261074E+00  7.72261074E+00
 -1.54452215E+01  7.72261074E+00  7.72261074E+00 -1.54452215E+01  7.72261074E+00
  7.72261074E+00 -1.54452215E+01  7.72261074E+00  7.72261074E+00 -1.54452215E+01
  7.72261074E+00  7.72261074E+00 -1.54452215E+01  7.72261074E+00  7.72261074E+00
 -1.54452215E+01  7.72261074E+00  7.72261074E+00 -1.54452215E+01  7.72261074E+00
  7.72261074E+00 -1.54452215E+01  7.72261074E+00  7.72261074E+00 -1.54452215E+01
  7.72261074E+00  7.72261074E+00 -1.54452215E+01  7.72261074E+00  7.72261074E+00
 -1.54452215E+01  7.72261074E+00  7.72261074E+00 -1.54452215E+01  7.72261074E+00
  7.72261074E+00 -1.54452215E+01  7.72261074E+00  7.72261074E+00 -1.54452215E+01
  7.72261074E+00  7.72261074E+00 -1.54452215E+01  7.72261074E+00  7.72261074E+00
 -1.54452215E+01  7.72261074E+00  7.72261074E+00 -1.54452215E+01  7.72261074E+00
  7.72261074E+00 -1.54452215E+01  7.72261074E+00  7.72261074E+00 -1.54452215E+01
  7.72261074E+00  7.72261074E+00 -1.54452215E+01  7.72261074E+00  7.72261074E+00
 -1.54452215E+01  7.72261074E+00  7.72261074E+00 -1.54452215E+01  7.72261074E+00
  7.72261074E+00 -1.54452215E+01  7.72261074E+00  7.72261074E+00 -1.54452215E+01
  7.72261074E+00  7.72261074E+00 -1.54452215E+01  7.72261074E+00  7.72261074E+00
 -1.54452215E+01  7.72261074E+00  7.72261074E+00 -1.54452215E+01  7.72261074E+00
  7.72261074E+00 -1.54452215E+01  7.72261074E+00  7.72261074E+00 -1.54452215E+01
  7.72261074E+00  7.72261074E+00 -1.54452215E+01  7.72261074E+00  7.72261074E+00
 -1.54452215E+01  7.72261074E+00  7.72261074E+00 -1.54452215E+01  7.72261074E+00
  7.72261074E+00 -1.54452215E+01  7.72261074E+00  7.72261074E+00 -1.54452215E+01
  7.72261074E+00  7.72261074E+00 -1.54452215E+01  7.72261074E+00  7.72261074E+00
 -1.54452215E+01  7.72261074E+00  7.72261074E+00 -1.54452215E+01  7.72261074E+00
  7.72261074E+00 -1.54452215E+01  7.72261074E+00  7.72261074E+00 -1.54452215E+01
  7.72261074E+00  7.72261074E+00 -1.54452215E+01  7.72261074E+00  7.72261074E+00
 -1.54452215E+01  7.72261074E+00  7.72261074E+00 -1.54452215E+01  7.72261074E+00
  7.72261074E+00 -1.54452215E+01  7.72261074E+00  7.72261074E+00 -1.54452215E+01
  7.72261074E+00  7.72261074E+00 -1.54452215E+01  7.72261074E+00  7.72261074E+00
 -1.54452215E+01  7.72261074E+00  7.72261074E+00 -1.54452215E+01  7.72261074E+00
  7.72261074E+00 -1.54452215E+01  7.72261074E+00  7.72261074E+00 -1.54452215E+01
  7.72261074E+00  7.72261074E+00 -1.54452215E+01  7.72261074E+00  7.72261074E+00
 -1.54452215E+01  7.72261074E+00  7.72261074E+00 -1.54452215E+01  7.72261074E+00
  7.72261074E+00 -1.54452215E+01  7.72261074E+00  7.72261074E+00 -1.54452215E+01
  7.72261074E+00  7.72261074E+00 -1.54452215E+01  7.72261074E+00  7.72261074E+00
 -1.54452215E+01  7.72261074E+00  7.72261074E+00 -1.54452215E+01  7.72261074E+00
  7.72261074E+00 -1.54452215E+01  7.72261074E+00  7.72261074E+00 -1.54452215E+01
  7.72261074E+00  7.72261074E+00 -1.54452215E+01  7.72261074E+00  7.72261074E+00
 -1.54452215E+01  7.72261074E+00  7.72261074E+00 -1.54452215E+01  7.72261074E+00
  7.72261074E+00 -1.54452215E+01  7.72261074E+00  7.72261074E+00 -1.54452215E+01
  7.72261074E+00  7.72261074E+00 -1.54452215E+01  7.72261074E+00  7.72261074E+00
 -1.54452215E+01  7.72261074E+00  7.72261074E+00 -1.54452215E+01  7.72261074E+00
  7.72261074E+00 -1.54452215E+01  7.72261074E+00  7.72261074E+00 -1.54452215E+01
  7.72261074E+00  7.72261074E+00 -1.54452215E+01  7.72261074E+00  7.72261074E+00
 -1.54452215E+01  7.72261074E+00  7.72261074E+00 -1.54452215E+01  7.72261074E+00
  7.72261074E+00 -1.54452215E+01  7.72261074E+00  7.72261074E+00 -1.54452215E+01
  7.72261074E+00  7.72261074E+00 -1.54452215E+01  7.72261074E+00  7.72261074E+00
 -1.54452215E+01  7.72261074E+00  7.72261074E+00 -1.54452215E+01  7.72261074E+00
  7.72261074E+00 -1.54452215E+01  7.72261074E+00  7.72261074E+00 -1.54452215E+01
  7.72261074E+00  7.72261074E+00 -1.54452215E+01  7.72261074E+00  7.72261074E+00
 -1.54452215E+01  7.72261074E+00  7.72261074E+00 -1.54452215E+01  7.72261074E+00
  7.72261074E+00 -1.54452215E+01  7.72261074E+00  7.72261074E+00 -1.54452215E+01
  7.72261074E+00  7.72261074E+00 -1.54452215E+01  7.72261074E+00  7.72261074E+00
 -1.54452215E+01  7.72261074E+00  7.72261074E+00 -1.54452215E+01  7.72261074E+00
  7.72261074E+00 -1.54452215E+01  7.72261074E+00  7.72261074E+00 -1.54452215E+01
  7.72261074E+00  7.72261074E+00 -1.54452215E+01  7.72261074E+00  7.72261074E+00
 -1.54452215E+01  7.72261074E+00  7.72261074E+00 -1.54452215E+01  7.72261074E+00
  7.72261074E+00 -1.54452215E+01  7.72261074E+00  7.72261074E+00 -1.54452215E+01
  7.72261074E+00  7.72261074E+00 -1.54452215E+01  7.72261074E+00  7.72261074E+00
 -1.54452215E+01  7.72261074E+00  7.72261074E+00 -1.54452215E+01  7.72261074E+00
  7.72261074E+00 -1.54452215E+01  7.72261074E+00  7.72261074E+00 -1.54452215E+01
  7.72261074E+00  7.72261074E+00 -1.54452215E+01  7.72261074E+00  7.72261074E+00
 -1.54452215E+01  7.72261074E+00  7.72261074E+00 -1.54452215E+01  7.72261074E+00
  7.72261074E+00 -1.54452215E+01  7.72261074E+00  7.72261074E+00 -1.54452215E+01
  7.72261074E+00  7.72261074E+00 -1.54452215E+01  7.72261074E+00  7.72261074E+00
 -1.54452215E+01  7.72261074E+00  7.72261074E+00 -1.54452215E+01  7.72261074E+00
  7.72261074E+00 -1.54452215E+01  7.72261074E+00  7.72261074E+00 -1.54452215E+01
  7.72261074E+00  7.72261074E+00 -1.54452215E+01  7.72261074E+00  7.72261074E+00
 -1.54452215E+01  7.72261074E+00  7.72261074E+00 -1.54452215E+01  7.72261074E+00
  7.72261074E+00 -1.54452215E+01  7.72261074E+00  7.72261074E+00 -1.54452215E+01
  7.72261074E+00  7.72261074E+00 -1.54452215E+01  7.72261074E+00  7.72261074E+00
 -1.54452215E+01  7.72261074E+00  7.72261074E+00 -1.54452215E+01  7.72261074E+00
  7.72261074E+00 -1.54452215E+01  7.72261074E+00  7.72261074E+00 -1.54452215E+01
  7.72261074E+00  7.72261074E+00 -1.54452215E+01  7.72261074E+00  7.72261074E+00
 -1.54452215E+01  7.72261074E+00  7.72261074E+00 -1.54452215E+01  7.72261074E+00
  7.72261074E+00 -1.54452215E+01  7.72261074E+00  7.72261074E+00 -1.54452215E+01
  7.72261074E+00  7.72261074E+00 -1.54452215E+01  7.72261074E+00  7.72261074E+00
 -1.54452215E+01  7.72261074E+00  7.72261074E+00 -1.54452215E+01  7.72261074E+00
  7.72261074E+00 -1.54452215E+01  7.72261074E+00  7.72261074E+00 -1.54452215E+01
  7.72261074E+00  7.72261074E+00 -1.54452215E+01  7.72261074E+00  7.72261074E+00
 -1.54452215E+01  7.72261074E+00  7.72261074E+00 -1.54452215E+01  7.72261074E+00
  7.72261074E+00 -1.54452215E+01  7.72261074E+00  7.72261074E+00 -1.54452215E+01
  7.72261074E+00  7.72261074E+00 -1.54452215E+01  7.72261074E+00  7.72261074E+00
 -1.54452215E+01  7.72261074E+00  7.72261074E+00 -1.54452215E+01  7.72261074E+00
  7.72261074E+00 -1.54452215E+01  7.72261074E+00  7.72261074E+00 -1.54452215E+01
  7.72261074E+00  7.72261074E+00 -1.54452215E+01  7.72261074E+00  7.72261074E+00
 -1.54452215E+01  7.72261074E+00  7.72261074E+00 -1.54452215E+01  7.72261074E+00
  7.72261074E+00 -1.54452215E+01  7.72261074E+00  7.72261074E+00 -1.54452215E+01
  7.72261074E+00  7.72261074E+00 -1.54452215E+01  7.72261074E+00  7.72261074E+00
 -1.54452215E+01  7.72261074E+00  7.72261074E+00 -1.54452215E+01  7.72261074E+00
  7.72261074E+00 -1.54452215E+01  7.72261074E+00  7.72261074E+00 -1.54452215E+01
  7.72261074E+00  7.72261074E+00 -1.54452215E+01  7.72261074E+00  7.72261074E+00
 -1.54452215E+01  7.72261074E+00  7.72261074E+00 -1.54452215E+01  7.72261074E+00
  7.72261074E+00 -1.54452215E+01  7.72261074E+00  7.72261074E+00 -1.54452215E+01
  7.72261074E+00  7.72261074E+00 -1.54452215E+01  7.72261074E+00  7.72261074E+00
 -1.54452215E+01  7.72261074E+00  7.72261074E+00 -1.54452215E+01  7.72261074E+00
  7.72261074E+00 -1.54452215E+01  7.72261074E+00  7.72261074E+00 -1.54452215E+01
  7.72261074E+00  7.72261074E+00 -1.54452215E+01  7.72261074E+00  7.72261074E+00
 -1.54452215E+01  7.72261074E+00  7.72261074E+00 -1.54452215E+01  7.72261074E+00
  7.72261074E+00 -1.54452215E+01  7.72261074E+00  7.72261074E+00 -1.54452215E+01
  7.72261074E+00  7.72261074E+00 -1.54452215E+01  7.72261074E+00  7.72261074E+00
 -1.54452215E+01  7.72261074E+00  7.72261074E+00 -1.54452215E+01  7.72261074E+00
  7.72261074E+00 -1.54452215E+01  7.72261074E+00  7.72261074E+00 -1.54452215E+01
  7.72261074E+00  7.72261074E+00 -1.54452215E+01  7.72261074E+00  7.72261074E+00
 -1.54452215E+01  7.72261074E+00  7.72261074E+00 -1.54452215E+01  7.72261074E+00
  7.72261074E+00 -1.54452215E+01  7.72261074E+00  7.72261074E+00 -1.54452215E+01
  7.72261074E+00  7.72261074E+00 -1.54452215E+01  7.72261074E+00  7.72261074E+00
 -1.54452215E+01  7.72261074E+00  7.72261074E+00 -1.54452215E+01  7.72261074E+00
  7.72261074E+00 -1.54452215E+01  7.72261074E+00  7.72261074E+00 -1.54452215E+01
  7.72261074E+00  7.72261074E+00 -1.54452215E+01  7.72261074E+00  7.72261074E+00
 -1.54452215E+01  7.72261074E+00  7.72261074E+00 -1.54452215E+01  7.72261074E+00
  7.72261074E+00 -1.54452215E+01  7.72261074E+00  7.72261074E+00 -1.54452215E+01
  7.72261074E+00  7.72261074E+00 -1.54452215E+01  7.72261074E+00  7.72261074E+00
 -1.54452215E+01  7.72261074E+00  7.72261074E+00 -1.54452215E+01  7.72261074E+00
  7.72261074E+00 -1.54452215E+01  7.72261074E+00  7.72261074E+00 -1.54452215E+01
  7.72261074E+00  7.72261074E+00 -1.54452215E+01  7.72261074E+00  7.72261074E+00
 -1.54452215E+01  7.72261074E+00  7.72261074E+00 -1.54452215E+01  7.72261074E+00
  7.72261074E+00 -1.54452215E+01  7.72261074E+00  7.72261074E+00 -1.54452215E+01
  7.72261074E+00  7.72261074E+00 -1.54452215E+01  7.72261074E+00  7.72261074E+00
 -1.54452215E+01  7.72261074E+00  7.72261074E+00 -1.54452215E+01  7.72261074E+00
  7.72261074E+00 -1.54452215E+01  7.72261074E+00  7.72261074E+00 -1.54452215E+01
  7.72261074E+00  7.72261074E+00 -1.54452215E+01  7.72261074E+00  7.72261074E+00
 -1.54452215E+01  7.72261074E+00  7.72261074E+00 -1.54452215E+01  7.72261074E+00
  7.72261074E+00 -1.54452215E+01  7.72261074E+00  7.72261074E+00 -1.54452215E+01
  7.72261074E+00  7.72261074E+00 -1.54452215E+01  7.72261074E+00  7.72261074E+00
 -1.54452215E+01  7.72261074E+00  7.72261074E+00 -1.54452215E+01  7.72261074E+00
  7.72261074E+00 -1.54452215E+01  7.72261074E+00  7.72261074E+00 -1.54452215E+01
  7.72261074E+00  7.72261074E+00 -1.54452215E+01  7.72261074E+00  7.72261074E+00
 -1.54452215E+01  7.72261074E+00  7.72261074E+00 -1.54452215E+01  7.72261074E+00
  7.72261074E+00 -1.54452215E+01  7.72261074E+00  7.72261074E+00 -1.54452215E+01
  7.72261074E+00  7.72261074E+00 -1.54452215E+01  7.72261074E+00  7.72261074E+00
 -1.54452215E+01  7.72261074E+00  7.72261074E+00 -1.54452215E+01  7.72261074E+00
  7.72261074E+00 -1.54452215E+01  7.72261074E+00  7.72261074E+00 -1.54452215E+01
  7.72261074E+00  7.72261074E+00 -1.54452215E+01  7.72261074E+00  7.72261074E+00
 -1.54452215E+01  7.72261074E+00  7.72261074E+00 -1.54452215E+01  7.72261074E+00
  7.72261074E+00 -1.54452215E+01  7.72261074E+00  7.72261074E+00 -1.54452215E+01
  7.72261074E+00  7.72261074E+00 -1.54452215E+01  7.72261074E+00  7.72261074E+00
 -1.54452215E+01  7.72261074E+00  7.72261074E+00 -1.54452215E+01  7.72261074E+00
  7.72261074E+00 -1.54452215E+01  7.72261074E+00  7.72261074E+00 -1.54452215E+01
  7.72261074E+00  7.72261074E+00 -1.54452215E+01  7.72261074E+00  7.72261074E+00
 -1.54452215E+01  7.72261074E+00  7.72261074E+00 -1.54452215E+01  7.72261074E+00
  7.72261074E+00 -1.54452215E+01  7.72261074E+00  7.72261074E+00 -1.54452215E+01
  7.72261074E+00  7.72261074E+00 -1.54452215E+01  7.72261074E+00  7.72261074E+00
 -1.54452215E+01  7.72261074E+00  7.72261074E+00 -1.54452215E+01  7.72261074E+00
  7.72261074E+00 -1.54452215E+01  7.72261074E+00  7.72261074E+00 -1.54452215E+01
  7.72261074E+00  7.72261074E+00 -1.54452215E+01  7.72261074E+00  7.72261074E+00
 -1.54452215E+01  7.72261074E+00  7.72261074E+00 -1.54452215E+01  7.72261074E+00
  7.72261074E+00 -1.54452215E+01  7.72261074E+00  7.72261074E+00 -1.54452215E+01
  7.72261074E+00  7.72261074E+00 -1.54452215E+01  7.72261074E+00  7.72261074E+00
 -1.54452215E+01  7.72261074E+00  7.72261074E+00 -1.54452215E+01  7.72261074E+00
  7.72261074E+00 -1.54452215E+01  7.72261074E+00  7.72261074E+00 -1.54452215E+01
  7.72261074E+00  7.72261074E+00 -1.54452215E+01  7.72261074E+00  7.72261074E+00
 -1.54452215E+01  7.72261074E+00  7.72261074E+00 -1.54452215E+01  7.72261074E+00
  7.72261074E+00 -1.54452215E+01  7.72261074E+00  7.72261074E+00 -1.54452215E+01
  7.72261074E+00  7.72261074E+00 -1.54452215E+01  7.72261074E+00  7.72261074E+00
 -1.54452215E+01  7.72261074E+00  7.72261074E+00 -1.54452215E+01  7.72261074E+00
  7.72261074E+00 -1.54452215E+01  7.72261074E+00  7.72261074E+00 -1.54452215E+01
  7.72261074E+00  7.72261074E+00 -1.54452215E+01  7.72261074E+00  7.72261074E+00
 -1.54452215E+01  7.72261074E+00  7.72261074E+00 -1.54452215E+01  7.72261074E+00
  7.72261074E+00 -1.54452215E+01  7.72261074E+00  7.72261074E+00 -1.54452215E+01
  7.72261074E+00  7.72261074E+00 -1.54452215E+01  7.72261074E+00  7.72261074E+00
 -1.54452215E+01  7.72261074E+00  7.72261074E+00 -1.54452215E+01  7.72261074E+00
  7.72261074E+00 -1.54452215E+01  7.72261074E+00  7.72261074E+00 -1.54452215E+01
  7.72261074E+00  7.72261074E+00 -1.54452215E+01  7.72261074E+00  7.72261074E+00
 -1.54452215E+01  7.72261074E+00  7.72261074E+00 -1.54452215E+01  7.72261074E+00
  7.72261074E+00 -1.54452215E+01  7.72261074E+00  7.72261074E+00 -1.54452215E+01
  7.72261074E+00  7.72261074E+00 -1.54452215E+01  7.72261074E+00  7.72261074E+00
 -1.54452215E+01  7.72261074E+00  7.72261074E+00 -1.54452215E+01  7.72261074E+00
  7.72261074E+00 -1.54452215E+01  7.72261074E+00  7.72261074E+00 -1.54452215E+01
  7.72261074E+00  7.72261074E+00 -1.54452215E+01  7.72261074E+00  7.72261074E+00
 -1.54452215E+01  7.72261074E+00  7.72261074E+00 -1.54452215E+01  7.72261074E+00
  7.72261074E+00 -1.54452215E+01  7.72261074E+00  7.72261074E+00 -1.54452215E+01
  7.72261074E+00  7.72261074E+00 -1.54452215E+01  7.72261074E+00  7.72261074E+00
 -1.54452215E+01  7.72261074E+00  7.72261074E+00 -1.54452215E+01  7.72261074E+00
  7.72261074E+00 -1.54452215E+01  7.72261074E+00  7.72261074E+00 -1.54452215E+01
  7.72261074E+00  7.72261074E+00 -1.54452215E+01  7.72261074E+00  7.72261074E+00
 -1.54452215E+01  7.72261074E+00  7.72261074E+00 -1.54452215E+01  7.72261074E+00
  7.72261074E+00 -1.54452215E+01  7.72261074E+00  7.72261074E+00 -1.54452215E+01
  7.72261074E+00  7.72261074E+00 -1.54452215E+01  7.72261074E+00  7.72261074E+00
 -1.54452215E+01  7.72261074E+00  7.72261074E+00 -1.54452215E+01  7.72261074E+00
  7.72261074E+00 -1.54452215E+01  7.72261074E+00  7.72261074E+00 -1.54452215E+01
  7.72261074E+00  7.72261074E+00 -1.54452215E+01  7.72261074E+00  7.72261074E+00
 -1.54452215E+01  7.72261074E+00  7.72261074E+00 -1.54452215E+01  7.72261074E+00
  7.72261074E+00 -1.54452215E+01  7.72261074E+00  7.72261074E+00 -1.54452215E+01
  7.72261074E+00  7.72261074E+00 -1.54452215E+01  7.72261074E+00  7.72261074E+00
 -1.54452215E+01  7.72261074E+00  7.72261074E+00 -1.54452215E+01  7.72261074E+00
  7.72261074E+00 -1.54452215E+01  7.72261074E+00  7.72261074E+00 -1.54452215E+01
  7.72261074E+00  7.72261074E+00 -1.54452215E+01  7.72261074E+00  7.72261074E+00
 -1.54452215E+01  7.72261074E+00  7.72261074E+00 -1.54452215E+01  7.72261074E+00
  7.72261074E+00 -1.54452215E+01  7.72261074E+00  7.72261074E+00 -1.54452215E+01
  7.72261074E+00  7.72261074E+00 -1.54452215E+01  7.72261074E+00  7.72261074E+00
 -1.54452215E+01  7.72261074E+00  7.72261074E+00 -1.54452215E+01  7.72261074E+00
  7.72261074E+00 -1.54452215E+01  7.72261074E+00  7.72261074E+00 -1.54452215E+01
  7.72261074E+00  7.72261074E+00 -1.54452215E+01  7.72261074E+00  7.72261074E+00
 -1.54452215E+01  7.72261074E+00  7.72261074E+00 -1.54452215E+01  7.72261074E+00
  7.72261074E+00 -1.54452215E+01  7.72261074E+00  7.72261074E+00 -1.54452215E+01
  7.72261074E+00  7.72261074E+00 -1.54452215E+01  7.72261074E+00  7.72261074E+00
 -1.54452215E+01  7.72261074E+00  7.72261074E+00 -1.54452215E+01  7.72261074E+00
  7.72261074E+00 -1.54452215E+01  7.72261074E+00  7.72261074E+00 -1.54452215E+01
  7.72261074E+00  7.72261074E+00 -1.54452215E+01  7.72261074E+00  7.72261074E+00
 -1.54452215E+01  7.72261074E+00  7.72261074E+00 -1.54452215E+01  7.72261074E+00
  7.72261074E+00 -1.54452215E+01  7.72261074E+00  7.72261074E+00 -1.54452215E+01
  7.72261074E+00  7.72261074E+00 -1.54452215E+01  7.72261074E+00  7.72261074E+00
 -1.54452215E+01  7.72261074E+00  7.72261074E+00 -1.54452215E+01  7.72261074E+00
  7.72261074E+00 -1.54452215E+01  7.72261074E+00  7.72261074E+00 -1.54452215E+01
  7.72261074E+00  7.72261074E+00 -1.54452215E+01  7.72261074E+00  7.72261074E+00
 -1.54452215E+01  7.72261074E+00  7.72261074E+00 -1.54452215E+01  7.72261074E+00
  7.72261074E+00 -1.54452215E+01  7.72261074E+00  7.72261074E+00 -1.54452215E+01
  7.72261074E+00  7.72261074E+00 -1.54452215E+01  7.72261074E+00  7.72261074E+00
 -1.54452215E+01  7.72261074E+00  7.72261074E+00 -1.54452215E+01  7.72261074E+00
  7.72261074E+00 -1.54452215E+01  7.72261074E+00  7.72261074E+00 -1.54452215E+01
  7.72261074E+00  7.72261074E+00 -1.54452215E+01  7.72261074E+00  7.72261074E+00
 -1.54452215E+01  7.72261074E+00  7.72261074E+00 -1.54452215E+01  7.72261074E+00
  7.72261074E+00 -1.54452215E+01  7.72261074E+00  7.72261074E+00 -1.54452215E+01
  7.72261074E+00  7.72261074E+00 -1.54452215E+01  7.72261074E+00  7.72261074E+00
 -1.54452215E+01  7.72261074E+00  7.72261074E+00 -1.54452215E+01  7.72261074E+00
  7.72261074E+00 -1.54452215E+01  7.72261074E+00  7.72261074E+00 -1.54452215E+01
  7.72261074E+00  7.72261074E+00 -1.54452215E+01  7.72261074E+00  7.72261074E+00
 -1.54452215E+01  7.72261074E+00  7.72261074E+00 -1.54452215E+01  7.72261074E+00
  7.72261074E+00 -1.54452215E+01  7.72261074E+00  7.72261074E+00 -1.54452215E+01
  7.72261074E+00  7.72261074E+00 -1.54452215E+01  7.72261074E+00  7.72261074E+00
 -1.54452215E+01  7.72261074E+00  7.72261074E+00 -1.54452215E+01  7.72261074E+00
  7.72261074E+00 -1.54452215E+01  7.72261074E+00  7.72261074E+00 -1.54452215E+01
  7.72261074E+00  7.72261074E+00 -1.54452215E+01  7.72261074E+00  7.72261074E+00
 -1.54452215E+01  7.72261074E+00  7.72261074E+00 -1.54452215E+01  7.72261074E+00
  7.72261074E+00 -1.54452215E+01  7.72261074E+00  7.72261074E+00 -1.54452215E+01
  7.72261074E+00  7.72261074E+00 -1.54452215E+01  7.72261074E+00  7.72261074E+00
 -1.54452215E+01  7.72261074E+00  7.72261074E+00 -1.54452215E+01  7.72261074E+00
  7.72261074E+00 -1.54452215E+01  7.72261074E+00  7.72261074E+00 -1.54452215E+01
  7.72261074E+00  7.72261074E+00 -1.54452215E+01  7.72261074E+00  7.72261074E+00
 -1.54452215E+01  7.72261074E+00  7.72261074E+00 -1.54452215E+01  7.72261074E+00
  7.72261074E+00 -1.54452215E+01  7.72261074E+00  7.72261074E+00 -1.54452215E+01
  7.72261074E+00  7.72261074E+00 -1.54452215E+01  7.72261074E+00  7.72261074E+00
 -1.54452215E+01  7.72261074E+00  7.72261074E+00 -1.54452215E+01  7.72261074E+00
  7.72261074E+00 -1.54452215E+01  7.72261074E+00  7.72261074E+00 -1.54452215E+01
  7.72261074E+00  7.72261074E+00 -1.54452215E+01  7.72261074E+00  7.72261074E+00
 -1.54452215E+01  7.72261074E+00  7.72261074E+00 -1.54452215E+01  7.72261074E+00
  7.72261074E+00 -1.54452215E+01  7.72261074E+00  7.72261074E+00 -1.54452215E+01
  7.72261074E+00  7.72261074E+00 -1.54452215E+01  7.72261074E+00  7.72261074E+00
 -1.54452215E+01  7.72261074E+00  7.72261074E+00 -1.54452215E+01  7.72261074E+00
  7.72261074E+00 -1.54452215E+01  7.72261074E+00  7.72261074E+00 -1.54452215E+01
  7.72261074E+00  7.72261074E+00 -1.54452215E+01  7.72261074E+00  7.72261074E+00
 -1.54452215E+01  7.72261074E+00  7.72261074E+00 -1.54452215E+01  7.72261074E+00
  7.72261074E+00 -1.54452215E+01  7.72261074E+00  7.72261074E+00 -1.54452215E+01
  7.72261074E+00  7.72261074E+00 -1.54452215E+01  7.72261074E+00  7.72261074E+00
 -1.54452215E+01  7.72261074E+00  7.72261074E+00 -1.54452215E+01  7.72261074E+00
  7.72261074E+00 -1.54452215E+01  7.72261074E+00  7.72261074E+00 -1.54452215E+01
  7.72261074E+00  7.72261074E+00 -1.54452215E+01  7.72261074E+00  7.72261074E+00
 -1.54452215E+01  7.72261074E+00  7.72261074E+00 -1.54452215E+01  7.72261074E+00
  7.72261074E+00 -1.54452215E+01  7.72261074E+00  7.72261074E+00 -1.54452215E+01
  7.72261074E+00  7.72261074E+00 -1.54452215E+01  7.72261074E+00  7.72261074E+00
 -1.54452215E+01  7.72261074E+00  7.72261074E+00 -1.54452215E+01  7.72261074E+00
  7.72261074E+00 -1.54452215E+01  7.72261074E+00  7.72261074E+00 -1.54452215E+01
  7.72261074E+00  7.72261074E+00 -1.54452215E+01  7.72261074E+00  7.72261074E+00
 -1.54452215E+01  7.72261074E+00  7.72261074E+00 -1.54452215E+01  7.72261074E+00
  7.72261074E+00 -1.54452215E+01  7.72261074E+00  7.72261074E+00 -1.54452215E+01
  7.72261074E+00  7.72261074E+00 -1.54452215E+01  7.72261074E+00  7.72261074E+00
 -1.54452215E+01  7.72261074E+00  7.72261074E+00 -1.54452215E+01  7.72261074E+00
  7.72261074E+00 -1.54452215E+01  7.72261074E+00  7.72261074E+00 -1.54452215E+01
  7.72261074E+00  7.72261074E+00 -1.54452215E+01  7.72261074E+00  7.72261074E+00
 -1.54452215E+01  7.72261074E+00  7.72261074E+00 -1.54452215E+01  7.72261074E+00
  7.72261074E+00 -1.54452215E+01  7.72261074E+00  7.72261074E+00 -1.54452215E+01
  7.72261074E+00  7.72261074E+00 -1.54452215E+01  7.72261074E+00  7.72261074E+00
 -1.54452215E+01  7.72261074E+00  7.72261074E+00 -1.54452215E+01  7.72261074E+00
  7.72261074E+00 -1.54452215E+01  7.72261074E+00  7.72261074E+00 -1.54452215E+01
  7.72261074E+00  7.72261074E+00 -1.54452215E+01  7.72261074E+00  7.72261074E+00
 -1.54452215E+01  7.72261074E+00  7.72261074E+00 -1.54452215E+01  7.72261074E+00
  7.72261074E+00 -1.54452215E+01  7.72261074E+00  7.72261074E+00 -1.54452215E+01
  7.72261074E+00  7.72261074E+00 -1.54452215E+01  7.72261074E+00  7.72261074E+00
 -1.54452215E+01  7.72261074E+00  7.72261074E+00 -1.54452215E+01  7.72261074E+00
  7.72261074E+00 -1.54452215E+01  7.72261074E+00  7.72261074E+00 -1.54452215E+01
  7.72261074E+00  7.72261074E+00 -1.54452215E+01  7.72261074E+00  7.72261074E+00
 -1.54452215E+01  7.72261074E+00  7.72261074E+00 -1.54452215E+01  7.72261074E+00
  7.72261074E+00 -1.54452215E+01  7.72261074E+00  7.72261074E+00 -1.54452215E+01
  7.72261074E+00  7.72261074E+00 -1.54452215E+01  7.72261074E+00  7.72261074E+00
 -1.54452215E+01  7.72261074E+00  7.72261074E+00 -1.54452215E+01  7.72261074E+00
  7.72261074E+00 -1.54452215E+01  7.72261074E+00  7.72261074E+00 -1.54452215E+01
  7.72261074E+00  7.72261074E+00 -1.54452215E+01  7.72261074E+00  7.72261074E+00
 -1.54452215E+01  7.72261074E+00  7.72261074E+00 -1.54452215E+01  7.72261074E+00
  7.72261074E+00 -1.54452215E+01  7.72261074E+00  7.72261074E+00 -1.54452215E+01
  7.72261074E+00  7.72261074E+00 -1.54452215E+01  7.72261074E+00  7.72261074E+00
 -1.54452215E+01  7.72261074E+00  7.72261074E+00 -1.54452215E+01  7.72261074E+00
  7.72261074E+00 -1.54452215E+01  7.72261074E+00  7.72261074E+00 -1.54452215E+01
  7.72261074E+00  7.72261074E+00 -1.54452215E+01  7.72261074E+00  7.72261074E+00
 -1.54452215E+01  7.72261074E+00  7.72261074E+00 -1.54452215E+01  7.72261074E+00
  7.72261074E+00 -1.54452215E+01  7.72261074E+00  7.72261074E+00 -1.54452215E+01
  7.72261074E+00  7.72261074E+00 -1.54452215E+01  7.72261074E+00  7.72261074E+00
 -1.54452215E+01  7.72261074E+00  7.72261074E+00 -1.54452215E+01  7.72261074E+00
  7.72261074E+00 -1.54452215E+01  7.72261074E+00  7.72261074E+00 -1.54452215E+01
  7.72261074E+00  7.72261074E+00 -1.54452215E+01  7.72261074E+00  7.72261074E+00
 -1.54452215E+01  7.72261074E+00  7.72261074E+00 -1.54452215E+01  7.72261074E+00
  7.72261074E+00 -1.54452215E+01  7.72261074E+00  7.72261074E+00 -1.54452215E+01
  7.72261074E+00  7.72261074E+00 -1.54452215E+01  7.72261074E+00  7.72261074E+00
 -1.54452215E+01  7.72261074E+00  7.72261074E+00 -1.54452215E+01  7.72261074E+00
  7.72261074E+00 -1.54452215E+01  7.72261074E+00  7.72261074E+00 -1.54452215E+01
  7.72261074E+00  7.72261074E+00 -1.54452215E+01  7.72261074E+00  7.72261074E+00
 -1.54452215E+01  7.72261074E+00  7.72261074E+00 -1.54452215E+01  7.72261074E+00
  7.72261074E+00 -1.54452215E+01  7.72261074E+00  7.72261074E+00 -1.54452215E+01
  7.72261074E+00  7.72261074E+00 -1.54452215E+01  7.72261074E+00  7.72261074E+00
 -1.54452215E+01  7.72261074E+00  7.72261074E+00 -1.54452215E+01  7.72261074E+00
  7.72261074E+00 -1.54452215E+01  7.72261074E+00  7.72261074E+00 -1.54452215E+01
  7.72261074E+00  7.72261074E+00 -1.54452215E+01  7.72261074E+00  7.72261074E+00
 -1.54452215E+01  7.72261074E+00  7.72261074E+00 -1.54452215E+01  7.72261074E+00
  7.72261074E+00 -1.54452215E+01  7.72261074E+00  7.72261074E+00 -1.54452215E+01
  7.72261074E+00  7.72261074E+00 -1.54452215E+01  7.72261074E+00  7.72261074E+00
 -1.54452215E+01  7.72261074E+00  7.72261074E+00 -1.54452215E+01  7.72261074E+00
  7.72261074E+00 -1.54452215E+01  7.72261074E+00  7.72261074E+00 -1.54452215E+01
  7.72261074E+00  7.72261074E+00 -1.54452215E+01  7.72261074E+00  7.72261074E+00
 -1.54452215E+01  7.72261074E+00  7.72261074E+00 -1.54452215E+01  7.72261074E+00
  7.72261074E+00 -1.54452215E+01  7.72261074E+00  7.72261074E+00 -1.54452215E+01
  7.72261074E+00  7.72261074E+00 -1.54452215E+01  7.72261074E+00  7.72261074E+00
 -1.54452215E+01  7.72261074E+00  7.72261074E+00 -1.54452215E+01  7.72261074E+00
  7.72261074E+00 -1.54452215E+01  7.72261074E+00  7.72261074E+00 -1.54452215E+01
  7.72261074E+00  7.72261074E+00 -1.54452215E+01  7.72261074E+00  7.72261074E+00
 -1.54452215E+01  7.72261074E+00  7.72261074E+00 -1.54452215E+01  7.72261074E+00
  7.72261074E+00 -1.54452215E+01  7.72261074E+00  7.72261074E+00 -1.54452215E+01
  7.72261074E+00  7.72261074E+00 -1.54452215E+01  7.72261074E+00  7.72261074E+00
 -1.54452215E+01  7.72261074E+00  7.72261074E+00 -1.54452215E+01  7.72261074E+00
  7.72261074E+00 -1.54452215E+01  7.72261074E+00  7.72261074E+00 -1.54452215E+01
  7.72261074E+00  7.72261074E+00 -1.54452215E+01  7.72261074E+00  7.72261074E+00
 -1.54452215E+01  7.72261074E+00  7.72261074E+00 -1.54452215E+01  7.72261074E+00
  7.72261074E+00 -1.54452215E+01  7.72261074E+00  7.72261074E+00 -1.54452215E+01
  7.72261074E+00  7.72261074E+00 -1.54452215E+01  7.72261074E+00  7.72261074E+00
 -1.54452215E+01  7.72261074E+00  7.72261074E+00 -1.54452215E+01  7.72261074E+00
  7.72261074E+00 -1.54452215E+01  7.72261074E+00  7.72261074E+00 -1.54452215E+01
  7.72261074E+00  7.72261074E+00 -1.54452215E+01  7.72261074E+00  7.72261074E+00
 -1.54452215E+01  7.72261074E+00  7.72261074E+00 -1.54452215E+01  7.72261074E+00
  7.72261074E+00 -1.54452215E+01  7.72261074E+00  7.72261074E+00 -1.54452215E+01
  7.72261074E+00  7.72261074E+00 -1.54452215E+01  7.72261074E+00  7.72261074E+00
 -1.54452215E+01  7.72261074E+00  7.72261074E+00 -1.54452215E+01  7.72261074E+00
  7.72261074E+00 -1.54452215E+01  7.72261074E+00  7.72261074E+00 -1.54452215E+01
  7.72261074E+00  7.72261074E+00 -1.54452215E+01  7.72261074E+00  7.72261074E+00
 -1.54452215E+01  7.72261074E+00  7.72261074E+00 -1.54452215E+01  7.72261074E+00
  7.72261074E+00 -1.54452215E+01  7.72261074E+00  7.72261074E+00 -1.54452215E+01
  7.72261074E+00  7.72261074E+00 -1.54452215E+01  7.72261074E+00  7.72261074E+00
 -1.54452215E+01  7.72261074E+00  7.72261074E+00 -1.54452215E+01  7.72261074E+00
  7.72261074E+00 -1.54452215E+01  7.72261074E+00  7.72261074E+00 -1.54452215E+01
  7.72261074E+00  7.72261074E+00 -1.54452215E+01  7.72261074E+00  7.72261074E+00
 -1.54452215E+01  7.72261074E+00  7.72261074E+00 -1.54452215E+01  7.72261074E+00
  7.72261074E+00 -1.54452215E+01  7.72261074E+00  7.72261074E+00 -1.54452215E+01
  7.72261074E+00  7.72261074E+00 -1.54452215E+01  7.72261074E+00  7.72261074E+00
 -1.54452215E+01  7.72261074E+00  7.72261074E+00 -1.54452215E+01  7.72261074E+00
  7.72261074E+00 -1.54452215E+01  7.72261074E+00  7.72261074E+00 -1.54452215E+01
  7.72261074E+00  7.72261074E+00 -1.54452215E+01  7.72261074E+00  7.72261074E+00
 -1.54452215E+01  7.72261074E+00  7.72261074E+00 -1.54452215E+01  7.72261074E+00
  7.72261074E+00 -1.54452215E+01  7.72261074E+00  7.72261074E+00 -1.54452215E+01
  7.72261074E+00  7.72261074E+00 -1.54452215E+01  7.72261074E+00  7.72261074E+00
 -1.54452215E+01  7.72261074E+00  7.72261074E+00 -1.54452215E+01  7.72261074E+00
  7.72261074E+00 -1.54452215E+01  7.72261074E+00  7.72261074E+00 -1.54452215E+01
  7.72261074E+00  7.72261074E+00 -1.54452215E+01  7.72261074E+00  7.72261074E+00
 -1.54452215E+01  7.72261074E+00  7.72261074E+00 -1.54452215E+01  7.72261074E+00
  7.72261074E+00 -1.54452215E+01  7.72261074E+00  7.72261074E+00 -1.54452215E+01
  7.72261074E+00  7.72261074E+00 -1.54452215E+01  7.72261074E+00  7.72261074E+00
 -1.54452215E+01  7.72261074E+00  7.72261074E+00 -1.54452215E+01  7.72261074E+00
  7.72261074E+00 -1.54452215E+01  7.72261074E+00  7.72261074E+00 -1.54452215E+01
  7.72261074E+00  7.72261074E+00 -1.54452215E+01  7.72261074E+00  7.72261074E+00
 -1.54452215E+01  7.72261074E+00  7.72261074E+00 -1.54452215E+01  7.72261074E+00
  7.72261074E+00 -1.54452215E+01  7.72261074E+00  7.72261074E+00 -1.54452215E+01
  7.72261074E+00  7.72261074E+00 -1.54452215E+01  7.72261074E+00  7.72261074E+00
 -1.54452215E+01  7.72261074E+00  7.72261074E+00 -1.54452215E+01  7.72261074E+00
  7.72261074E+00 -1.54452215E+01  7.72261074E+00  7.72261074E+00 -1.54452215E+01
  7.72261074E+00  7.72261074E+00 -1.54452215E+01  7.72261074E+00  7.72261074E+00
 -1.54452215E+01  7.72261074E+00  7.72261074E+00 -1.54452215E+01  7.72261074E+00
  7.72261074E+00 -1.54452215E+01  7.72261074E+00  7.72261074E+00 -1.54452215E+01
  7.72261074E+00  7.72261074E+00 -1.54452215E+01  7.72261074E+00  7.72261074E+00
 -1.54452215E+01  7.72261074E+00  7.72261074E+00 -1.54452215E+01  7.72261074E+00
  7.72261074E+00 -1.54452215E+01  7.72261074E+00  7.72261074E+00 -1.54452215E+01
  7.72261074E+00  7.72261074E+00 -1.54452215E+01  7.72261074E+00  7.72261074E+00
 -1.54452215E+01  7.72261074E+00  7.72261074E+00 -1.54452215E+01  7.72261074E+00
  7.72261074E+00 -1.54452215E+01  7.72261074E+00  7.72261074E+00 -1.54452215E+01
  7.72261074E+00  7.72261074E+00 -1.54452215E+01  7.72261074E+00  7.72261074E+00
 -1.54452215E+01  7.72261074E+00  7.72261074E+00 -1.54452215E+01  7.72261074E+00
  7.72261074E+00 -1.54452215E+01  7.72261074E+00  7.72261074E+00 -1.54452215E+01
  7.72261074E+00  7.72261074E+00 -1.54452215E+01  7.72261074E+00  7.72261074E+00
 -1.54452215E+01  7.72261074E+00  7.72261074E+00 -1.54452215E+01  7.72261074E+00
  7.72261074E+00 -1.54452215E+01  7.72261074E+00  7.72261074E+00 -1.54452215E+01
  7.72261074E+00  7.72261074E+00 -1.54452215E+01  7.72261074E+00  7.72261074E+00
 -1.54452215E+01  7.72261074E+00  7.72261074E+00 -1.54452215E+01  7.72261074E+00
  7.72261074E+00 -1.54452215E+01  7.72261074E+00  7.72261074E+00 -1.54452215E+01
  7.72261074E+00  7.72261074E+00 -1.54452215E+01  7.72261074E+00  7.72261074E+00
 -1.54452215E+01  7.72261074E+00  7.72261074E+00 -1.54452215E+01  7.72261074E+00
  7.72261074E+00 -1.54452215E+01  7.72261074E+00  7.72261074E+00 -1.54452215E+01
  7.72261074E+00  7.72261074E+00 -1.54452215E+01  7.72261074E+00  7.72261074E+00
 -1.54452215E+01  7.72261074E+00  7.72261074E+00 -1.54452215E+01  7.72261074E+00
  7.72261074E+00 -1.54452215E+01  7.72261074E+00  7.72261074E+00 -1.54452215E+01
  7.72261074E+00  7.72261074E+00 -1.54452215E+01  7.72261074E+00  7.72261074E+00
 -1.54452215E+01  7.72261074E+00  7.72261074E+00 -1.54452215E+01  7.72261074E+00
  7.72261074E+00 -1.54452215E+01  7.72261074E+00  7.72261074E+00 -1.54452215E+01
  7.72261074E+00  7.72261074E+00 -1.54452215E+01  7.72261074E+00  7.72261074E+00
 -1.54452215E+01  7.72261074E+00  7.72261074E+00 -1.54452215E+01  7.72261074E+00
  7.72261074E+00 -1.54452215E+01  7.72261074E+00  7.72261074E+00 -1.54452215E+01
  7.72261074E+00  7.72261074E+00 -1.54452215E+01  7.72261074E+00  7.72261074E+00
 -1.54452215E+01  7.72261074E+00  7.72261074E+00 -1.54452215E+01  7.72261074E+00
  7.72261074E+00 -1.54452215E+01  7.72261074E+00  7.72261074E+00 -1.54452215E+01
  7.72261074E+00  7.72261074E+00 -1.54452215E+01  7.72261074E+00  7.72261074E+00
 -1.54452215E+01  7.72261074E+00  7.72261074E+00 -1.54452215E+01  7.72261074E+00
  7.72261074E+00 -1.54452215E+01  7.72261074E+00  7.72261074E+00 -1.54452215E+01
  7.72261074E+00  7.72261074E+00 -1.54452215E+01  7.72261074E+00  7.72261074E+00
 -1.54452215E+01  7.72261074E+00  7.72261074E+00 -1.54452215E+01  7.72261074E+00
  7.72261074E+00 -1.54452215E+01  7.72261074E+00  7.72261074E+00 -1.54452215E+01
  7.72261074E+00  7.72261074E+00 -1.54452215E+01  7.72261074E+00  7.72261074E+00
 -1.54452215E+01  7.72261074E+00  7.72261074E+00 -1.54452215E+01  7.72261074E+00
  7.72261074E+00 -1.54452215E+01  7.72261074E+00  7.72261074E+00 -1.54452215E+01
  7.72261074E+00  7.72261074E+00 -1.54452215E+01  7.72261074E+00  7.72261074E+00
 -1.54452215E+01  7.72261074E+00  7.72261074E+00 -1.54452215E+01  7.72261074E+00
  7.72261074E+00 -1.54452215E+01  7.72261074E+00  7.72261074E+00 -1.54452215E+01
  7.72261074E+00  7.72261074E+00 -1.54452215E+01  7.72261074E+00  7.72261074E+00
 -1.54452215E+01  7.72261074E+00  7.72261074E+00 -1.54452215E+01  7.72261074E+00
  7.72261074E+00 -1.54452215E+01  7.72261074E+00  7.72261074E+00 -1.54452215E+01
  7.72261074E+00  7.72261074E+00 -1.54452215E+01  7.72261074E+00  7.72261074E+00
 -1.54452215E+01  7.72261074E+00  7.72261074E+00 -1.54452215E+01  7.72261074E+00
  7.72261074E+00 -1.54452215E+01  7.72261074E+00  7.72261074E+00 -1.54452215E+01
  7.72261074E+00  7.72261074E+00 -1.54452215E+01  7.72261074E+00  7.72261074E+00
 -1.54452215E+01  7.72261074E+00  7.72261074E+00 -1.54452215E+01  7.72261074E+00
  7.72261074E+00 -1.54452215E+01  7.72261074E+00  7.72261074E+00 -1.54452215E+01
  7.72261074E+00  7.72261074E+00 -1.54452215E+01  7.72261074E+00  7.72261074E+00
 -1.54452215E+01  7.72261074E+00  7.72261074E+00 -1.54452215E+01  7.72261074E+00
  7.72261074E+00 -1.54452215E+01  7.72261074E+00  7.72261074E+00 -1.54452215E+01
  7.72261074E+00  7.72261074E+00 -1.54452215E+01  7.72261074E+00  7.72261074E+00
 -1.54452215E+01  7.72261074E+00  7.72261074E+00 -1.54452215E+01  7.72261074E+00
  7.72261074E+00 -1.54452215E+01  7.72261074E+00  7.72261074E+00 -1.54452215E+01
  7.72261074E+00  7.72261074E+00 -1.54452215E+01  7.72261074E+00  7.72261074E+00
 -1.54452215E+01  7.72261074E+00  7.72261074E+00 -1.54452215E+01  7.72261074E+00
  7.72261074E+00 -1.54452215E+01  7.72261074E+00  7.72261074E+00 -1.54452215E+01
  7.72261074E+00  7.72261074E+00 -1.54452215E+01  7.72261074E+00  7.72261074E+00
 -1.54452215E+01  7.72261074E+00  7.72261074E+00 -1.54452215E+01  7.72261074E+00
  7.72261074E+00 -1.54452215E+01  7.72261074E+00  7.72261074E+00 -1.54452215E+01
  7.72261074E+00  7.72261074E+00 -1.54452215E+01  7.72261074E+00  7.72261074E+00
 -1.54452215E+01  7.72261074E+00  7.72261074E+00 -1.54452215E+01  7.72261074E+00
  7.72261074E+00 -1.54452215E+01  7.72261074E+00  7.72261074E+00 -1.54452215E+01
  7.72261074E+00  7.72261074E+00 -1.54452215E+01  7.72261074E+00  7.72261074E+00
 -1.54452215E+01  7.72261074E+00  7.72261074E+00 -1.54452215E+01  7.72261074E+00
  7.72261074E+00 -1.54452215E+01  7.72261074E+00  7.72261074E+00 -1.54452215E+01
  7.72261074E+00  7.72261074E+00 -1.54452215E+01  7.72261074E+00  7.72261074E+00
 -1.54452215E+01  7.72261074E+00  7.72261074E+00 -1.54452215E+01  7.72261074E+00
  7.72261074E+00 -1.54452215E+01  7.72261074E+00  7.72261074E+00 -1.54452215E+01
  7.72261074E+00  7.72261074E+00 -1.54452215E+01  7.72261074E+00  7.72261074E+00
 -1.54452215E+01  7.72261074E+00  7.72261074E+00 -1.54452215E+01  7.72261074E+00
  7.72261074E+00 -1.54452215E+01  7.72261074E+00  7.72261074E+00 -1.54452215E+01
  7.72261074E+00  7.72261074E+00 -1.54452215E+01  7.72261074E+00  7.72261074E+00
 -1.54452215E+01  7.72261074E+00  7.72261074E+00 -1.54452215E+01  7.72261074E+00
  7.72261074E+00 -1.54452215E+01  7.72261074E+00  7.72261074E+00 -1.54452215E+01
  7.72261074E+00  7.72261074E+00 -1.54452215E+01  7.72261074E+00  7.72261074E+00
 -1.54452215E+01  7.72261074E+00  7.72261074E+00 -1.54452215E+01  7.72261074E+00
  7.72261074E+00 -1.54452215E+01  7.72261074E+00  7.72261074E+00 -1.54452215E+01
  7.72261074E+00  7.72261074E+00 -1.54452215E+01  7.72261074E+00  7.72261074E+00
 -1.54452215E+01  7.72261074E+00  7.72261074E+00 -1.54452215E+01  7.72261074E+00
  7.72261074E+00 -1.54452215E+01  7.72261074E+00  7.72261074E+00 -1.54452215E+01
  7.72261074E+00  7.72261074E+00 -1.54452215E+01  7.72261074E+00  7.72261074E+00
 -1.54452215E+01  7.72261074E+00  7.72261074E+00 -1.54452215E+01  7.72261074E+00
  7.72261074E+00 -1.54452215E+01  7.72261074E+00  7.72261074E+00 -1.54452215E+01
  7.72261074E+00  7.72261074E+00 -1.54452215E+01  7.72261074E+00  7.72261074E+00
 -1.54452215E+01  7.72261074E+00  7.72261074E+00 -1.54452215E+01  7.72261074E+00
  7.72261074E+00 -1.54452215E+01  7.72261074E+00  7.72261074E+00 -1.54452215E+01
  7.72261074E+00  7.72261074E+00 -1.54452215E+01  7.72261074E+00  7.72261074E+00
 -1.54452215E+01  7.72261074E+00  7.72261074E+00 -1.54452215E+01  7.72261074E+00
  7.72261074E+00 -1.54452215E+01  7.72261074E+00  7.72261074E+00 -1.54452215E+01
  7.72261074E+00  7.72261074E+00 -1.54452215E+01  7.72261074E+00  7.72261074E+00
 -1.54452215E+01  7.72261074E+00  7.72261074E+00 -1.54452215E+01  7.72261074E+00
  7.72261074E+00 -1.54452215E+01  7.72261074E+00  7.72261074E+00 -1.54452215E+01
  7.72261074E+00  7.72261074E+00 -1.54452215E+01  7.72261074E+00  7.72261074E+00
 -1.54452215E+01  7.72261074E+00  7.72261074E+00 -1.54452215E+01  7.72261074E+00
  7.72261074E+00 -1.54452215E+01  7.72261074E+00  7.72261074E+00 -1.54452215E+01
  7.72261074E+00  7.72261074E+00 -1.54452215E+01  7.72261074E+00  7.72261074E+00
 -1.54452215E+01  7.72261074E+00  7.72261074E+00 -1.54452215E+01  7.72261074E+00
  7.72261074E+00 -1.54452215E+01  7.72261074E+00  7.72261074E+00 -1.54452215E+01
  7.72261074E+00  7.72261074E+00 -1.54452215E+01  7.72261074E+00  7.72261074E+00
 -1.54452215E+01  7.72261074E+00  7.72261074E+00 -1.54452215E+01  7.72261074E+00
  7.72261074E+00 -1.54452215E+01  7.72261074E+00  7.72261074E+00 -1.54452215E+01
  7.72261074E+00  7.72261074E+00 -1.54452215E+01  7.72261074E+00  7.72261074E+00
 -1.54452215E+01  7.72261074E+00  7.72261074E+00 -1.54452215E+01  7.72261074E+00
  7.72261074E+00 -1.54452215E+01  7.72261074E+00  7.72261074E+00 -1.54452215E+01
  7.72261074E+00  7.72261074E+00 -1.54452215E+01  7.72261074E+00  7.72261074E+00
 -1.54452215E+01  7.72261074E+00  7.72261074E+00 -1.54452215E+01  7.72261074E+00
  7.72261074E+00 -1.54452215E+01  7.72261074E+00  7.72261074E+00 -1.54452215E+01
  7.72261074E+00  7.72261074E+00 -1.54452215E+01  7.72261074E+00  7.72261074E+00
 -1.54452215E+01  7.72261074E+00  7.72261074E+00 -1.54452215E+01  7.72261074E+00
  7.72261074E+00 -1.54452215E+01  7.72261074E+00  7.72261074E+00 -1.54452215E+01
  7.72261074E+00  7.72261074E+00 -1.54452215E+01  7.72261074E+00  7.72261074E+00
 -1.54452215E+01  7.72261074E+00  7.72261074E+00 -1.54452215E+01  7.72261074E+00
  7.72261074E+00 -1.54452215E+01  7.72261074E+00  7.72261074E+00 -1.54452215E+01
  7.72261074E+00  7.72261074E+00 -1.54452215E+01  7.72261074E+00  7.72261074E+00
 -1.54452215E+01  7.72261074E+00  7.72261074E+00 -1.54452215E+01  7.72261074E+00
  7.72261074E+00 -1.54452215E+01  7.72261074E+00  7.72261074E+00 -1.54452215E+01
  7.72261074E+00  7.72261074E+00 -1.54452215E+01  7.72261074E+00  7.72261074E+00
 -1.54452215E+01  7.72261074E+00  7.72261074E+00 -1.54452215E+01  7.72261074E+00
  7.72261074E+00 -1.54452215E+01  7.72261074E+00  7.72261074E+00 -1.54452215E+01
  7.72261074E+00  7.72261074E+00 -1.54452215E+01  7.72261074E+00  7.72261074E+00
 -1.54452215E+01  7.72261074E+00  7.72261074E+00 -1.54452215E+01  7.72261074E+00
  7.72261074E+00 -1.54452215E+01  7.72261074E+00  7.72261074E+00 -1.54452215E+01
  7.72261074E+00  7.72261074E+00 -1.54452215E+01  7.72261074E+00  7.72261074E+00
 -1.54452215E+01  7.72261074E+00  7.72261074E+00 -1.54452215E+01  7.72261074E+00
  7.72261074E+00 -1.54452215E+01  7.72261074E+00  7.72261074E+00 -1.54452215E+01
  7.72261074E+00  7.72261074E+00 -1.54452215E+01  7.72261074E+00  7.72261074E+00
 -1.54452215E+01  7.72261074E+00  7.72261074E+00 -1.54452215E+01  7.72261074E+00
  7.72261074E+00 -1.54452215E+01  7.72261074E+00  7.72261074E+00 -1.54452215E+01
  7.72261074E+00  7.72261074E+00 -1.54452215E+01  7.72261074E+00  7.72261074E+00
 -1.54452215E+01  7.72261074E+00  7.72261074E+00 -1.54452215E+01  7.72261074E+00
  7.72261074E+00 -1.54452215E+01  7.72261074E+00  7.72261074E+00 -1.54452215E+01
  7.72261074E+00  7.72261074E+00 -1.54452215E+01  7.72261074E+00  7.72261074E+00
 -1.54452215E+01  7.72261074E+00  7.72261074E+00 -1.54452215E+01  7.72261074E+00
  7.72261074E+00 -1.54452215E+01  7.72261074E+00  7.72261074E+00 -1.54452215E+01
  7.72261074E+00  7.72261074E+00 -1.54452215E+01  7.72261074E+00  7.72261074E+00
 -1.54452215E+01  7.72261074E+00  7.72261074E+00 -1.54452215E+01  7.72261074E+00
  7.72261074E+00 -1.54452215E+01  7.72261074E+00  7.72261074E+00 -1.54452215E+01
  7.72261074E+00  7.72261074E+00 -1.54452215E+01  7.72261074E+00  7.72261074E+00
 -1.54452215E+01  7.72261074E+00  7.72261074E+00 -1.54452215E+01  7.72261074E+00
  7.72261074E+00 -1.54452215E+01  7.72261074E+00  7.72261074E+00 -1.54452215E+01
  7.72261074E+00  7.72261074E+00 -1.54452215E+01  7.72261074E+00  7.72261074E+00
 -1.54452215E+01  7.72261074E+00  7.72261074E+00 -1.54452215E+01  7.72261074E+00
  7.72261074E+00 -1.54452215E+01  7.72261074E+00  7.72261074E+00 -1.54452215E+01
  7.72261074E+00  7.72261074E+00 -1.54452215E+01  7.72261074E+00  7.72261074E+00
 -1.54452215E+01  7.72261074E+00  7.72261074E+00 -1.54452215E+01  7.72261074E+00
  7.72261074E+00 -1.54452215E+01  7.72261074E+00  7.72261074E+00 -1.54452215E+01
  7.72261074E+00  7.72261074E+00 -1.54452215E+01  7.72261074E+00  7.72261074E+00
 -1.54452215E+01  7.72261074E+00  7.72261074E+00 -1.54452215E+01  7.72261074E+00
  7.72261074E+00 -1.54452215E+01  7.72261074E+00  7.72261074E+00 -1.54452215E+01
  7.72261074E+00  7.72261074E+00 -1.54452215E+01  7.72261074E+00  7.72261074E+00
 -1.54452215E+01  7.72261074E+00  7.72261074E+00 -1.54452215E+01  7.72261074E+00
  7.72261074E+00 -1.54452215E+01  7.72261074E+00  7.72261074E+00 -1.54452215E+01
  7.72261074E+00  7.72261074E+00 -1.54452215E+01  7.72261074E+00  7.72261074E+00
 -1.54452215E+01  7.72261074E+00  7.72261074E+00 -1.54452215E+01  7.72261074E+00
  7.72261074E+00 -1.54452215E+01  7.72261074E+00  7.72261074E+00 -1.54452215E+01
  7.72261074E+00  7.72261074E+00 -1.54452215E+01  7.72261074E+00  7.72261074E+00
 -1.54452215E+01  7.72261074E+00  7.72261074E+00 -1.54452215E+01  7.72261074E+00
  7.72261074E+00 -1.54452215E+01  7.72261074E+00  7.72261074E+00 -1.54452215E+01
  7.72261074E+00  7.72261074E+00 -1.54452215E+01  7.72261074E+00  7.72261074E+00
 -1.54452215E+01  7.72261074E+00  7.72261074E+00 -1.54452215E+01  7.72261074E+00
  7.72261074E+00 -1.54452215E+01  7.72261074E+00  7.72261074E+00 -1.54452215E+01
  7.72261074E+00  7.72261074E+00 -1.54452215E+01  7.72261074E+00  7.72261074E+00
 -1.54452215E+01  7.72261074E+00  7.72261074E+00 -1.54452215E+01  7.72261074E+00
  7.72261074E+00 -1.54452215E+01  7.72261074E+00  7.72261074E+00 -1.54452215E+01
  7.72261074E+00  7.72261074E+00 -1.54452215E+01  7.72261074E+00  7.72261074E+00
 -1.54452215E+01  7.72261074E+00  7.72261074E+00 -1.54452215E+01  7.72261074E+00
  7.72261074E+00 -1.54452215E+01  7.72261074E+00  7.72261074E+00 -1.54452215E+01
  7.72261074E+00  7.72261074E+00 -1.54452215E+01  7.72261074E+00  7.72261074E+00
 -1.54452215E+01  7.72261074E+00  7.72261074E+00 -1.54452215E+01  7.72261074E+00
  7.72261074E+00 -1.54452215E+01  7.72261074E+00  7.72261074E+00 -1.54452215E+01
  7.72261074E+00  7.72261074E+00 -1.54452215E+01  7.72261074E+00  7.72261074E+00
 -1.54452215E+01  7.72261074E+00  7.72261074E+00 -1.54452215E+01  7.72261074E+00
  7.72261074E+00 -1.54452215E+01  7.72261074E+00  7.72261074E+00 -1.54452215E+01
  7.72261074E+00  7.72261074E+00 -1.54452215E+01  7.72261074E+00  7.72261074E+00
 -1.54452215E+01  7.72261074E+00  7.72261074E+00 -1.54452215E+01  7.72261074E+00
  7.72261074E+00 -1.54452215E+01  7.72261074E+00  7.72261074E+00 -1.54452215E+01
  7.72261074E+00  7.72261074E+00 -1.54452215E+01  7.72261074E+00  7.72261074E+00
 -1.54452215E+01  7.72261074E+00  7.72261074E+00 -1.54452215E+01  7.72261074E+00
  7.72261074E+00 -1.54452215E+01  7.72261074E+00  7.72261074E+00 -1.54452215E+01
  7.72261074E+00  7.72261074E+00 -1.54452215E+01  7.72261074E+00  7.72261074E+00
 -1.54452215E+01  7.72261074E+00  7.72261074E+00 -1.54452215E+01  7.72261074E+00
  7.72261074E+00 -1.54452215E+01  7.72261074E+00  7.72261074E+00 -1.54452215E+01
  7.72261074E+00  7.72261074E+00 -1.54452215E+01  7.72261074E+00  7.72261074E+00
 -1.54452215E+01  7.72261074E+00  7.72261074E+00 -1.54452215E+01  7.72261074E+00
  7.72261074E+00 -1.54452215E+01  7.72261074E+00  7.72261074E+00 -1.54452215E+01
  7.72261074E+00  7.72261074E+00 -1.54452215E+01  7.72261074E+00  7.72261074E+00
 -1.54452215E+01  7.72261074E+00  7.72261074E+00 -1.54452215E+01  7.72261074E+00
  7.72261074E+00 -1.54452215E+01  7.72261074E+00  7.72261074E+00 -1.54452215E+01
  7.72261074E+00  7.72261074E+00 -1.54452215E+01  7.72261074E+00  7.72261074E+00
 -1.54452215E+01  7.72261074E+00  7.72261074E+00 -1.54452215E+01  7.72261074E+00
  7.72261074E+00 -1.54452215E+01  7.72261074E+00  7.72261074E+00 -1.54452215E+01
  7.72261074E+00  7.72261074E+00 -1.54452215E+01  7.72261074E+00  7.72261074E+00
 -1.54452215E+01  7.72261074E+00  7.72261074E+00 -1.54452215E+01  7.72261074E+00
  7.72261074E+00 -1.54452215E+01  7.72261074E+00  7.72261074E+00 -1.54452215E+01
  7.72261074E+00  7.72261074E+00 -1.54452215E+01  7.72261074E+00  7.72261074E+00
 -1.54452215E+01  7.72261074E+00  7.72261074E+00 -1.54452215E+01  7.72261074E+00
  7.72261074E+00 -1.54452215E+01  7.72261074E+00  7.72261074E+00 -1.54452215E+01
  7.72261074E+00  7.72261074E+00 -1.54452215E+01  7.72261074E+00  7.72261074E+00
 -1.54452215E+01  7.72261074E+00  7.72261074E+00 -1.54452215E+01  7.72261074E+00
  7.72261074E+00 -1.54452215E+01  7.72261074E+00  7.72261074E+00 -1.54452215E+01
  7.72261074E+00  7.72261074E+00 -1.54452215E+01  7.72261074E+00  7.72261074E+00
 -1.54452215E+01  7.72261074E+00  7.72261074E+00 -1.54452215E+01  7.72261074E+00
  7.72261074E+00 -1.54452215E+01  7.72261074E+00  7.72261074E+00 -1.54452215E+01
  7.72261074E+00  7.72261074E+00 -1.54452215E+01  7.72261074E+00  7.72261074E+00
 -1.54452215E+01  7.72261074E+00  7.72261074E+00 -1.54452215E+01  7.72261074E+00
  7.72261074E+00 -1.54452215E+01  7.72261074E+00  7.72261074E+00 -1.54452215E+01
  7.72261074E+00  7.72261074E+00 -1.54452215E+01  7.72261074E+00  7.72261074E+00
 -1.54452215E+01  7.72261074E+00  7.72261074E+00 -1.54452215E+01  7.72261074E+00
  7.72261074E+00 -1.54452215E+01  7.72261074E+00  7.72261074E+00 -1.54452215E+01
  7.72261074E+00  7.72261074E+00 -1.54452215E+01  7.72261074E+00  7.72261074E+00
 -1.54452215E+01  7.72261074E+00  7.72261074E+00 -1.54452215E+01  7.72261074E+00
  7.72261074E+00 -1.54452215E+01  7.72261074E+00  7.72261074E+00 -1.54452215E+01
  7.72261074E+00  7.72261074E+00 -1.54452215E+01  7.72261074E+00  7.72261074E+00
 -1.54452215E+01  7.72261074E+00  7.72261074E+00 -1.54452215E+01  7.72261074E+00
  7.72261074E+00 -1.54452215E+01  7.72261074E+00  7.72261074E+00 -1.54452215E+01
  7.72261074E+00  7.72261074E+00 -1.54452215E+01  7.72261074E+00  7.72261074E+00
 -1.54452215E+01  7.72261074E+00  7.72261074E+00 -1.54452215E+01  7.72261074E+00
  7.72261074E+00 -1.54452215E+01  7.72261074E+00  7.72261074E+00 -1.54452215E+01
  7.72261074E+00  7.72261074E+00 -1.54452215E+01  7.72261074E+00  7.72261074E+00
 -1.54452215E+01  7.72261074E+00  7.72261074E+00 -1.54452215E+01  7.72261074E+00
  7.72261074E+00 -1.54452215E+01  7.72261074E+00  7.72261074E+00 -1.54452215E+01
  7.72261074E+00  7.72261074E+00 -1.54452215E+01  7.72261074E+00  7.72261074E+00
 -1.54452215E+01  7.72261074E+00  7.72261074E+00 -1.54452215E+01  7.72261074E+00
  7.72261074E+00 -1.54452215E+01  7.72261074E+00  7.72261074E+00 -1.54452215E+01
  7.72261074E+00  7.72261074E+00 -1.54452215E+01  7.72261074E+00  7.72261074E+00
 -1.54452215E+01  7.72261074E+00  7.72261074E+00 -1.54452215E+01  7.72261074E+00
  7.72261074E+00 -1.54452215E+01  7.72261074E+00  7.72261074E+00 -1.54452215E+01
  7.72261074E+00  7.72261074E+00 -1.54452215E+01  7.72261074E+00  7.72261074E+00
 -1.54452215E+01  7.72261074E+00  7.72261074E+00 -1.54452215E+01  7.72261074E+00
  7.72261074E+00 -1.54452215E+01  7.72261074E+00  7.72261074E+00 -1.54452215E+01
  7.72261074E+00  7.72261074E+00 -1.54452215E+01  7.72261074E+00  7.72261074E+00
 -1.54452215E+01  7.72261074E+00  7.72261074E+00 -1.54452215E+01  7.72261074E+00
  7.72261074E+00 -1.54452215E+01  7.72261074E+00  7.72261074E+00 -1.54452215E+01
  7.72261074E+00  7.72261074E+00 -1.54452215E+01  7.72261074E+00  7.72261074E+00
 -1.54452215E+01  7.72261074E+00  7.72261074E+00 -1.54452215E+01  7.72261074E+00
  7.72261074E+00 -1.54452215E+01  7.72261074E+00  7.72261074E+00 -1.54452215E+01
  7.72261074E+00  7.72261074E+00 -1.54452215E+01  7.72261074E+00  7.72261074E+00
 -1.54452215E+01  7.72261074E+00  7.72261074E+00 -1.54452215E+01  7.72261074E+00
  7.72261074E+00 -1.54452215E+01  7.72261074E+00  7.72261074E+00 -1.54452215E+01
  7.72261074E+00  7.72261074E+00 -1.54452215E+01  7.72261074E+00  7.72261074E+00
 -1.54452215E+01  7.72261074E+00  7.72261074E+00 -1.54452215E+01  7.72261074E+00
  7.72261074E+00 -1.54452215E+01  7.72261074E+00  7.72261074E+00 -1.54452215E+01
  7.72261074E+00  7.72261074E+00 -1.54452215E+01  7.72261074E+00  7.72261074E+00
 -1.54452215E+01  7.72261074E+00  7.72261074E+00 -1.54452215E+01  7.72261074E+00
  7.72261074E+00 -1.54452215E+01  7.72261074E+00  7.72261074E+00 -1.54452215E+01
  7.72261074E+00  7.72261074E+00 -1.54452215E+01  7.72261074E+00  7.72261074E+00
 -1.54452215E+01  7.72261074E+00  7.72261074E+00 -1.54452215E+01  7.72261074E+00
  7.72261074E+00 -1.54452215E+01  7.72261074E+00  7.72261074E+00 -1.54452215E+01
  7.72261074E+00  7.72261074E+00 -1.54452215E+01  7.72261074E+00  7.72261074E+00
 -1.54452215E+01  7.72261074E+00  7.72261074E+00 -1.54452215E+01  7.72261074E+00
  7.72261074E+00 -1.54452215E+01  7.72261074E+00  7.72261074E+00 -1.54452215E+01
  7.72261074E+00  7.72261074E+00 -1.54452215E+01  7.72261074E+00  7.72261074E+00
 -1.54452215E+01  7.72261074E+00  7.72261074E+00 -1.54452215E+01  7.72261074E+00
  7.72261074E+00 -1.54452215E+01  7.72261074E+00  7.72261074E+00 -1.54452215E+01
  7.72261074E+00  7.72261074E+00 -1.54452215E+01  7.72261074E+00  7.72261074E+00
 -1.54452215E+01  7.72261074E+00  7.72261074E+00 -1.54452215E+01  7.72261074E+00
  7.72261074E+00 -1.54452215E+01  7.72261074E+00  7.72261074E+00 -1.54452215E+01
  7.72261074E+00  7.72261074E+00 -1.54452215E+01  7.72261074E+00  7.72261074E+00
 -1.54452215E+01  7.72261074E+00  7.72261074E+00 -1.54452215E+01  7.72261074E+00
  7.72261074E+00 -1.54452215E+01  7.72261074E+00  7.72261074E+00 -1.54452215E+01
  7.72261074E+00  7.72261074E+00 -1.54452215E+01  7.72261074E+00  7.72261074E+00
 -1.54452215E+01  7.72261074E+00  7.72261074E+00 -1.54452215E+01  7.72261074E+00
  7.72261074E+00 -1.54452215E+01  7.72261074E+00  7.72261074E+00 -1.54452215E+01
  7.72261074E+00  7.72261074E+00 -1.54452215E+01  7.72261074E+00  7.72261074E+00
 -1.54452215E+01  7.72261074E+00  7.72261074E+00 -1.54452215E+01  7.72261074E+00
  7.72261074E+00 -1.54452215E+01  7.72261074E+00  7.72261074E+00 -1.54452215E+01
  7.72261074E+00  7.72261074E+00 -1.54452215E+01  7.72261074E+00  7.72261074E+00
 -1.54452215E+01  7.72261074E+00  7.72261074E+00 -1.54452215E+01  7.72261074E+00
  7.72261074E+00 -1.54452215E+01  7.72261074E+00  7.72261074E+00 -1.54452215E+01
  7.72261074E+00  7.72261074E+00 -1.54452215E+01  7.72261074E+00  7.72261074E+00
 -1.54452215E+01  7.72261074E+00  7.72261074E+00 -1.54452215E+01  7.72261074E+00
  7.72261074E+00 -1.54452215E+01  7.72261074E+00  7.72261074E+00 -1.54452215E+01
  7.72261074E+00  7.72261074E+00 -1.54452215E+01  7.72261074E+00  7.72261074E+00
 -1.54452215E+01  7.72261074E+00  7.72261074E+00 -1.54452215E+01  7.72261074E+00
  7.72261074E+00 -1.54452215E+01  7.72261074E+00  7.72261074E+00 -1.54452215E+01
  7.72261074E+00  7.72261074E+00 -1.54452215E+01  7.72261074E+00  7.72261074E+00
 -1.54452215E+01  7.72261074E+00  7.72261074E+00 -1.54452215E+01  7.72261074E+00
  7.72261074E+00 -1.54452215E+01  7.72261074E+00  7.72261074E+00 -1.54452215E+01
  7.72261074E+00  7.72261074E+00 -1.54452215E+01  7.72261074E+00  7.72261074E+00
 -1.54452215E+01  7.72261074E+00  7.72261074E+00 -1.54452215E+01  7.72261074E+00
  7.72261074E+00 -1.54452215E+01  7.72261074E+00  7.72261074E+00 -1.54452215E+01
  7.72261074E+00  7.72261074E+00 -1.54452215E+01  7.72261074E+00  7.72261074E+00
 -1.54452215E+01  7.72261074E+00  7.72261074E+00 -1.54452215E+01  7.72261074E+00
  7.72261074E+00 -1.54452215E+01  7.72261074E+00  7.72261074E+00 -1.54452215E+01
  7.72261074E+00  7.72261074E+00 -1.54452215E+01  7.72261074E+00  7.72261074E+00
 -1.54452215E+01  7.72261074E+00  7.72261074E+00 -1.54452215E+01  7.72261074E+00
  7.72261074E+00 -1.54452215E+01  7.72261074E+00  7.72261074E+00 -1.54452215E+01
  7.72261074E+00  7.72261074E+00 -1.54452215E+01  7.72261074E+00  7.72261074E+00
 -1.54452215E+01  7.72261074E+00  7.72261074E+00 -1.54452215E+01  7.72261074E+00
  7.72261074E+00 -1.54452215E+01  7.72261074E+00  7.72261074E+00 -1.54452215E+01
  7.72261074E+00  7.72261074E+00 -1.54452215E+01  7.72261074E+00  7.72261074E+00
 -1.54452215E+01  7.72261074E+00  7.72261074E+00 -1.54452215E+01  7.72261074E+00
  7.72261074E+00 -1.54452215E+01  7.72261074E+00  7.72261074E+00 -1.54452215E+01
  7.72261074E+00  7.72261074E+00 -1.54452215E+01  7.72261074E+00  7.72261074E+00
 -1.54452215E+01  7.72261074E+00  7.72261074E+00 -1.54452215E+01  7.72261074E+00
  7.72261074E+00 -1.54452215E+01  7.72261074E+00  7.72261074E+00 -1.54452215E+01
  7.72261074E+00  7.72261074E+00 -1.54452215E+01  7.72261074E+00  7.72261074E+00
 -1.54452215E+01  7.72261074E+00  7.72261074E+00 -1.54452215E+01  7.72261074E+00
  7.72261074E+00 -1.54452215E+01  7.72261074E+00  7.72261074E+00 -1.54452215E+01
  7.72261074E+00  7.72261074E+00 -1.54452215E+01  7.72261074E+00  7.72261074E+00
 -1.54452215E+01  7.72261074E+00  7.72261074E+00 -1.54452215E+01  7.72261074E+00
  7.72261074E+00 -1.54452215E+01  7.72261074E+00  7.72261074E+00 -1.54452215E+01
  7.72261074E+00  7.72261074E+00 -1.54452215E+01  7.72261074E+00  7.72261074E+00
 -1.54452215E+01  7.72261074E+00  7.72261074E+00 -1.54452215E+01  7.72261074E+00
  7.72261074E+00 -1.54452215E+01  7.72261074E+00  7.72261074E+00 -1.54452215E+01
  7.72261074E+00  7.72261074E+00 -1.54452215E+01  7.72261074E+00  7.72261074E+00
 -1.54452215E+01  7.72261074E+00  7.72261074E+00 -1.54452215E+01  7.72261074E+00
  7.72261074E+00 -1.54452215E+01  7.72261074E+00  7.72261074E+00 -1.54452215E+01
  7.72261074E+00  7.72261074E+00 -1.54452215E+01  7.72261074E+00  7.72261074E+00
 -1.54452215E+01  7.72261074E+00  7.72261074E+00 -1.54452215E+01  7.72261074E+00
  7.72261074E+00 -1.54452215E+01  7.72261074E+00  7.72261074E+00 -1.54452215E+01
  7.72261074E+00  7.72261074E+00 -1.54452215E+01  7.72261074E+00  7.72261074E+00
 -1.54452215E+01  7.72261074E+00  7.72261074E+00 -1.54452215E+01  7.72261074E+00
  7.72261074E+00 -1.54452215E+01  7.72261074E+00  7.72261074E+00 -1.54452215E+01
  7.72261074E+00  7.72261074E+00 -1.54452215E+01  7.72261074E+00  7.72261074E+00
 -1.54452215E+01  7.72261074E+00  7.72261074E+00 -1.54452215E+01  7.72261074E+00
  7.72261074E+00 -1.54452215E+01  7.72261074E+00  7.72261074E+00 -1.54452215E+01
  7.72261074E+00  7.72261074E+00 -1.54452215E+01  7.72261074E+00  7.72261074E+00
 -1.54452215E+01  7.72261074E+00  7.72261074E+00 -1.54452215E+01  7.72261074E+00
  7.72261074E+00 -1.54452215E+01  7.72261074E+00  7.72261074E+00 -1.54452215E+01
  7.72261074E+00  7.72261074E+00 -1.54452215E+01  7.72261074E+00  7.72261074E+00
 -1.54452215E+01  7.72261074E+00  7.72261074E+00 -1.54452215E+01  7.72261074E+00
  7.72261074E+00 -1.54452215E+01  7.72261074E+00  7.72261074E+00 -1.54452215E+01
  7.72261074E+00  7.72261074E+00 -1.54452215E+01  7.72261074E+00  7.72261074E+00
 -1.54452215E+01  7.72261074E+00  7.72261074E+00 -1.54452215E+01  7.72261074E+00
  7.72261074E+00 -1.54452215E+01  7.72261074E+00  7.72261074E+00 -1.54452215E+01
  7.72261074E+00  7.72261074E+00 -1.54452215E+01  7.72261074E+00  7.72261074E+00
 -1.54452215E+01  7.72261074E+00  7.72261074E+00 -1.54452215E+01  7.72261074E+00
  7.72261074E+00 -1.54452215E+01  7.72261074E+00  7.72261074E+00 -1.54452215E+01
  7.72261074E+00  7.72261074E+00 -1.54452215E+01  7.72261074E+00  7.72261074E+00
 -1.54452215E+01  7.72261074E+00  7.72261074E+00 -1.54452215E+01  7.72261074E+00
  7.72261074E+00 -1.54452215E+01  7.72261074E+00  7.72261074E+00 -1.54452215E+01
  7.72261074E+00  7.72261074E+00 -1.54452215E+01  7.72261074E+00  7.72261074E+00
 -1.54452215E+01  7.72261074E+00  7.72261074E+00 -1.54452215E+01  7.72261074E+00
  7.72261074E+00 -1.54452215E+01  7.72261074E+00  7.72261074E+00 -1.54452215E+01
  7.72261074E+00  7.72261074E+00 -1.54452215E+01  7.72261074E+00  7.72261074E+00
 -1.54452215E+01  7.72261074E+00  7.72261074E+00 -1.54452215E+01  7.72261074E+00
  7.72261074E+00 -1.54452215E+01  7.72261074E+00  7.72261074E+00 -1.54452215E+01
  7.72261074E+00  7.72261074E+00 -1.54452215E+01  7.72261074E+00  7.72261074E+00
 -1.54452215E+01  7.72261074E+00  7.72261074E+00 -1.54452215E+01  7.72261074E+00
  7.72261074E+00 -1.54452215E+01  7.72261074E+00  7.72261074E+00 -1.54452215E+01
  7.72261074E+00  7.72261074E+00 -1.54452215E+01  7.72261074E+00  7.72261074E+00
 -1.54452215E+01  7.72261074E+00  7.72261074E+00 -1.54452215E+01  7.72261074E+00
  7.72261074E+00 -1.54452215E+01  7.72261074E+00  7.72261074E+00 -1.54452215E+01
  7.72261074E+00  7.72261074E+00 -1.54452215E+01  7.72261074E+00  7.72261074E+00
 -1.54452215E+01  7.72261074E+00  7.72261074E+00 -1.54452215E+01  7.72261074E+00
  7.72261074E+00 -1.54452215E+01  7.72261074E+00  7.72261074E+00 -1.54452215E+01
  7.72261074E+00  7.72261074E+00 -1.54452215E+01  7.72261074E+00  7.72261074E+00
 -1.54452215E+01  7.72261074E+00  7.72261074E+00 -1.54452215E+01  7.72261074E+00
  7.72261074E+00 -1.54452215E+01  7.72261074E+00  7.72261074E+00 -1.54452215E+01
  7.72261074E+00  7.72261074E+00 -1.54452215E+01  7.72261074E+00  7.72261074E+00
 -1.54452215E+01  7.72261074E+00  7.72261074E+00 -1.54452215E+01  7.72261074E+00
  7.72261074E+00 -1.54452215E+01  7.72261074E+00  7.72261074E+00 -1.54452215E+01
  7.72261074E+00  7.72261074E+00 -1.54452215E+01  7.72261074E+00  7.72261074E+00
 -1.54452215E+01  7.72261074E+00  7.72261074E+00 -1.54452215E+01  7.72261074E+00
  7.72261074E+00 -1.54452215E+01  7.72261074E+00  7.72261074E+00 -1.54452215E+01
  7.72261074E+00  7.72261074E+00 -1.54452215E+01  7.72261074E+00  7.72261074E+00
 -1.54452215E+01  7.72261074E+00  7.72261074E+00 -1.54452215E+01  7.72261074E+00
  7.72261074E+00 -1.54452215E+01  7.72261074E+00  7.72261074E+00 -1.54452215E+01
  7.72261074E+00  7.72261074E+00 -1.54452215E+01  7.72261074E+00  7.72261074E+00
 -1.54452215E+01  7.72261074E+00  7.72261074E+00 -1.54452215E+01  7.72261074E+00
  7.72261074E+00 -1.54452215E+01  7.72261074E+00  7.72261074E+00 -1.54452215E+01
  7.72261074E+00  7.72261074E+00 -1.54452215E+01  7.72261074E+00  7.72261074E+00
 -1.54452215E+01  7.72261074E+00  7.72261074E+00 -1.54452215E+01  7.72261074E+00
  7.72261074E+00 -1.54452215E+01  7.72261074E+00  7.72261074E+00 -1.54452215E+01
  7.72261074E+00  7.72261074E+00 -1.54452215E+01  7.72261074E+00  7.72261074E+00
 -1.54452215E+01  7.72261074E+00  7.72261074E+00 -1.54452215E+01  7.72261074E+00
  7.72261074E+00 -1.54452215E+01  7.72261074E+00  7.72261074E+00 -1.54452215E+01
  7.72261074E+00  7.72261074E+00 -1.54452215E+01  7.72261074E+00  7.72261074E+00
 -1.54452215E+01  7.72261074E+00  7.72261074E+00 -1.54452215E+01  7.72261074E+00
  7.72261074E+00 -1.54452215E+01  7.72261074E+00  7.72261074E+00 -1.54452215E+01
  7.72261074E+00  7.72261074E+00 -1.54452215E+01  7.72261074E+00  7.72261074E+00
 -1.54452215E+01  7.72261074E+00  7.72261074E+00 -1.54452215E+01  7.72261074E+00
  7.72261074E+00 -1.54452215E+01  7.72261074E+00  7.72261074E+00 -1.54452215E+01
  7.72261074E+00  7.72261074E+00 -1.54452215E+01  7.72261074E+00  7.72261074E+00
 -1.54452215E+01  7.72261074E+00  7.72261074E+00 -1.54452215E+01  7.72261074E+00
  7.72261074E+00 -1.54452215E+01  7.72261074E+00  7.72261074E+00 -1.54452215E+01
  7.72261074E+00  7.72261074E+00 -1.54452215E+01  7.72261074E+00  7.72261074E+00
 -1.54452215E+01  7.72261074E+00  7.72261074E+00 -1.54452215E+01  7.72261074E+00
  7.72261074E+00 -1.54452215E+01  7.72261074E+00  7.72261074E+00 -1.54452215E+01
  7.72261074E+00  7.72261074E+00 -1.54452215E+01  7.72261074E+00  7.72261074E+00
 -1.54452215E+01  7.72261074E+00  7.72261074E+00 -1.54452215E+01  7.72261074E+00
  7.72261074E+00 -1.54452215E+01  7.72261074E+00  7.72261074E+00 -1.54452215E+01
  7.72261074E+00  7.72261074E+00 -1.54452215E+01  7.72261074E+00  7.72261074E+00
 -1.54452215E+01  7.72261074E+00  7.72261074E+00 -1.54452215E+01  7.72261074E+00
  7.72261074E+00 -1.54452215E+01  7.72261074E+00  7.72261074E+00 -1.54452215E+01
  7.72261074E+00  7.72261074E+00 -1.54452215E+01  7.72261074E+00  7.72261074E+00
 -1.54452215E+01  7.72261074E+00  7.72261074E+00 -1.54452215E+01  7.72261074E+00
  7.72261074E+00 -1.54452215E+01  7.72261074E+00  7.72261074E+00 -1.54452215E+01
  7.72261074E+00  7.72261074E+00 -1.54452215E+01  7.72261074E+00  7.72261074E+00
 -1.54452215E+01  7.72261074E+00  7.72261074E+00 -1.54452215E+01  7.72261074E+00
  7.72261074E+00 -1.54452215E+01  7.72261074E+00  7.72261074E+00 -1.54452215E+01
  7.72261074E+00  7.72261074E+00 -1.54452215E+01  7.72261074E+00  7.72261074E+00
 -1.54452215E+01  7.72261074E+00  7.72261074E+00 -1.54452215E+01  7.72261074E+00
  7.72261074E+00 -1.54452215E+01  7.72261074E+00  7.72261074E+00 -1.54452215E+01
  7.72261074E+00  7.72261074E+00 -1.54452215E+01  7.72261074E+00  7.72261074E+00
 -1.54452215E+01  7.72261074E+00  7.72261074E+00 -1.54452215E+01  7.72261074E+00
  7.72261074E+00 -1.54452215E+01  7.72261074E+00  7.72261074E+00 -1.54452215E+01
  7.72261074E+00  7.72261074E+00 -1.54452215E+01  7.72261074E+00  7.72261074E+00
 -1.54452215E+01  7.72261074E+00  7.72261074E+00 -1.54452215E+01  7.72261074E+00
  7.72261074E+00 -1.54452215E+01  7.72261074E+00  7.72261074E+00 -1.54452215E+01
  7.72261074E+00  7.72261074E+00 -1.54452215E+01  7.72261074E+00  7.72261074E+00
 -1.54452215E+01  7.72261074E+00  7.72261074E+00 -1.54452215E+01  7.72261074E+00
  7.72261074E+00 -1.54452215E+01  7.72261074E+00  7.72261074E+00 -1.54452215E+01
  7.72261074E+00  7.72261074E+00 -1.54452215E+01  7.72261074E+00  7.72261074E+00
 -1.54452215E+01  7.72261074E+00  7.72261074E+00 -1.54452215E+01  7.72261074E+00
  7.72261074E+00 -1.54452215E+01  7.72261074E+00  7.72261074E+00 -1.54452215E+01
  7.72261074E+00  7.72261074E+00 -1.54452215E+01  7.72261074E+00  7.72261074E+00
 -1.54452215E+01  7.72261074E+00  7.72261074E+00 -1.54452215E+01  7.72261074E+00
  7.72261074E+00 -1.54452215E+01  7.72261074E+00  7.72261074E+00 -1.54452215E+01
  7.72261074E+00  7.72261074E+00 -1.54452215E+01  7.72261074E+00  7.72261074E+00
 -1.54452215E+01  7.72261074E+00  7.72261074E+00 -1.54452215E+01  7.72261074E+00
  7.72261074E+00 -1.54452215E+01  7.72261074E+00  7.72261074E+00 -1.54452215E+01
  7.72261074E+00  7.72261074E+00 -1.54452215E+01  7.72261074E+00  7.72261074E+00
 -1.54452215E+01  7.72261074E+00  7.72261074E+00 -1.54452215E+01  7.72261074E+00
  7.72261074E+00 -1.54452215E+01  7.72261074E+00  7.72261074E+00 -1.54452215E+01
  7.72261074E+00  7.72261074E+00 -1.54452215E+01  7.72261074E+00  7.72261074E+00
 -1.54452215E+01  7.72261074E+00  7.72261074E+00 -1.54452215E+01  7.72261074E+00
  7.72261074E+00 -1.54452215E+01  7.72261074E+00  7.72261074E+00 -1.54452215E+01
  7.72261074E+00  7.72261074E+00 -1.54452215E+01  7.72261074E+00  7.72261074E+00
 -1.54452215E+01  7.72261074E+00  7.72261074E+00 -1.54452215E+01  7.72261074E+00
  7.72261074E+00 -1.54452215E+01  7.72261074E+00  7.72261074E+00 -1.54452215E+01
  7.72261074E+00  7.72261074E+00 -1.54452215E+01  7.72261074E+00  7.72261074E+00
 -1.54452215E+01  7.72261074E+00  7.72261074E+00 -1.54452215E+01  7.72261074E+00
  7.72261074E+00 -1.54452215E+01  7.72261074E+00  7.72261074E+00 -1.54452215E+01
  7.72261074E+00  7.72261074E+00 -1.54452215E+01  7.72261074E+00  7.72261074E+00
 -1.54452215E+01  7.72261074E+00  7.72261074E+00 -1.54452215E+01  7.72261074E+00
  7.72261074E+00 -1.54452215E+01  7.72261074E+00  7.72261074E+00 -1.54452215E+01
  7.72261074E+00  7.72261074E+00 -1.54452215E+01  7.72261074E+00  7.72261074E+00
 -1.54452215E+01  7.72261074E+00  7.72261074E+00 -1.54452215E+01  7.72261074E+00
  7.72261074E+00 -1.54452215E+01  7.72261074E+00  7.72261074E+00 -1.54452215E+01
  7.72261074E+00  7.72261074E+00 -1.54452215E+01  7.72261074E+00  7.72261074E+00
 -1.54452215E+01  7.72261074E+00  7.72261074E+00 -1.54452215E+01  7.72261074E+00
  7.72261074E+00 -1.54452215E+01  7.72261074E+00  7.72261074E+00 -1.54452215E+01
  7.72261074E+00  7.72261074E+00 -1.54452215E+01  7.72261074E+00  7.72261074E+00
 -1.54452215E+01  7.72261074E+00  7.72261074E+00 -1.54452215E+01  7.72261074E+00
  7.72261074E+00 -1.54452215E+01  7.72261074E+00  7.72261074E+00 -1.54452215E+01
  7.72261074E+00  7.72261074E+00 -1.54452215E+01  7.72261074E+00  7.72261074E+00
 -1.54452215E+01  7.72261074E+00  7.72261074E+00 -1.54452215E+01  7.72261074E+00
  7.72261074E+00 -1.54452215E+01  7.72261074E+00  7.72261074E+00 -1.54452215E+01
  7.72261074E+00  7.72261074E+00 -1.54452215E+01  7.72261074E+00  7.72261074E+00
 -1.54452215E+01  7.72261074E+00  7.72261074E+00 -1.54452215E+01  7.72261074E+00
  7.72261074E+00 -1.54452215E+01  7.72261074E+00  7.72261074E+00 -1.54452215E+01
  7.72261074E+00  7.72261074E+00 -1.54452215E+01  7.72261074E+00  7.72261074E+00
 -1.54452215E+01  7.72261074E+00  7.72261074E+00 -1.54452215E+01  7.72261074E+00
  7.72261074E+00 -1.54452215E+01  7.72261074E+00  7.72261074E+00 -1.54452215E+01
  7.72261074E+00  7.72261074E+00 -1.54452215E+01  7.72261074E+00  7.72261074E+00
 -1.54452215E+01  7.72261074E+00  7.72261074E+00 -1.54452215E+01  7.72261074E+00
  7.72261074E+00 -1.54452215E+01  7.72261074E+00  7.72261074E+00 -1.54452215E+01
  7.72261074E+00  7.72261074E+00 -1.54452215E+01  7.72261074E+00  7.72261074E+00
 -1.54452215E+01  7.72261074E+00  7.72261074E+00 -1.54452215E+01  7.72261074E+00
  7.72261074E+00 -1.54452215E+01  7.72261074E+00  7.72261074E+00 -1.54452215E+01
  7.72261074E+00  7.72261074E+00 -1.54452215E+01  7.72261074E+00  7.72261074E+00
 -1.54452215E+01  7.72261074E+00  7.72261074E+00 -1.54452215E+01  7.72261074E+00
  7.72261074E+00 -1.54452215E+01  7.72261074E+00  7.72261074E+00 -1.54452215E+01
  7.72261074E+00  7.72261074E+00 -1.54452215E+01  7.72261074E+00  7.72261074E+00
 -1.54452215E+01  7.72261074E+00  7.72261074E+00 -1.54452215E+01  7.72261074E+00
  7.72261074E+00 -1.54452215E+01  7.72261074E+00  7.72261074E+00 -1.54452215E+01
  7.72261074E+00  7.72261074E+00 -1.54452215E+01  7.72261074E+00  7.72261074E+00
 -1.54452215E+01  7.72261074E+00  7.72261074E+00 -1.54452215E+01  7.72261074E+00
  7.72261074E+00 -1.54452215E+01  7.72261074E+00  7.72261074E+00 -1.54452215E+01
  7.72261074E+00  7.72261074E+00 -1.54452215E+01  7.72261074E+00  7.72261074E+00
 -1.54452215E+01  7.72261074E+00  7.72261074E+00 -1.54452215E+01  7.72261074E+00
  7.72261074E+00 -1.54452215E+01  7.72261074E+00  7.72261074E+00 -1.54452215E+01
  7.72261074E+00  7.72261074E+00 -1.54452215E+01  7.72261074E+00  7.72261074E+00
 -1.54452215E+01  7.72261074E+00  7.72261074E+00 -1.54452215E+01  7.72261074E+00
  7.72261074E+00 -1.54452215E+01  7.72261074E+00  7.72261074E+00 -1.54452215E+01
  7.72261074E+00  7.72261074E+00 -1.54452215E+01  7.72261074E+00  7.72261074E+00
 -1.54452215E+01  7.72261074E+00  7.72261074E+00 -1.54452215E+01  7.72261074E+00
  7.72261074E+00 -1.54452215E+01  7.72261074E+00  7.72261074E+00 -1.54452215E+01
  7.72261074E+00  7.72261074E+00 -1.54452215E+01  7.72261074E+00  7.72261074E+00
 -1.54452215E+01  7.72261074E+00  7.72261074E+00 -1.54452215E+01  7.72261074E+00
  7.72261074E+00 -1.54452215E+01  7.72261074E+00  7.72261074E+00 -1.54452215E+01
  7.72261074E+00  7.72261074E+00 -1.54452215E+01  7.72261074E+00  7.72261074E+00
 -1.54452215E+01  7.72261074E+00  7.72261074E+00 -1.54452215E+01  7.72261074E+00
  7.72261074E+00 -1.54452215E+01  7.72261074E+00  7.72261074E+00 -1.54452215E+01
  7.72261074E+00  7.72261074E+00 -1.54452215E+01  7.72261074E+00  7.72261074E+00
 -1.54452215E+01  7.72261074E+00  7.72261074E+00 -1.54452215E+01  7.72261074E+00
  7.72261074E+00 -1.54452215E+01  7.72261074E+00  7.72261074E+00 -1.54452215E+01
  7.72261074E+00  7.72261074E+00 -1.54452215E+01  7.72261074E+00  7.72261074E+00
 -1.54452215E+01  7.72261074E+00  7.72261074E+00 -1.54452215E+01  7.72261074E+00
  7.72261074E+00 -1.54452215E+01  7.72261074E+00  7.72261074E+00 -1.54452215E+01
  7.72261074E+00  7.72261074E+00 -1.54452215E+01  7.72261074E+00  7.72261074E+00
 -1.54452215E+01  7.72261074E+00  7.72261074E+00 -1.54452215E+01  7.72261074E+00
  7.72261074E+00 -1.54452215E+01  7.72261074E+00  7.72261074E+00 -1.54452215E+01
  7.72261074E+00  7.72261074E+00 -1.54452215E+01  7.72261074E+00  7.72261074E+00
 -1.54452215E+01  7.72261074E+00  7.72261074E+00 -1.54452215E+01  7.72261074E+00
  7.72261074E+00 -1.54452215E+01  7.72261074E+00  7.72261074E+00 -1.54452215E+01
  7.72261074E+00  7.72261074E+00 -1.54452215E+01  7.72261074E+00  7.72261074E+00
 -1.54452215E+01  7.72261074E+00  7.72261074E+00 -1.54452215E+01  7.72261074E+00
  7.72261074E+00 -1.54452215E+01  7.72261074E+00  7.72261074E+00 -1.54452215E+01
  7.72261074E+00  7.72261074E+00 -1.54452215E+01  7.72261074E+00  7.72261074E+00
 -1.54452215E+01  7.72261074E+00  7.72261074E+00 -1.54452215E+01  7.72261074E+00
  7.72261074E+00 -1.54452215E+01  7.72261074E+00  7.72261074E+00 -1.54452215E+01
  7.72261074E+00  7.72261074E+00 -1.54452215E+01  7.72261074E+00  7.72261074E+00
 -1.54452215E+01  7.72261074E+00  7.72261074E+00 -1.54452215E+01  7.72261074E+00
  7.72261074E+00 -1.54452215E+01  7.72261074E+00  7.72261074E+00 -1.54452215E+01
  7.72261074E+00  7.72261074E+00 -1.54452215E+01  7.72261074E+00  7.72261074E+00
 -1.54452215E+01  7.72261074E+00  7.72261074E+00 -1.54452215E+01  7.72261074E+00
  7.72261074E+00 -1.54452215E+01  7.72261074E+00  7.72261074E+00 -1.54452215E+01
  7.72261074E+00  7.72261074E+00 -1.54452215E+01  7.72261074E+00  7.72261074E+00
 -1.54452215E+01  7.72261074E+00  7.72261074E+00 -1.54452215E+01  7.72261074E+00
  7.72261074E+00 -1.54452215E+01  7.72261074E+00  7.72261074E+00 -1.54452215E+01
  7.72261074E+00  7.72261074E+00 -1.54452215E+01  7.72261074E+00  7.72261074E+00
 -1.54452215E+01  7.72261074E+00  7.72261074E+00 -1.54452215E+01  7.72261074E+00
  7.72261074E+00 -1.54452215E+01  7.72261074E+00  7.72261074E+00 -1.54452215E+01
  7.72261074E+00  7.72261074E+00 -1.54452215E+01  7.72261074E+00  7.72261074E+00
 -1.54452215E+01  7.72261074E+00  7.72261074E+00 -1.54452215E+01  7.72261074E+00
  7.72261074E+00 -1.54452215E+01  7.72261074E+00  7.72261074E+00 -1.54452215E+01
  7.72261074E+00  7.72261074E+00 -1.54452215E+01  7.72261074E+00  7.72261074E+00
 -1.54452215E+01  7.72261074E+00  7.72261074E+00 -1.54452215E+01  7.72261074E+00
  7.72261074E+00 -1.54452215E+01  7.72261074E+00  7.72261074E+00 -1.54452215E+01
  7.72261074E+00  7.72261074E+00 -1.54452215E+01  7.72261074E+00  7.72261074E+00
 -1.54452215E+01  7.72261074E+00  7.72261074E+00 -1.54452215E+01  7.72261074E+00
  7.72261074E+00 -1.54452215E+01  7.72261074E+00  7.72261074E+00 -1.54452215E+01
  7.72261074E+00  7.72261074E+00 -1.54452215E+01  7.72261074E+00  7.72261074E+00
 -1.54452215E+01  7.72261074E+00  7.72261074E+00 -1.54452215E+01  7.72261074E+00
  7.72261074E+00 -1.54452215E+01  7.72261074E+00  7.72261074E+00 -1.54452215E+01
  7.72261074E+00  7.72261074E+00 -1.54452215E+01  7.72261074E+00  7.72261074E+00
 -1.54452215E+01  7.72261074E+00  7.72261074E+00 -1.54452215E+01  7.72261074E+00
  7.72261074E+00 -1.54452215E+01  7.72261074E+00  7.72261074E+00 -1.54452215E+01
  7.72261074E+00  7.72261074E+00 -1.54452215E+01  7.72261074E+00  7.72261074E+00
 -1.54452215E+01  7.72261074E+00  7.72261074E+00 -1.54452215E+01  7.72261074E+00
  7.72261074E+00 -1.54452215E+01  7.72261074E+00  7.72261074E+00 -1.54452215E+01
  7.72261074E+00  7.72261074E+00 -1.54452215E+01  7.72261074E+00  7.72261074E+00
 -1.54452215E+01  7.72261074E+00  7.72261074E+00 -1.54452215E+01  7.72261074E+00
  7.72261074E+00 -1.54452215E+01  7.72261074E+00  7.72261074E+00 -1.54452215E+01
  7.72261074E+00  7.72261074E+00 -1.54452215E+01  7.72261074E+00  7.72261074E+00
 -1.54452215E+01  7.72261074E+00  7.72261074E+00 -1.54452215E+01  7.72261074E+00
  7.72261074E+00 -1.54452215E+01  7.72261074E+00  7.72261074E+00 -1.54452215E+01
  7.72261074E+00  7.72261074E+00 -1.54452215E+01  7.72261074E+00  7.72261074E+00
 -1.54452215E+01  7.72261074E+00  7.72261074E+00 -1.54452215E+01  7.72261074E+00
  7.72261074E+00 -1.54452215E+01  7.72261074E+00  7.72261074E+00 -1.54452215E+01
  7.72261074E+00  7.72261074E+00 -1.54452215E+01  7.72261074E+00  7.72261074E+00
 -1.54452215E+01  7.72261074E+00  7.72261074E+00 -1.54452215E+01  7.72261074E+00
  7.72261074E+00 -1.54452215E+01  7.72261074E+00  7.72261074E+00 -1.54452215E+01
  7.72261074E+00  7.72261074E+00 -1.54452215E+01  7.72261074E+00  7.72261074E+00
 -1.54452215E+01  7.72261074E+00  7.72261074E+00 -1.54452215E+01  7.72261074E+00
  7.72261074E+00 -1.54452215E+01  7.72261074E+00  7.72261074E+00 -1.54452215E+01
  7.72261074E+00  7.72261074E+00 -1.54452215E+01  7.72261074E+00  7.72261074E+00
 -1.54452215E+01  7.72261074E+00  7.72261074E+00 -1.54452215E+01  7.72261074E+00
  7.72261074E+00 -1.54452215E+01  7.72261074E+00  7.72261074E+00 -1.54452215E+01
  7.72261074E+00  7.72261074E+00 -1.54452215E+01  7.72261074E+00  7.72261074E+00
 -1.54452215E+01  7.72261074E+00  7.72261074E+00 -1.54452215E+01  7.72261074E+00
  7.72261074E+00 -1.54452215E+01  7.72261074E+00  7.72261074E+00 -1.54452215E+01
  7.72261074E+00  7.72261074E+00 -1.54452215E+01  7.72261074E+00  7.72261074E+00
 -1.54452215E+01  7.72261074E+00  7.72261074E+00 -1.54452215E+01  7.72261074E+00
  7.72261074E+00 -1.54452215E+01  7.72261074E+00  7.72261074E+00 -1.54452215E+01
  7.72261074E+00  7.72261074E+00 -1.54452215E+01  7.72261074E+00  7.72261074E+00
 -1.54452215E+01  7.72261074E+00  7.72261074E+00 -1.54452215E+01  7.72261074E+00
  7.72261074E+00 -1.54452215E+01  7.72261074E+00  7.72261074E+00 -1.54452215E+01
  7.72261074E+00  7.72261074E+00 -1.54452215E+01  7.72261074E+00  7.72261074E+00
 -1.54452215E+01  7.72261074E+00  7.72261074E+00 -1.54452215E+01  7.72261074E+00
  7.72261074E+00 -1.54452215E+01  7.72261074E+00  7.72261074E+00 -1.54452215E+01
  7.72261074E+00  7.72261074E+00 -1.54452215E+01  7.72261074E+00  7.72261074E+00
 -1.54452215E+01  7.72261074E+00  7.72261074E+00 -1.54452215E+01  7.72261074E+00
  7.72261074E+00 -1.54452215E+01  7.72261074E+00  7.72261074E+00 -1.54452215E+01
  7.72261074E+00  7.72261074E+00 -1.54452215E+01  7.72261074E+00  7.72261074E+00
 -1.54452215E+01  7.72261074E+00  7.72261074E+00 -1.54452215E+01  7.72261074E+00
  7.72261074E+00 -1.54452215E+01  7.72261074E+00  7.72261074E+00 -1.54452215E+01
  7.72261074E+00  7.72261074E+00 -1.54452215E+01  7.72261074E+00  7.72261074E+00
 -1.54452215E+01  7.72261074E+00  7.72261074E+00 -1.54452215E+01  7.72261074E+00
  7.72261074E+00 -1.54452215E+01  7.72261074E+00  7.72261074E+00 -1.54452215E+01
  7.72261074E+00  7.72261074E+00 -1.54452215E+01  7.72261074E+00  7.72261074E+00
 -1.54452215E+01  7.72261074E+00  7.72261074E+00 -1.54452215E+01  7.72261074E+00
  7.72261074E+00 -1.54452215E+01  7.72261074E+00  7.72261074E+00 -1.54452215E+01
  7.72261074E+00  7.72261074E+00 -1.54452215E+01  7.72261074E+00  7.72261074E+00
 -1.54452215E+01  7.72261074E+00  7.72261074E+00 -1.54452215E+01  7.72261074E+00
  7.72261074E+00 -1.54452215E+01  7.72261074E+00  7.72261074E+00 -1.54452215E+01
  7.72261074E+00  7.72261074E+00 -1.54452215E+01  7.72261074E+00  7.72261074E+00
 -1.54452215E+01  7.72261074E+00  7.72261074E+00 -1.54452215E+01  7.72261074E+00
  7.72261074E+00 -1.54452215E+01  7.72261074E+00  7.72261074E+00 -1.54452215E+01
  7.72261074E+00  7.72261074E+00 -1.54452215E+01  7.72261074E+00  7.72261074E+00
 -1.54452215E+01  7.72261074E+00  7.72261074E+00 -1.54452215E+01  7.72261074E+00
  7.72261074E+00 -1.54452215E+01  7.72261074E+00  7.72261074E+00 -1.54452215E+01
  7.72261074E+00  7.72261074E+00 -1.54452215E+01  7.72261074E+00  7.72261074E+00
 -1.54452215E+01  7.72261074E+00  7.72261074E+00 -1.54452215E+01  7.72261074E+00
  7.72261074E+00 -1.54452215E+01  7.72261074E+00  7.72261074E+00 -1.54452215E+01
  7.72261074E+00  7.72261074E+00 -1.54452215E+01  7.72261074E+00  7.72261074E+00
 -1.54452215E+01  7.72261074E+00  7.72261074E+00 -1.54452215E+01  7.72261074E+00
  7.72261074E+00 -1.54452215E+01  7.72261074E+00  7.72261074E+00 -1.54452215E+01
  7.72261074E+00  7.72261074E+00 -1.54452215E+01  7.72261074E+00  7.72261074E+00
 -1.54452215E+01  7.72261074E+00  7.72261074E+00 -1.54452215E+01  7.72261074E+00
  7.72261074E+00 -1.54452215E+01  7.72261074E+00  7.72261074E+00 -1.54452215E+01
  7.72261074E+00  7.72261074E+00 -1.54452215E+01  7.72261074E+00  7.72261074E+00
 -1.54452215E+01  7.72261074E+00  7.72261074E+00 -1.54452215E+01  7.72261074E+00
  7.72261074E+00 -1.54452215E+01  7.72261074E+00  7.72261074E+00 -1.54452215E+01
  7.72261074E+00  7.72261074E+00 -1.54452215E+01  7.72261074E+00  7.72261074E+00
 -1.54452215E+01  7.72261074E+00  7.72261074E+00 -1.54452215E+01  7.72261074E+00
  7.72261074E+00 -1.54452215E+01  7.72261074E+00  7.72261074E+00 -1.54452215E+01
  7.72261074E+00  7.72261074E+00 -1.54452215E+01  7.72261074E+00  7.72261074E+00
 -1.54452215E+01  7.72261074E+00  7.72261074E+00 -1.54452215E+01  7.72261074E+00
  7.72261074E+00 -1.54452215E+01  7.72261074E+00  7.72261074E+00 -1.54452215E+01
  7.72261074E+00  7.72261074E+00 -1.54452215E+01  7.72261074E+00  7.72261074E+00
 -1.54452215E+01  7.72261074E+00  7.72261074E+00 -1.54452215E+01  7.72261074E+00
  7.72261074E+00 -1.54452215E+01  7.72261074E+00  7.72261074E+00 -1.54452215E+01
  7.72261074E+00  7.72261074E+00 -1.54452215E+01  7.72261074E+00  7.72261074E+00
 -1.54452215E+01  7.72261074E+00  7.72261074E+00 -1.54452215E+01  7.72261074E+00
  7.72261074E+00 -1.54452215E+01  7.72261074E+00  7.72261074E+00 -1.54452215E+01
  7.72261074E+00  7.72261074E+00 -1.54452215E+01  7.72261074E+00  7.72261074E+00
 -1.54452215E+01  7.72261074E+00  7.72261074E+00 -1.54452215E+01  7.72261074E+00
  7.72261074E+00 -1.54452215E+01  7.72261074E+00  7.72261074E+00 -1.54452215E+01
  7.72261074E+00  7.72261074E+00 -1.54452215E+01  7.72261074E+00  7.72261074E+00
 -1.54452215E+01  7.72261074E+00  7.72261074E+00 -1.54452215E+01  7.72261074E+00
  7.72261074E+00 -1.54452215E+01  7.72261074E+00  7.72261074E+00 -1.54452215E+01
  7.72261074E+00  7.72261074E+00 -1.54452215E+01  7.72261074E+00  7.72261074E+00
 -1.54452215E+01  7.72261074E+00  7.72261074E+00 -1.54452215E+01  7.72261074E+00
  7.72261074E+00 -1.54452215E+01  7.72261074E+00  7.72261074E+00 -1.54452215E+01
  7.72261074E+00  7.72261074E+00 -1.54452215E+01  7.72261074E+00  7.72261074E+00
 -1.54452215E+01  7.72261074E+00  7.72261074E+00 -1.54452215E+01  7.72261074E+00
  7.72261074E+00 -1.54452215E+01  7.72261074E+00  7.72261074E+00 -1.54452215E+01
  7.72261074E+00  7.72261074E+00 -1.54452215E+01  7.72261074E+00  7.72261074E+00
 -1.54452215E+01  7.72261074E+00  7.72261074E+00 -1.54452215E+01  7.72261074E+00
  7.72261074E+00 -1.54452215E+01  7.72261074E+00  7.72261074E+00 -1.54452215E+01
  7.72261074E+00  7.72261074E+00 -1.54452215E+01  7.72261074E+00  7.72261074E+00
 -1.54452215E+01  7.72261074E+00  7.72261074E+00 -1.54452215E+01  7.72261074E+00
  7.72261074E+00 -1.54452215E+01  7.72261074E+00  7.72261074E+00 -1.54452215E+01
  7.72261074E+00  7.72261074E+00 -1.54452215E+01  7.72261074E+00  7.72261074E+00
 -1.54452215E+01  7.72261074E+00  7.72261074E+00 -1.54452215E+01  7.72261074E+00
  7.72261074E+00 -1.54452215E+01  7.72261074E+00  7.72261074E+00 -1.54452215E+01
  7.72261074E+00  7.72261074E+00 -1.54452215E+01  7.72261074E+00  7.72261074E+00
 -1.54452215E+01  7.72261074E+00  7.72261074E+00 -1.54452215E+01  7.72261074E+00
  7.72261074E+00 -1.54452215E+01  7.72261074E+00  7.72261074E+00 -1.54452215E+01
  7.72261074E+00  7.72261074E+00 -1.54452215E+01  7.72261074E+00  7.72261074E+00
 -1.54452215E+01  7.72261074E+00  7.72261074E+00 -1.54452215E+01  7.72261074E+00
  7.72261074E+00 -1.54452215E+01  7.72261074E+00  7.72261074E+00 -1.54452215E+01
  7.72261074E+00  7.72261074E+00 -1.54452215E+01  7.72261074E+00  7.72261074E+00
 -1.54452215E+01  7.72261074E+00  7.72261074E+00 -1.54452215E+01  7.72261074E+00
  7.72261074E+00 -1.54452215E+01  7.72261074E+00  7.72261074E+00 -1.54452215E+01
  7.72261074E+00  7.72261074E+00 -1.54452215E+01  7.72261074E+00  7.72261074E+00
 -1.54452215E+01  7.72261074E+00  7.72261074E+00 -1.54452215E+01  7.72261074E+00
  7.72261074E+00 -1.54452215E+01  7.72261074E+00  7.72261074E+00 -1.54452215E+01
  7.72261074E+00  7.72261074E+00 -1.54452215E+01  7.72261074E+00  7.72261074E+00
 -1.54452215E+01  7.72261074E+00  7.72261074E+00 -1.54452215E+01  7.72261074E+00
  7.72261074E+00 -1.54452215E+01  7.72261074E+00  7.72261074E+00 -1.54452215E+01
  7.72261074E+00  7.72261074E+00 -1.54452215E+01  7.72261074E+00  7.72261074E+00
 -1.54452215E+01  7.72261074E+00  7.72261074E+00 -1.54452215E+01  7.72261074E+00
  7.72261074E+00 -1.54452215E+01  7.72261074E+00  7.72261074E+00 -1.54452215E+01
  7.72261074E+00  7.72261074E+00 -1.54452215E+01  7.72261074E+00  7.72261074E+00
 -1.54452215E+01  7.72261074E+00  7.72261074E+00 -1.54452215E+01  7.72261074E+00
  7.72261074E+00 -1.54452215E+01  7.72261074E+00  7.72261074E+00 -1.54452215E+01
  7.72261074E+00  7.72261074E+00 -1.54452215E+01  7.72261074E+00  7.72261074E+00
 -1.54452215E+01  7.72261074E+00  7.72261074E+00 -1.54452215E+01  7.72261074E+00
  7.72261074E+00 -1.54452215E+01  7.72261074E+00  7.72261074E+00 -1.54452215E+01
  7.72261074E+00  7.72261074E+00 -1.54452215E+01  7.72261074E+00  7.72261074E+00
 -1.54452215E+01  7.72261074E+00  7.72261074E+00 -1.54452215E+01  7.72261074E+00
  7.72261074E+00 -1.54452215E+01  7.72261074E+00  7.72261074E+00 -1.54452215E+01
  7.72261074E+00  7.72261074E+00 -1.54452215E+01  7.72261074E+00  7.72261074E+00
 -1.54452215E+01  7.72261074E+00  7.72261074E+00 -1.54452215E+01  7.72261074E+00
  7.72261074E+00 -1.54452215E+01  7.72261074E+00  7.72261074E+00 -1.54452215E+01
  7.72261074E+00  7.72261074E+00 -1.54452215E+01  7.72261074E+00  7.72261074E+00
 -1.54452215E+01  7.72261074E+00  7.72261074E+00 -1.54452215E+01  7.72261074E+00
  7.72261074E+00 -1.54452215E+01  7.72261074E+00  7.72261074E+00 -1.54452215E+01
  7.72261074E+00  7.72261074E+00 -1.54452215E+01  7.72261074E+00  7.72261074E+00
 -1.54452215E+01  7.72261074E+00  7.72261074E+00 -1.54452215E+01  7.72261074E+00
  7.72261074E+00 -1.54452215E+01  7.72261074E+00  7.72261074E+00 -1.54452215E+01
  7.72261074E+00  7.72261074E+00 -1.54452215E+01  7.72261074E+00  7.72261074E+00
 -1.54452215E+01  7.72261074E+00  7.72261074E+00 -1.54452215E+01  7.72261074E+00
  7.72261074E+00 -1.54452215E+01  7.72261074E+00  7.72261074E+00 -1.54452215E+01
  7.72261074E+00  7.72261074E+00 -1.54452215E+01  7.72261074E+00  7.72261074E+00
 -1.54452215E+01  7.72261074E+00  7.72261074E+00 -1.54452215E+01  7.72261074E+00
  7.72261074E+00 -1.54452215E+01  7.72261074E+00  7.72261074E+00 -1.54452215E+01
  7.72261074E+00  7.72261074E+00 -1.54452215E+01  7.72261074E+00  7.72261074E+00
 -1.54452215E+01  7.72261074E+00  7.72261074E+00 -1.54452215E+01  7.72261074E+00
  7.72261074E+00 -1.54452215E+01  7.72261074E+00  7.72261074E+00 -1.54452215E+01
  7.72261074E+00  7.72261074E+00 -1.54452215E+01  7.72261074E+00  7.72261074E+00
 -1.54452215E+01  7.72261074E+00  7.72261074E+00 -1.54452215E+01  7.72261074E+00
  7.72261074E+00 -1.54452215E+01  7.72261074E+00  7.72261074E+00 -1.54452215E+01
  7.72261074E+00  7.72261074E+00 -1.54452215E+01  7.72261074E+00  7.72261074E+00
 -1.54452215E+01  7.72261074E+00  7.72261074E+00 -1.54452215E+01  7.72261074E+00
  7.72261074E+00 -1.54452215E+01  7.72261074E+00  7.72261074E+00 -1.54452215E+01
  7.72261074E+00  7.72261074E+00 -1.54452215E+01  7.72261074E+00  7.72261074E+00
 -1.54452215E+01  7.72261074E+00  7.72261074E+00 -1.54452215E+01  7.72261074E+00
  7.72261074E+00 -1.54452215E+01  7.72261074E+00  7.72261074E+00 -1.54452215E+01
  7.72261074E+00  7.72261074E+00 -1.54452215E+01  7.72261074E+00  7.72261074E+00
 -1.54452215E+01  7.72261074E+00  7.72261074E+00 -1.54452215E+01  7.72261074E+00
  7.72261074E+00 -1.54452215E+01  7.72261074E+00  7.72261074E+00 -1.54452215E+01
  7.72261074E+00  7.72261074E+00 -1.54452215E+01  7.72261074E+00  7.72261074E+00
 -1.54452215E+01  7.72261074E+00  7.72261074E+00 -1.54452215E+01  7.72261074E+00
  7.72261074E+00 -1.54452215E+01  7.72261074E+00  7.72261074E+00 -1.54452215E+01
  7.72261074E+00  7.72261074E+00 -1.54452215E+01  7.72261074E+00  7.72261074E+00
 -1.54452215E+01  7.72261074E+00  7.72261074E+00 -1.54452215E+01  7.72261074E+00
  7.72261074E+00 -1.54452215E+01  7.72261074E+00  7.72261074E+00 -1.54452215E+01
  7.72261074E+00  7.72261074E+00 -1.54452215E+01  7.72261074E+00  7.72261074E+00
 -1.54452215E+01  7.72261074E+00  7.72261074E+00 -1.54452215E+01  7.72261074E+00
  7.72261074E+00 -1.54452215E+01  7.72261074E+00  7.72261074E+00 -1.54452215E+01
  7.72261074E+00  7.72261074E+00 -1.54452215E+01  7.72261074E+00  7.72261074E+00
 -1.54452215E+01  7.72261074E+00  7.72261074E+00 -1.54452215E+01  7.72261074E+00
  7.72261074E+00 -1.54452215E+01  7.72261074E+00  7.72261074E+00 -1.54452215E+01
  7.72261074E+00  7.72261074E+00 -1.54452215E+01  7.72261074E+00  7.72261074E+00
 -1.54452215E+01  7.72261074E+00  7.72261074E+00 -1.54452215E+01  7.72261074E+00
  7.72261074E+00 -1.54452215E+01  7.72261074E+00  7.72261074E+00 -1.54452215E+01
  7.72261074E+00  7.72261074E+00 -1.54452215E+01  7.72261074E+00  7.72261074E+00
 -1.54452215E+01  7.72261074E+00  7.72261074E+00 -1.54452215E+01  7.72261074E+00
  7.72261074E+00 -1.54452215E+01  7.72261074E+00  7.72261074E+00 -1.54452215E+01
  7.72261074E+00  7.72261074E+00 -1.54452215E+01  7.72261074E+00  7.72261074E+00
 -1.54452215E+01  7.72261074E+00  7.72261074E+00 -1.54452215E+01  7.72261074E+00
  7.72261074E+00 -1.54452215E+01  7.72261074E+00  7.72261074E+00 -1.54452215E+01
  7.72261074E+00  7.72261074E+00 -1.54452215E+01  7.72261074E+00  7.72261074E+00
 -1.54452215E+01  7.72261074E+00  7.72261074E+00 -1.54452215E+01  7.72261074E+00
  7.72261074E+00 -1.54452215E+01  7.72261074E+00  7.72261074E+00 -1.54452215E+01
  7.72261074E+00  7.72261074E+00 -1.54452215E+01  7.72261074E+00  7.72261074E+00
 -1.54452215E+01  7.72261074E+00  7.72261074E+00 -1.54452215E+01  7.72261074E+00
  7.72261074E+00 -1.54452215E+01  7.72261074E+00  7.72261074E+00 -1.54452215E+01
  7.72261074E+00  7.72261074E+00 -1.54452215E+01  7.72261074E+00  7.72261074E+00
 -1.54452215E+01  7.72261074E+00  7.72261074E+00 -1.54452215E+01  7.72261074E+00
  7.72261074E+00 -1.54452215E+01  7.72261074E+00  7.72261074E+00 -1.54452215E+01
  7.72261074E+00  7.72261074E+00 -1.54452215E+01  7.72261074E+00  7.72261074E+00
 -1.54452215E+01  7.72261074E+00  7.72261074E+00 -1.54452215E+01  7.72261074E+00
  7.72261074E+00 -1.54452215E+01  7.72261074E+00  7.72261074E+00 -1.54452215E+01
  7.72261074E+00  7.72261074E+00 -1.54452215E+01  7.72261074E+00  7.72261074E+00
 -1.54452215E+01  7.72261074E+00  7.72261074E+00 -1.54452215E+01  7.72261074E+00
  7.72261074E+00 -1.54452215E+01  7.72261074E+00  7.72261074E+00 -1.54452215E+01
  7.72261074E+00  7.72261074E+00 -1.54452215E+01  7.72261074E+00  7.72261074E+00
 -1.54452215E+01  7.72261074E+00  7.72261074E+00 -1.54452215E+01  7.72261074E+00
  7.72261074E+00 -1.54452215E+01  7.72261074E+00  7.72261074E+00 -1.54452215E+01
  7.72261074E+00  7.72261074E+00 -1.54452215E+01  7.72261074E+00  7.72261074E+00
 -1.54452215E+01  7.72261074E+00  7.72261074E+00 -1.54452215E+01  7.72261074E+00
  7.72261074E+00 -1.54452215E+01  7.72261074E+00  7.72261074E+00 -1.54452215E+01
  7.72261074E+00  7.72261074E+00 -1.54452215E+01  7.72261074E+00  7.72261074E+00
 -1.54452215E+01  7.72261074E+00  7.72261074E+00 -1.54452215E+01  7.72261074E+00
  7.72261074E+00 -1.54452215E+01  7.72261074E+00  7.72261074E+00 -1.54452215E+01
  7.72261074E+00  7.72261074E+00 -1.54452215E+01  7.72261074E+00  7.72261074E+00
 -1.54452215E+01  7.72261074E+00  7.72261074E+00 -1.54452215E+01  7.72261074E+00
  7.72261074E+00 -1.54452215E+01  7.72261074E+00  7.72261074E+00 -1.54452215E+01
  7.72261074E+00  7.72261074E+00 -1.54452215E+01  7.72261074E+00  7.72261074E+00
 -1.54452215E+01  7.72261074E+00  7.72261074E+00 -1.54452215E+01  7.72261074E+00
  7.72261074E+00 -1.54452215E+01  7.72261074E+00  7.72261074E+00 -1.54452215E+01
  7.72261074E+00  7.72261074E+00 -1.54452215E+01  7.72261074E+00  7.72261074E+00
 -1.54452215E+01  7.72261074E+00  7.72261074E+00 -1.54452215E+01  7.72261074E+00
  7.72261074E+00 -1.54452215E+01  7.72261074E+00  7.72261074E+00 -1.54452215E+01
  7.72261074E+00  7.72261074E+00 -1.54452215E+01  7.72261074E+00  7.72261074E+00
 -1.54452215E+01  7.72261074E+00  7.72261074E+00 -1.54452215E+01  7.72261074E+00
  7.72261074E+00 -1.54452215E+01  7.72261074E+00  7.72261074E+00 -1.54452215E+01
  7.72261074E+00  7.72261074E+00 -1.54452215E+01  7.72261074E+00  7.72261074E+00
 -1.54452215E+01  7.72261074E+00  7.72261074E+00 -1.54452215E+01  7.72261074E+00
  7.72261074E+00 -1.54452215E+01  7.72261074E+00  7.72261074E+00 -1.54452215E+01
  7.72261074E+00  7.72261074E+00 -1.54452215E+01  7.72261074E+00  7.72261074E+00
 -1.54452215E+01  7.72261074E+00  7.72261074E+00 -1.54452215E+01  7.72261074E+00
  7.72261074E+00 -1.54452215E+01  7.72261074E+00  7.72261074E+00 -1.54452215E+01
  7.72261074E+00  7.72261074E+00 -1.54452215E+01  7.72261074E+00  7.72261074E+00
 -1.54452215E+01  7.72261074E+00  7.72261074E+00 -1.54452215E+01  7.72261074E+00
  7.72261074E+00 -1.54452215E+01  7.72261074E+00  7.72261074E+00 -1.54452215E+01
  7.72261074E+00  7.72261074E+00 -1.54452215E+01  7.72261074E+00  7.72261074E+00
 -1.54452215E+01  7.72261074E+00  7.72261074E+00 -1.54452215E+01  7.72261074E+00
  7.72261074E+00 -1.54452215E+01  7.72261074E+00  7.72261074E+00 -1.54452215E+01
  7.72261074E+00  7.72261074E+00 -1.54452215E+01  7.72261074E+00  7.72261074E+00
 -1.54452215E+01  7.72261074E+00  7.72261074E+00 -1.54452215E+01  7.72261074E+00
  7.72261074E+00 -1.54452215E+01  7.72261074E+00  7.72261074E+00 -1.54452215E+01
  7.72261074E+00  7.72261074E+00 -1.54452215E+01  7.72261074E+00  7.72261074E+00
 -1.54452215E+01  7.72261074E+00  7.72261074E+00 -1.54452215E+01  7.72261074E+00
  7.72261074E+00 -1.54452215E+01  7.72261074E+00  7.72261074E+00 -1.54452215E+01
  7.72261074E+00  7.72261074E+00 -1.54452215E+01  7.72261074E+00  7.72261074E+00
 -1.54452215E+01  7.72261074E+00  7.72261074E+00 -1.54452215E+01  7.72261074E+00
  7.72261074E+00 -1.54452215E+01  7.72261074E+00  7.72261074E+00 -1.54452215E+01
  7.72261074E+00  7.72261074E+00 -1.54452215E+01  7.72261074E+00  7.72261074E+00
 -1.54452215E+01  7.72261074E+00  7.72261074E+00 -1.54452215E+01  7.72261074E+00
  7.72261074E+00 -1.54452215E+01  7.72261074E+00  7.72261074E+00 -1.54452215E+01
  7.72261074E+00  7.72261074E+00 -1.54452215E+01  7.72261074E+00  7.72261074E+00
 -1.54452215E+01  7.72261074E+00  7.72261074E+00 -1.54452215E+01  7.72261074E+00
  7.72261074E+00 -1.54452215E+01  7.72261074E+00  7.72261074E+00 -1.54452215E+01
  7.72261074E+00  7.72261074E+00 -1.54452215E+01  7.72261074E+00  7.72261074E+00
 -1.54452215E+01  7.72261074E+00  7.72261074E+00 -1.54452215E+01  7.72261074E+00
  7.72261074E+00 -1.54452215E+01  7.72261074E+00  7.72261074E+00 -1.54452215E+01
  7.72261074E+00  7.72261074E+00 -1.54452215E+01  7.72261074E+00  7.72261074E+00
 -1.54452215E+01  7.72261074E+00  7.72261074E+00 -1.54452215E+01  7.72261074E+00
  7.72261074E+00 -1.54452215E+01  7.72261074E+00  7.72261074E+00 -1.54452215E+01
  7.72261074E+00  7.72261074E+00 -1.54452215E+01  7.72261074E+00  7.72261074E+00
 -1.54452215E+01  7.72261074E+00  7.72261074E+00 -1.54452215E+01  7.72261074E+00
  7.72261074E+00 -1.54452215E+01  7.72261074E+00  7.72261074E+00 -1.54452215E+01
  7.72261074E+00  7.72261074E+00 -1.54452215E+01  7.72261074E+00  7.72261074E+00
 -1.54452215E+01  7.72261074E+00  7.72261074E+00 -1.54452215E+01  7.72261074E+00
  7.72261074E+00 -1.54452215E+01  7.72261074E+00  7.72261074E+00 -1.54452215E+01
  7.72261074E+00  7.72261074E+00 -1.54452215E+01  7.72261074E+00  7.72261074E+00
 -1.54452215E+01  7.72261074E+00  7.72261074E+00 -1.54452215E+01  7.72261074E+00
  7.72261074E+00 -1.54452215E+01  7.72261074E+00  7.72261074E+00 -1.54452215E+01
  7.72261074E+00  7.72261074E+00 -1.54452215E+01  7.72261074E+00  7.72261074E+00
 -1.54452215E+01  7.72261074E+00  7.72261074E+00 -1.54452215E+01  7.72261074E+00
  7.72261074E+00 -1.54452215E+01  7.72261074E+00  7.72261074E+00 -1.54452215E+01
  7.72261074E+00  7.72261074E+00 -1.54452215E+01  7.72261074E+00  7.72261074E+00
 -1.54452215E+01  7.72261074E+00  7.72261074E+00 -1.54452215E+01  7.72261074E+00
  7.72261074E+00 -1.54452215E+01  7.72261074E+00  7.72261074E+00 -1.54452215E+01
  7.72261074E+00  7.72261074E+00 -1.54452215E+01  7.72261074E+00  7.72261074E+00
 -1.54452215E+01  7.72261074E+00  7.72261074E+00 -1.54452215E+01  7.72261074E+00
  7.72261074E+00 -1.54452215E+01  7.72261074E+00  7.72261074E+00 -1.54452215E+01
  7.72261074E+00  7.72261074E+00 -1.54452215E+01  7.72261074E+00  7.72261074E+00
 -1.54452215E+01  7.72261074E+00  7.72261074E+00 -1.54452215E+01  7.72261074E+00
  7.72261074E+00 -1.54452215E+01  7.72261074E+00  7.72261074E+00 -1.54452215E+01
  7.72261074E+00  7.72261074E+00 -1.54452215E+01  7.72261074E+00  7.72261074E+00
 -1.54452215E+01  7.72261074E+00  7.72261074E+00 -1.54452215E+01  7.72261074E+00
  7.72261074E+00 -1.54452215E+01  7.72261074E+00  7.72261074E+00 -1.54452215E+01
  7.72261074E+00  7.72261074E+00 -1.54452215E+01  7.72261074E+00  7.72261074E+00
 -1.54452215E+01  7.72261074E+00  7.72261074E+00 -1.54452215E+01  7.72261074E+00
  7.72261074E+00 -1.54452215E+01  7.72261074E+00  7.72261074E+00 -1.54452215E+01
  7.72261074E+00  7.72261074E+00 -1.54452215E+01  7.72261074E+00  7.72261074E+00
 -1.54452215E+01  7.72261074E+00  7.72261074E+00 -1.54452215E+01  7.72261074E+00
  7.72261074E+00 -1.54452215E+01  7.72261074E+00  7.72261074E+00 -1.54452215E+01
  7.72261074E+00  7.72261074E+00 -1.54452215E+01  7.72261074E+00  7.72261074E+00
 -1.54452215E+01  7.72261074E+00  7.72261074E+00 -1.54452215E+01  7.72261074E+00
  7.72261074E+00 -1.54452215E+01  7.72261074E+00  7.72261074E+00 -1.54452215E+01
  7.72261074E+00  7.72261074E+00 -1.54452215E+01  7.72261074E+00  7.72261074E+00
 -1.54452215E+01  7.72261074E+00  7.72261074E+00 -1.54452215E+01  7.72261074E+00
  7.72261074E+00 -1.54452215E+01  7.72261074E+00  7.72261074E+00 -1.54452215E+01
  7.72261074E+00  7.72261074E+00 -1.54452215E+01  7.72261074E+00  7.72261074E+00
 -1.54452215E+01  7.72261074E+00  7.72261074E+00 -1.54452215E+01  7.72261074E+00
  7.72261074E+00 -1.54452215E+01  7.72261074E+00  7.72261074E+00 -1.54452215E+01
  7.72261074E+00  7.72261074E+00 -1.54452215E+01  7.72261074E+00  7.72261074E+00
 -1.54452215E+01  7.72261074E+00  7.72261074E+00 -1.54452215E+01  7.72261074E+00
  7.72261074E+00 -1.54452215E+01  7.72261074E+00  7.72261074E+00 -1.54452215E+01
  7.72261074E+00  7.72261074E+00 -1.54452215E+01  7.72261074E+00  7.72261074E+00
 -1.54452215E+01  7.72261074E+00  7.72261074E+00 -1.54452215E+01  7.72261074E+00
  7.72261074E+00 -1.54452215E+01  7.72261074E+00  7.72261074E+00 -1.54452215E+01
  7.72261074E+00  7.72261074E+00 -1.54452215E+01  7.72261074E+00  7.72261074E+00
 -1.54452215E+01  7.72261074E+00  7.72261074E+00 -1.54452215E+01  7.72261074E+00
  7.72261074E+00 -1.54452215E+01  7.72261074E+00  7.72261074E+00 -1.54452215E+01
  7.72261074E+00  7.72261074E+00 -1.54452215E+01  7.72261074E+00  7.72261074E+00
 -1.54452215E+01  7.72261074E+00  7.72261074E+00 -1.54452215E+01  7.72261074E+00
  7.72261074E+00 -1.54452215E+01  7.72261074E+00  7.72261074E+00 -1.54452215E+01
  7.72261074E+00  7.72261074E+00 -1.54452215E+01  7.72261074E+00  7.72261074E+00
 -1.54452215E+01  7.72261074E+00  7.72261074E+00 -1.54452215E+01  7.72261074E+00
  7.72261074E+00 -1.54452215E+01  7.72261074E+00  7.72261074E+00 -1.54452215E+01
  7.72261074E+00  7.72261074E+00 -1.54452215E+01  7.72261074E+00  7.72261074E+00
 -1.54452215E+01  7.72261074E+00  7.72261074E+00 -1.54452215E+01  7.72261074E+00
  7.72261074E+00 -1.54452215E+01  7.72261074E+00  7.72261074E+00 -1.54452215E+01
  7.72261074E+00  7.72261074E+00 -1.54452215E+01  7.72261074E+00  7.72261074E+00
 -1.54452215E+01  7.72261074E+00  7.72261074E+00 -1.54452215E+01  7.72261074E+00
  7.72261074E+00 -1.54452215E+01  7.72261074E+00  7.72261074E+00 -1.54452215E+01
  7.72261074E+00  7.72261074E+00 -1.54452215E+01  7.72261074E+00  7.72261074E+00
 -1.54452215E+01  7.72261074E+00  7.72261074E+00 -1.54452215E+01  7.72261074E+00
  7.72261074E+00 -1.54452215E+01  7.72261074E+00  7.72261074E+00 -1.54452215E+01
  7.72261074E+00  7.72261074E+00 -1.54452215E+01  7.72261074E+00  7.72261074E+00
 -1.54452215E+01  7.72261074E+00  7.72261074E+00 -1.54452215E+01  7.72261074E+00
  7.72261074E+00 -1.54452215E+01  7.72261074E+00  7.72261074E+00 -1.54452215E+01
  7.72261074E+00  7.72261074E+00 -1.54452215E+01  7.72261074E+00  7.72261074E+00
 -1.54452215E+01  7.72261074E+00  7.72261074E+00 -1.54452215E+01  7.72261074E+00
  7.72261074E+00 -1.54452215E+01  7.72261074E+00  7.72261074E+00 -1.54452215E+01
  7.72261074E+00  7.72261074E+00 -1.54452215E+01  7.72261074E+00  7.72261074E+00
 -1.54452215E+01  7.72261074E+00  7.72261074E+00 -1.54452215E+01  7.72261074E+00
  7.72261074E+00 -1.54452215E+01  7.72261074E+00  7.72261074E+00 -1.54452215E+01
  7.72261074E+00  7.72261074E+00 -1.54452215E+01  7.72261074E+00  7.72261074E+00
 -1.54452215E+01  7.72261074E+00  7.72261074E+00 -1.54452215E+01  7.72261074E+00
  7.72261074E+00 -1.54452215E+01  7.72261074E+00  7.72261074E+00 -1.54452215E+01
  7.72261074E+00  7.72261074E+00 -1.54452215E+01  7.72261074E+00  7.72261074E+00
 -1.54452215E+01  7.72261074E+00  7.72261074E+00 -1.54452215E+01  7.72261074E+00
  7.72261074E+00 -1.54452215E+01  7.72261074E+00  7.72261074E+00 -1.54452215E+01
  7.72261074E+00  7.72261074E+00 -1.54452215E+01  7.72261074E+00  7.72261074E+00
 -1.54452215E+01  7.72261074E+00  7.72261074E+00 -1.54452215E+01  7.72261074E+00
  7.72261074E+00 -1.54452215E+01  7.72261074E+00  7.72261074E+00 -1.54452215E+01
  7.72261074E+00  7.72261074E+00 -1.54452215E+01  7.72261074E+00  7.72261074E+00
 -1.54452215E+01  7.72261074E+00  7.72261074E+00 -1.54452215E+01  7.72261074E+00
  7.72261074E+00 -1.54452215E+01  7.72261074E+00  7.72261074E+00 -1.54452215E+01
  7.72261074E+00  7.72261074E+00 -1.54452215E+01  7.72261074E+00  7.72261074E+00
 -1.54452215E+01  7.72261074E+00  7.72261074E+00 -1.54452215E+01  7.72261074E+00
  7.72261074E+00 -1.54452215E+01  7.72261074E+00  7.72261074E+00 -1.54452215E+01
  7.72261074E+00  7.72261074E+00 -1.54452215E+01  7.72261074E+00  7.72261074E+00
 -1.54452215E+01  7.72261074E+00  7.72261074E+00 -1.54452215E+01  7.72261074E+00
  7.72261074E+00 -1.54452215E+01  7.72261074E+00  7.72261074E+00 -1.54452215E+01
  7.72261074E+00  7.72261074E+00 -1.54452215E+01  7.72261074E+00  7.72261074E+00
 -1.54452215E+01  7.72261074E+00  7.72261074E+00 -1.54452215E+01  7.72261074E+00
  7.72261074E+00 -1.54452215E+01  7.72261074E+00  7.72261074E+00 -1.54452215E+01
  7.72261074E+00  7.72261074E+00 -1.54452215E+01  7.72261074E+00  7.72261074E+00
 -1.54452215E+01  7.72261074E+00  7.72261074E+00 -1.54452215E+01  7.72261074E+00
  7.72261074E+00 -1.54452215E+01  7.72261074E+00  7.72261074E+00 -1.54452215E+01
  7.72261074E+00  7.72261074E+00 -1.54452215E+01  7.72261074E+00  7.72261074E+00
 -1.54452215E+01  7.72261074E+00  7.72261074E+00 -1.54452215E+01  7.72261074E+00
  7.72261074E+00 -1.54452215E+01  7.72261074E+00  7.72261074E+00 -1.54452215E+01
  7.72261074E+00  7.72261074E+00 -1.54452215E+01  7.72261074E+00  7.72261074E+00
 -1.54452215E+01  7.72261074E+00  7.72261074E+00 -1.54452215E+01  7.72261074E+00
  7.72261074E+00 -1.54452215E+01  7.72261074E+00  7.72261074E+00 -1.54452215E+01
  7.72261074E+00  7.72261074E+00 -1.54452215E+01  7.72261074E+00  7.72261074E+00
 -1.54452215E+01  7.72261074E+00  7.72261074E+00 -1.54452215E+01  7.72261074E+00
  7.72261074E+00 -1.54452215E+01  7.72261074E+00  7.72261074E+00 -1.54452215E+01
  7.72261074E+00  7.72261074E+00 -1.54452215E+01  7.72261074E+00  7.72261074E+00
 -1.54452215E+01  7.72261074E+00  7.72261074E+00 -1.54452215E+01  7.72261074E+00
  7.72261074E+00 -1.54452215E+01  7.72261074E+00  7.72261074E+00 -1.54452215E+01
  7.72261074E+00  7.72261074E+00 -1.54452215E+01  7.72261074E+00  7.72261074E+00
 -1.54452215E+01  7.72261074E+00  7.72261074E+00 -1.54452215E+01  7.72261074E+00
  7.72261074E+00 -1.54452215E+01  7.72261074E+00  7.72261074E+00 -1.54452215E+01
  7.72261074E+00  7.72261074E+00 -1.54452215E+01  7.72261074E+00  7.72261074E+00
 -1.54452215E+01  7.72261074E+00  7.72261074E+00 -1.54452215E+01  7.72261074E+00
  7.72261074E+00 -1.54452215E+01  7.72261074E+00  7.72261074E+00 -1.54452215E+01
  7.72261074E+00  7.72261074E+00 -1.54452215E+01  7.72261074E+00  7.72261074E+00
 -1.54452215E+01  7.72261074E+00  7.72261074E+00 -1.54452215E+01  7.72261074E+00
  7.72261074E+00 -1.54452215E+01  7.72261074E+00  7.72261074E+00 -1.54452215E+01
  7.72261074E+00  7.72261074E+00 -1.54452215E+01  7.72261074E+00  7.72261074E+00
 -1.54452215E+01  7.72261074E+00  7.72261074E+00 -1.54452215E+01  7.72261074E+00
  7.72261074E+00 -1.54452215E+01  7.72261074E+00  7.72261074E+00 -1.54452215E+01
  7.72261074E+00  7.72261074E+00 -1.54452215E+01  7.72261074E+00  7.72261074E+00
 -1.54452215E+01  7.72261074E+00  7.72261074E+00 -1.54452215E+01  7.72261074E+00
  7.72261074E+00 -1.54452215E+01  7.72261074E+00  7.72261074E+00 -1.54452215E+01
  7.72261074E+00  7.72261074E+00 -1.54452215E+01  7.72261074E+00  7.72261074E+00
 -1.54452215E+01  7.72261074E+00  7.72261074E+00 -1.54452215E+01  7.72261074E+00
  7.72261074E+00 -1.54452215E+01  7.72261074E+00  7.72261074E+00 -1.54452215E+01
  7.72261074E+00  7.72261074E+00 -1.54452215E+01  7.72261074E+00  7.72261074E+00
 -1.54452215E+01  7.72261074E+00  7.72261074E+00 -1.54452215E+01  7.72261074E+00
  7.72261074E+00 -1.54452215E+01  7.72261074E+00  7.72261074E+00 -1.54452215E+01
  7.72261074E+00  7.72261074E+00 -1.54452215E+01  7.72261074E+00  7.72261074E+00
 -1.54452215E+01  7.72261074E+00  7.72261074E+00 -1.54452215E+01  7.72261074E+00
  7.72261074E+00 -1.54452215E+01  7.72261074E+00  7.72261074E+00 -1.54452215E+01
  7.72261074E+00  7.72261074E+00 -1.54452215E+01  7.72261074E+00  7.72261074E+00
 -1.54452215E+01  7.72261074E+00  7.72261074E+00 -1.54452215E+01  7.72261074E+00
  7.72261074E+00 -1.54452215E+01  7.72261074E+00  7.72261074E+00 -1.54452215E+01
  7.72261074E+00  7.72261074E+00 -1.54452215E+01  7.72261074E+00  7.72261074E+00
 -1.54452215E+01  7.72261074E+00  7.72261074E+00 -1.54452215E+01  7.72261074E+00
  7.72261074E+00 -1.54452215E+01  7.72261074E+00  7.72261074E+00 -1.54452215E+01
  7.72261074E+00  7.72261074E+00 -1.54452215E+01  7.72261074E+00  7.72261074E+00
 -1.54452215E+01  7.72261074E+00  7.72261074E+00 -1.54452215E+01  7.72261074E+00
  7.72261074E+00 -1.54452215E+01  7.72261074E+00  7.72261074E+00 -1.54452215E+01
  7.72261074E+00  7.72261074E+00 -1.54452215E+01  7.72261074E+00  7.72261074E+00
 -1.54452215E+01  7.72261074E+00  7.72261074E+00 -1.54452215E+01  7.72261074E+00
  7.72261074E+00 -1.54452215E+01  7.72261074E+00  7.72261074E+00 -1.54452215E+01
  7.72261074E+00  7.72261074E+00 -1.54452215E+01  7.72261074E+00  7.72261074E+00
 -1.54452215E+01  7.72261074E+00  7.72261074E+00 -1.54452215E+01  7.72261074E+00
  7.72261074E+00 -1.54452215E+01  7.72261074E+00  7.72261074E+00 -1.54452215E+01
  7.72261074E+00  7.72261074E+00 -1.54452215E+01  7.72261074E+00  7.72261074E+00
 -1.54452215E+01  7.72261074E+00  7.72261074E+00 -1.54452215E+01  7.72261074E+00
  7.72261074E+00 -1.54452215E+01  7.72261074E+00  7.72261074E+00 -1.54452215E+01
  7.72261074E+00  7.72261074E+00 -1.54452215E+01  7.72261074E+00  7.72261074E+00
 -1.54452215E+01  7.72261074E+00  7.72261074E+00 -1.54452215E+01  7.72261074E+00
  7.72261074E+00 -1.54452215E+01  7.72261074E+00  7.72261074E+00 -1.54452215E+01
  7.72261074E+00  7.72261074E+00 -1.54452215E+01  7.72261074E+00  7.72261074E+00
 -1.54452215E+01  7.72261074E+00  7.72261074E+00 -1.54452215E+01  7.72261074E+00
  7.72261074E+00 -1.54452215E+01  7.72261074E+00  7.72261074E+00 -1.54452215E+01
  7.72261074E+00  7.72261074E+00 -1.54452215E+01  7.72261074E+00  7.72261074E+00
 -1.54452215E+01  7.72261074E+00  7.72261074E+00 -1.54452215E+01  7.72261074E+00
  7.72261074E+00 -1.54452215E+01  7.72261074E+00  7.72261074E+00 -1.54452215E+01
  7.72261074E+00  7.72261074E+00 -1.54452215E+01  7.72261074E+00  7.72261074E+00
 -1.54452215E+01  7.72261074E+00  7.72261074E+00 -1.54452215E+01  7.72261074E+00
  7.72261074E+00 -1.54452215E+01  7.72261074E+00  7.72261074E+00 -1.54452215E+01
  7.72261074E+00  7.72261074E+00 -1.54452215E+01  7.72261074E+00  7.72261074E+00
 -1.54452215E+01  7.72261074E+00  7.72261074E+00 -1.54452215E+01  7.72261074E+00
  7.72261074E+00 -1.54452215E+01  7.72261074E+00  7.72261074E+00 -1.54452215E+01
  7.72261074E+00  7.72261074E+00 -1.54452215E+01  7.72261074E+00  7.72261074E+00
 -1.54452215E+01  7.72261074E+00  7.72261074E+00 -1.54452215E+01  7.72261074E+00
  7.72261074E+00 -1.54452215E+01  7.72261074E+00  7.72261074E+00 -1.54452215E+01
  7.72261074E+00  7.72261074E+00 -1.54452215E+01  7.72261074E+00  7.72261074E+00
 -1.54452215E+01  7.72261074E+00  7.72261074E+00 -1.54452215E+01  7.72261074E+00
  7.72261074E+00 -1.54452215E+01  7.72261074E+00  7.72261074E+00 -1.54452215E+01
  7.72261074E+00  7.72261074E+00 -1.54452215E+01  7.72261074E+00  7.72261074E+00
 -1.54452215E+01  7.72261074E+00  7.72261074E+00 -1.54452215E+01  7.72261074E+00
  7.72261074E+00 -1.54452215E+01  7.72261074E+00  7.72261074E+00 -1.54452215E+01
  7.72261074E+00  7.72261074E+00 -1.54452215E+01  7.72261074E+00  7.72261074E+00
 -1.54452215E+01  7.72261074E+00  7.72261074E+00 -1.54452215E+01  7.72261074E+00
  7.72261074E+00 -1.54452215E+01  7.72261074E+00  7.72261074E+00 -1.54452215E+01
  7.72261074E+00  7.72261074E+00 -1.54452215E+01  7.72261074E+00  7.72261074E+00
 -1.54452215E+01  7.72261074E+00  7.72261074E+00 -1.54452215E+01  7.72261074E+00
  7.72261074E+00 -1.54452215E+01  7.72261074E+00  7.72261074E+00 -1.54452215E+01
  7.72261074E+00  7.72261074E+00 -1.54452215E+01  7.72261074E+00  7.72261074E+00
 -1.54452215E+01  7.72261074E+00  7.72261074E+00 -1.54452215E+01  7.72261074E+00
  7.72261074E+00 -1.54452215E+01  7.72261074E+00  7.72261074E+00 -1.54452215E+01
  7.72261074E+00  7.72261074E+00 -1.54452215E+01  7.72261074E+00  7.72261074E+00
 -1.54452215E+01  7.72261074E+00  7.72261074E+00 -1.54452215E+01  7.72261074E+00
  7.72261074E+00 -1.54452215E+01  7.72261074E+00  7.72261074E+00 -1.54452215E+01
  7.72261074E+00  7.72261074E+00 -1.54452215E+01  7.72261074E+00  7.72261074E+00
 -1.54452215E+01  7.72261074E+00  7.72261074E+00 -1.54452215E+01  7.72261074E+00
  7.72261074E+00 -1.54452215E+01  7.72261074E+00  7.72261074E+00 -1.54452215E+01
  7.72261074E+00  7.72261074E+00 -1.54452215E+01  7.72261074E+00  7.72261074E+00
 -1.54452215E+01  7.72261074E+00  7.72261074E+00 -1.54452215E+01  7.72261074E+00
  7.72261074E+00 -1.54452215E+01  7.72261074E+00  7.72261074E+00 -1.54452215E+01
  7.72261074E+00  7.72261074E+00 -1.54452215E+01  7.72261074E+00  7.72261074E+00
 -1.54452215E+01  7.72261074E+00  7.72261074E+00 -1.54452215E+01  7.72261074E+00
  7.72261074E+00 -1.54452215E+01  7.72261074E+00  7.72261074E+00 -1.54452215E+01
  7.72261074E+00  7.72261074E+00 -1.54452215E+01  7.72261074E+00  7.72261074E+00
 -1.54452215E+01  7.72261074E+00  7.72261074E+00 -1.54452215E+01  7.72261074E+00
  7.72261074E+00 -1.54452215E+01  7.72261074E+00  7.72261074E+00 -1.54452215E+01
  7.72261074E+00  7.72261074E+00 -1.54452215E+01  7.72261074E+00  7.72261074E+00
 -1.54452215E+01  7.72261074E+00  7.72261074E+00 -1.54452215E+01  7.72261074E+00
  7.72261074E+00 -1.54452215E+01  7.72261074E+00  7.72261074E+00 -1.54452215E+01
  7.72261074E+00  7.72261074E+00 -1.54452215E+01  7.72261074E+00  7.72261074E+00
 -1.54452215E+01  7.72261074E+00  7.72261074E+00 -1.54452215E+01  7.72261074E+00
  7.72261074E+00 -1.54452215E+01  7.72261074E+00  7.72261074E+00 -1.54452215E+01
  7.72261074E+00  7.72261074E+00 -1.54452215E+01  7.72261074E+00  7.72261074E+00
 -1.54452215E+01  7.72261074E+00  7.72261074E+00 -1.54452215E+01  7.72261074E+00
  7.72261074E+00 -1.54452215E+01  7.72261074E+00  7.72261074E+00 -1.54452215E+01
  7.72261074E+00  7.72261074E+00 -1.54452215E+01  7.72261074E+00  7.72261074E+00
 -1.54452215E+01  7.72261074E+00  7.72261074E+00 -1.54452215E+01  7.72261074E+00
  7.72261074E+00 -1.54452215E+01  7.72261074E+00  7.72261074E+00 -1.54452215E+01
  7.72261074E+00  7.72261074E+00 -1.54452215E+01  7.72261074E+00  7.72261074E+00
 -1.54452215E+01  7.72261074E+00  7.72261074E+00 -1.54452215E+01  7.72261074E+00
  7.72261074E+00 -1.54452215E+01  7.72261074E+00  7.72261074E+00 -1.54452215E+01
  7.72261074E+00  7.72261074E+00 -1.54452215E+01  7.72261074E+00  7.72261074E+00
 -1.54452215E+01  7.72261074E+00  7.72261074E+00 -1.54452215E+01  7.72261074E+00
  7.72261074E+00 -1.54452215E+01  7.72261074E+00  7.72261074E+00 -1.54452215E+01
  7.72261074E+00  7.72261074E+00 -1.54452215E+01  7.72261074E+00  7.72261074E+00
 -1.54452215E+01  7.72261074E+00  7.72261074E+00 -1.54452215E+01  7.72261074E+00
  7.72261074E+00 -1.54452215E+01  7.72261074E+00  7.72261074E+00 -1.54452215E+01
  7.72261074E+00  7.72261074E+00 -1.54452215E+01  7.72261074E+00  7.72261074E+00
 -1.54452215E+01  7.72261074E+00  7.72261074E+00 -1.54452215E+01  7.72261074E+00
  7.72261074E+00 -1.54452215E+01  7.72261074E+00  7.72261074E+00 -1.54452215E+01
  7.72261074E+00  7.72261074E+00 -1.54452215E+01  7.72261074E+00  7.72261074E+00
 -1.54452215E+01  7.72261074E+00  7.72261074E+00 -1.54452215E+01  7.72261074E+00
  7.72261074E+00 -1.54452215E+01  7.72261074E+00  7.72261074E+00 -1.54452215E+01
  7.72261074E+00  7.72261074E+00 -1.54452215E+01  7.72261074E+00  7.72261074E+00
 -1.54452215E+01  7.72261074E+00  7.72261074E+00 -1.54452215E+01  7.72261074E+00
  7.72261074E+00 -1.54452215E+01  7.72261074E+00  7.72261074E+00 -1.54452215E+01
  7.72261074E+00  7.72261074E+00 -1.54452215E+01  7.72261074E+00  7.72261074E+00
 -1.54452215E+01  7.72261074E+00  7.72261074E+00 -1.54452215E+01  7.72261074E+00
  7.72261074E+00 -1.54452215E+01  7.72261074E+00  7.72261074E+00 -1.54452215E+01
  7.72261074E+00  7.72261074E+00 -1.54452215E+01  7.72261074E+00  7.72261074E+00
 -1.54452215E+01  7.72261074E+00  7.72261074E+00 -1.54452215E+01  7.72261074E+00
  7.72261074E+00 -1.54452215E+01  7.72261074E+00  7.72261074E+00 -1.54452215E+01
  7.72261074E+00  7.72261074E+00 -1.54452215E+01  7.72261074E+00  7.72261074E+00
 -1.54452215E+01  7.72261074E+00  7.72261074E+00 -1.54452215E+01  7.72261074E+00
  7.72261074E+00 -1.54452215E+01  7.72261074E+00  7.72261074E+00 -1.54452215E+01
  7.72261074E+00  7.72261074E+00 -1.54452215E+01  7.72261074E+00  7.72261074E+00
 -1.54452215E+01  7.72261074E+00  7.72261074E+00 -1.54452215E+01  7.72261074E+00
  7.72261074E+00 -1.54452215E+01  7.72261074E+00  7.72261074E+00 -1.54452215E+01
  7.72261074E+00  7.72261074E+00 -1.54452215E+01  7.72261074E+00  7.72261074E+00
 -1.54452215E+01  7.72261074E+00  7.72261074E+00 -1.54452215E+01  7.72261074E+00
  7.72261074E+00 -1.54452215E+01  7.72261074E+00  7.72261074E+00 -1.54452215E+01
  7.72261074E+00  7.72261074E+00 -1.54452215E+01  7.72261074E+00  7.72261074E+00
 -1.54452215E+01  7.72261074E+00  7.72261074E+00 -1.54452215E+01  7.72261074E+00
  7.72261074E+00 -1.54452215E+01  7.72261074E+00  7.72261074E+00 -1.54452215E+01
  7.72261074E+00  7.72261074E+00 -1.54452215E+01  7.72261074E+00  7.72261074E+00
 -1.54452215E+01  7.72261074E+00  7.72261074E+00 -1.54452215E+01  7.72261074E+00
  7.72261074E+00 -1.54452215E+01  7.72261074E+00  7.72261074E+00 -1.54452215E+01
  7.72261074E+00  7.72261074E+00 -1.54452215E+01  7.72261074E+00  7.72261074E+00
 -1.54452215E+01  7.72261074E+00  7.72261074E+00 -1.54452215E+01  7.72261074E+00
  7.72261074E+00 -1.54452215E+01  7.72261074E+00  7.72261074E+00 -1.54452215E+01
  7.72261074E+00  7.72261074E+00 -1.54452215E+01  7.72261074E+00  7.72261074E+00
 -1.54452215E+01  7.72261074E+00  7.72261074E+00 -1.54452215E+01  7.72261074E+00
  7.72261074E+00 -1.54452215E+01  7.72261074E+00  7.72261074E+00 -1.54452215E+01
  7.72261074E+00  7.72261074E+00 -1.54452215E+01  7.72261074E+00  7.72261074E+00
 -1.54452215E+01  7.72261074E+00  7.72261074E+00 -1.54452215E+01  7.72261074E+00
  7.72261074E+00 -1.54452215E+01  7.72261074E+00  7.72261074E+00 -1.54452215E+01
  7.72261074E+00  7.72261074E+00 -1.54452215E+01  7.72261074E+00  7.72261074E+00
 -1.54452215E+01  7.72261074E+00  7.72261074E+00 -1.54452215E+01  7.72261074E+00
  7.72261074E+00 -1.54452215E+01  7.72261074E+00  7.72261074E+00 -1.54452215E+01
  7.72261074E+00  7.72261074E+00 -1.54452215E+01  7.72261074E+00  7.72261074E+00
 -1.54452215E+01  7.72261074E+00  7.72261074E+00 -1.54452215E+01  7.72261074E+00
  7.72261074E+00 -1.54452215E+01  7.72261074E+00  7.72261074E+00 -1.54452215E+01
  7.72261074E+00  7.72261074E+00 -1.54452215E+01  7.72261074E+00  7.72261074E+00
 -1.54452215E+01  7.72261074E+00  7.72261074E+00 -1.54452215E+01  7.72261074E+00
  7.72261074E+00 -1.54452215E+01  7.72261074E+00  7.72261074E+00 -1.54452215E+01
  7.72261074E+00  7.72261074E+00 -1.54452215E+01  7.72261074E+00  7.72261074E+00
 -1.54452215E+01  7.72261074E+00  7.72261074E+00 -1.54452215E+01  7.72261074E+00
  7.72261074E+00 -1.54452215E+01  7.72261074E+00  7.72261074E+00 -1.54452215E+01
  7.72261074E+00  7.72261074E+00 -1.54452215E+01  7.72261074E+00  7.72261074E+00
 -1.54452215E+01  7.72261074E+00  7.72261074E+00 -1.54452215E+01  7.72261074E+00
  7.72261074E+00 -1.54452215E+01  7.72261074E+00  7.72261074E+00 -1.54452215E+01
  7.72261074E+00  7.72261074E+00 -1.54452215E+01  7.72261074E+00  7.72261074E+00
 -1.54452215E+01  7.72261074E+00  7.72261074E+00 -1.54452215E+01  7.72261074E+00
  7.72261074E+00 -1.54452215E+01  7.72261074E+00  7.72261074E+00 -1.54452215E+01
  7.72261074E+00  7.72261074E+00 -1.54452215E+01  7.72261074E+00  7.72261074E+00
 -1.54452215E+01  7.72261074E+00  7.72261074E+00 -1.54452215E+01  7.72261074E+00
  7.72261074E+00 -1.54452215E+01  7.72261074E+00  7.72261074E+00 -1.54452215E+01
  7.72261074E+00  7.72261074E+00 -1.54452215E+01  7.72261074E+00  7.72261074E+00
 -1.54452215E+01  7.72261074E+00  7.72261074E+00 -1.54452215E+01  7.72261074E+00
  7.72261074E+00 -1.54452215E+01  7.72261074E+00  7.72261074E+00 -1.54452215E+01
  7.72261074E+00  7.72261074E+00 -1.54452215E+01  7.72261074E+00  7.72261074E+00
 -1.54452215E+01  7.72261074E+00  7.72261074E+00 -1.54452215E+01  7.72261074E+00
  7.72261074E+00 -1.54452215E+01  7.72261074E+00  7.72261074E+00 -1.54452215E+01
  7.72261074E+00  7.72261074E+00 -1.54452215E+01  7.72261074E+00  7.72261074E+00
 -1.54452215E+01  7.72261074E+00  7.72261074E+00 -1.54452215E+01  7.72261074E+00
  7.72261074E+00 -1.54452215E+01  7.72261074E+00  7.72261074E+00 -1.54452215E+01
  7.72261074E+00  7.72261074E+00 -1.54452215E+01  7.72261074E+00  7.72261074E+00
 -1.54452215E+01  7.72261074E+00  7.72261074E+00 -1.54452215E+01  7.72261074E+00
  7.72261074E+00 -1.54452215E+01  7.72261074E+00  7.72261074E+00 -1.54452215E+01
  7.72261074E+00  7.72261074E+00 -1.54452215E+01  7.72261074E+00  7.72261074E+00
 -1.54452215E+01  7.72261074E+00  7.72261074E+00 -1.54452215E+01  7.72261074E+00
  7.72261074E+00 -1.54452215E+01  7.72261074E+00  7.72261074E+00 -1.54452215E+01
  7.72261074E+00  7.72261074E+00 -1.54452215E+01  7.72261074E+00  7.72261074E+00
 -1.54452215E+01  7.72261074E+00  7.72261074E+00 -1.54452215E+01  7.72261074E+00
  7.72261074E+00 -1.54452215E+01  7.72261074E+00  7.72261074E+00 -1.54452215E+01
  7.72261074E+00  7.72261074E+00 -1.54452215E+01  7.72261074E+00  7.72261074E+00
 -1.54452215E+01  7.72261074E+00  7.72261074E+00 -1.54452215E+01  7.72261074E+00
  7.72261074E+00 -1.54452215E+01  7.72261074E+00  7.72261074E+00 -1.54452215E+01
  7.72261074E+00  7.72261074E+00 -1.54452215E+01  7.72261074E+00  7.72261074E+00
 -1.54452215E+01  7.72261074E+00  7.72261074E+00 -1.54452215E+01  7.72261074E+00
  7.72261074E+00 -1.54452215E+01  7.72261074E+00  7.72261074E+00 -1.54452215E+01
  7.72261074E+00  7.72261074E+00 -1.54452215E+01  7.72261074E+00  7.72261074E+00
 -1.54452215E+01  7.72261074E+00  7.72261074E+00 -1.54452215E+01  7.72261074E+00
  7.72261074E+00 -1.54452215E+01  7.72261074E+00  7.72261074E+00 -1.54452215E+01
  7.72261074E+00  7.72261074E+00 -1.54452215E+01  7.72261074E+00  7.72261074E+00
 -1.54452215E+01  7.72261074E+00  7.72261074E+00 -1.54452215E+01  7.72261074E+00
  7.72261074E+00 -1.54452215E+01  7.72261074E+00  7.72261074E+00 -1.54452215E+01
  7.72261074E+00  7.72261074E+00 -1.54452215E+01  7.72261074E+00  7.72261074E+00
 -1.54452215E+01  7.72261074E+00  7.72261074E+00 -1.54452215E+01  7.72261074E+00
  7.72261074E+00 -1.54452215E+01  7.72261074E+00  7.72261074E+00 -1.54452215E+01
  7.72261074E+00  7.72261074E+00 -1.54452215E+01  7.72261074E+00  7.72261074E+00
 -1.54452215E+01  7.72261074E+00  7.72261074E+00 -1.54452215E+01  7.72261074E+00
  7.72261074E+00 -1.54452215E+01  7.72261074E+00  7.72261074E+00 -1.54452215E+01
  7.72261074E+00  7.72261074E+00 -1.54452215E+01  7.72261074E+00  7.72261074E+00
 -1.54452215E+01  7.72261074E+00  7.72261074E+00 -1.54452215E+01  7.72261074E+00
  7.72261074E+00 -1.54452215E+01  7.72261074E+00  7.72261074E+00 -1.54452215E+01
  7.72261074E+00  7.72261074E+00 -1.54452215E+01  7.72261074E+00  7.72261074E+00
 -1.54452215E+01  7.72261074E+00  7.72261074E+00 -1.54452215E+01  7.72261074E+00
  7.72261074E+00 -1.54452215E+01  7.72261074E+00  7.72261074E+00 -1.54452215E+01
  7.72261074E+00  7.72261074E+00 -1.54452215E+01  7.72261074E+00  7.72261074E+00
 -1.54452215E+01  7.72261074E+00  7.72261074E+00 -1.54452215E+01  7.72261074E+00
  7.72261074E+00 -1.54452215E+01  7.72261074E+00  7.72261074E+00 -1.54452215E+01
  7.72261074E+00  7.72261074E+00 -1.54452215E+01  7.72261074E+00  7.72261074E+00
 -1.54452215E+01  7.72261074E+00  7.72261074E+00 -1.54452215E+01  7.72261074E+00
  7.72261074E+00 -1.54452215E+01  7.72261074E+00  7.72261074E+00 -1.54452215E+01
  7.72261074E+00  7.72261074E+00 -1.54452215E+01  7.72261074E+00  7.72261074E+00
 -1.54452215E+01  7.72261074E+00  7.72261074E+00 -1.54452215E+01  7.72261074E+00
  7.72261074E+00 -1.54452215E+01  7.72261074E+00  7.72261074E+00 -1.54452215E+01
  7.72261074E+00  7.72261074E+00 -1.54452215E+01  7.72261074E+00  7.72261074E+00
 -1.54452215E+01  7.72261074E+00  7.72261074E+00 -1.54452215E+01  7.72261074E+00
  7.72261074E+00 -1.54452215E+01  7.72261074E+00  7.72261074E+00 -1.54452215E+01
  7.72261074E+00  7.72261074E+00 -1.54452215E+01  7.72261074E+00  7.72261074E+00
 -1.54452215E+01  7.72261074E+00  7.72261074E+00 -1.54452215E+01  7.72261074E+00
  7.72261074E+00 -1.54452215E+01  7.72261074E+00  7.72261074E+00 -1.54452215E+01
  7.72261074E+00  7.72261074E+00 -1.54452215E+01  7.72261074E+00  7.72261074E+00
 -1.54452215E+01  7.72261074E+00  7.72261074E+00 -1.54452215E+01  7.72261074E+00
  7.72261074E+00 -1.54452215E+01  7.72261074E+00  7.72261074E+00 -1.54452215E+01
  7.72261074E+00  7.72261074E+00 -1.54452215E+01  7.72261074E+00  7.72261074E+00
 -1.54452215E+01  7.72261074E+00  7.72261074E+00 -1.54452215E+01  7.72261074E+00
  7.72261074E+00 -1.54452215E+01  7.72261074E+00  7.72261074E+00 -1.54452215E+01
  7.72261074E+00  7.72261074E+00 -1.54452215E+01  7.72261074E+00  7.72261074E+00
 -1.54452215E+01  7.72261074E+00  7.72261074E+00 -1.54452215E+01  7.72261074E+00
  7.72261074E+00 -1.54452215E+01  7.72261074E+00  7.72261074E+00 -1.54452215E+01
  7.72261074E+00  7.72261074E+00 -1.54452215E+01  7.72261074E+00  7.72261074E+00
 -1.54452215E+01  7.72261074E+00  7.72261074E+00 -1.54452215E+01  7.72261074E+00
  7.72261074E+00 -1.54452215E+01  7.72261074E+00  7.72261074E+00 -1.54452215E+01
  7.72261074E+00  7.72261074E+00 -1.54452215E+01  7.72261074E+00  7.72261074E+00
 -1.54452215E+01  7.72261074E+00  7.72261074E+00 -1.54452215E+01  7.72261074E+00
  7.72261074E+00 -1.54452215E+01  7.72261074E+00  7.72261074E+00 -1.54452215E+01
  7.72261074E+00  7.72261074E+00 -1.54452215E+01  7.72261074E+00  7.72261074E+00
 -1.54452215E+01  7.72261074E+00  7.72261074E+00 -1.54452215E+01  7.72261074E+00
  7.72261074E+00 -1.54452215E+01  7.72261074E+00  7.72261074E+00 -1.54452215E+01
  7.72261074E+00  7.72261074E+00 -1.54452215E+01  7.72261074E+00  7.72261074E+00
 -1.54452215E+01  7.72261074E+00  7.72261074E+00 -1.54452215E+01  7.72261074E+00
  7.72261074E+00 -1.54452215E+01  7.72261074E+00  7.72261074E+00 -1.54452215E+01
  7.72261074E+00  7.72261074E+00 -1.54452215E+01  7.72261074E+00  7.72261074E+00
 -1.54452215E+01  7.72261074E+00  7.72261074E+00 -1.54452215E+01  7.72261074E+00
  7.72261074E+00 -1.54452215E+01  7.72261074E+00  7.72261074E+00 -1.54452215E+01
  7.72261074E+00  7.72261074E+00 -1.54452215E+01  7.72261074E+00  7.72261074E+00
 -1.54452215E+01  7.72261074E+00  7.72261074E+00 -1.54452215E+01  7.72261074E+00
  7.72261074E+00 -1.54452215E+01  7.72261074E+00  7.72261074E+00 -1.54452215E+01
  7.72261074E+00  7.72261074E+00 -1.54452215E+01  7.72261074E+00  7.72261074E+00
 -1.54452215E+01  7.72261074E+00  7.72261074E+00 -1.54452215E+01  7.72261074E+00
  7.72261074E+00 -1.54452215E+01  7.72261074E+00  7.72261074E+00 -1.54452215E+01
  7.72261074E+00  7.72261074E+00 -1.54452215E+01  7.72261074E+00  7.72261074E+00
 -1.54452215E+01  7.72261074E+00  7.72261074E+00 -1.54452215E+01  7.72261074E+00
  7.72261074E+00 -1.54452215E+01  7.72261074E+00  7.72261074E+00 -1.54452215E+01
  7.72261074E+00  7.72261074E+00 -1.54452215E+01  7.72261074E+00  7.72261074E+00
 -1.54452215E+01  7.72261074E+00  7.72261074E+00 -1.54452215E+01  7.72261074E+00
  7.72261074E+00 -1.54452215E+01  7.72261074E+00  7.72261074E+00 -1.54452215E+01
  7.72261074E+00  7.72261074E+00 -1.54452215E+01  7.72261074E+00  7.72261074E+00
 -1.54452215E+01  7.72261074E+00  7.72261074E+00 -1.54452215E+01  7.72261074E+00
  7.72261074E+00 -1.54452215E+01  7.72261074E+00  7.72261074E+00 -1.54452215E+01
  7.72261074E+00  7.72261074E+00 -1.54452215E+01  7.72261074E+00  7.72261074E+00
 -1.54452215E+01  7.72261074E+00  7.72261074E+00 -1.54452215E+01  7.72261074E+00
  7.72261074E+00 -1.54452215E+01  7.72261074E+00  7.72261074E+00 -1.54452215E+01
  7.72261074E+00  7.72261074E+00 -1.54452215E+01  7.72261074E+00  7.72261074E+00
 -1.54452215E+01  7.72261074E+00  7.72261074E+00 -1.54452215E+01  7.72261074E+00
  7.72261074E+00 -1.54452215E+01  7.72261074E+00  7.72261074E+00 -1.54452215E+01
  7.72261074E+00  7.72261074E+00 -1.54452215E+01  7.72261074E+00  7.72261074E+00
 -1.54452215E+01  7.72261074E+00  7.72261074E+00 -1.54452215E+01  7.72261074E+00
  7.72261074E+00 -1.54452215E+01  7.72261074E+00  7.72261074E+00 -1.54452215E+01
  7.72261074E+00  7.72261074E+00 -1.54452215E+01  7.72261074E+00  7.72261074E+00
 -1.54452215E+01  7.72261074E+00  7.72261074E+00 -1.54452215E+01  7.72261074E+00
  7.72261074E+00 -1.54452215E+01  7.72261074E+00  7.72261074E+00 -1.54452215E+01
  7.72261074E+00  7.72261074E+00 -1.54452215E+01  7.72261074E+00  7.72261074E+00
 -1.54452215E+01  7.72261074E+00  7.72261074E+00 -1.54452215E+01  7.72261074E+00
  7.72261074E+00 -1.54452215E+01  7.72261074E+00  7.72261074E+00 -1.54452215E+01
  7.72261074E+00  7.72261074E+00 -1.54452215E+01  7.72261074E+00  7.72261074E+00
 -1.54452215E+01  7.72261074E+00  7.72261074E+00 -1.54452215E+01  7.72261074E+00
  7.72261074E+00 -1.54452215E+01  7.72261074E+00  7.72261074E+00 -1.54452215E+01
  7.72261074E+00  7.72261074E+00 -1.54452215E+01  7.72261074E+00  7.72261074E+00
 -1.54452215E+01  7.72261074E+00  7.72261074E+00 -1.54452215E+01  7.72261074E+00
  7.72261074E+00 -1.54452215E+01  7.72261074E+00  7.72261074E+00 -1.54452215E+01
  7.72261074E+00  7.72261074E+00 -1.54452215E+01  7.72261074E+00  7.72261074E+00
 -1.54452215E+01  7.72261074E+00  7.72261074E+00 -1.54452215E+01  7.72261074E+00
  7.72261074E+00 -1.54452215E+01  7.72261074E+00  7.72261074E+00 -1.54452215E+01
  7.72261074E+00  7.72261074E+00 -1.54452215E+01  7.72261074E+00  7.72261074E+00
 -1.54452215E+01  7.72261074E+00  7.72261074E+00 -1.54452215E+01  7.72261074E+00
  7.72261074E+00 -1.54452215E+01  7.72261074E+00  7.72261074E+00 -1.54452215E+01
  7.72261074E+00  7.72261074E+00 -1.54452215E+01  7.72261074E+00  7.72261074E+00
 -1.54452215E+01  7.72261074E+00  7.72261074E+00 -1.54452215E+01  7.72261074E+00
  7.72261074E+00 -1.54452215E+01  7.72261074E+00  7.72261074E+00 -1.54452215E+01
  7.72261074E+00  7.72261074E+00 -1.54452215E+01  7.72261074E+00  7.72261074E+00
 -1.54452215E+01  7.72261074E+00  7.72261074E+00 -1.54452215E+01  7.72261074E+00
  7.72261074E+00 -1.54452215E+01  7.72261074E+00  7.72261074E+00 -1.54452215E+01
  7.72261074E+00  7.72261074E+00 -1.54452215E+01  7.72261074E+00  7.72261074E+00
 -1.54452215E+01  7.72261074E+00  7.72261074E+00 -1.54452215E+01  7.72261074E+00
  7.72261074E+00 -1.54452215E+01  7.72261074E+00  7.72261074E+00 -1.54452215E+01
  7.72261074E+00  7.72261074E+00 -1.54452215E+01  7.72261074E+00  7.72261074E+00
 -1.54452215E+01  7.72261074E+00  7.72261074E+00 -1.54452215E+01  7.72261074E+00
  7.72261074E+00 -1.54452215E+01  7.72261074E+00  7.72261074E+00 -1.54452215E+01
  7.72261074E+00  7.72261074E+00 -1.54452215E+01  7.72261074E+00  7.72261074E+00
 -1.54452215E+01  7.72261074E+00  7.72261074E+00 -1.54452215E+01  7.72261074E+00
  7.72261074E+00 -1.54452215E+01  7.72261074E+00  7.72261074E+00 -1.54452215E+01
  7.72261074E+00  7.72261074E+00 -1.54452215E+01  7.72261074E+00  7.72261074E+00
 -1.54452215E+01  7.72261074E+00  7.72261074E+00 -1.54452215E+01  7.72261074E+00
  7.72261074E+00 -1.54452215E+01  7.72261074E+00  7.72261074E+00 -1.54452215E+01
  7.72261074E+00  7.72261074E+00 -1.54452215E+01  7.72261074E+00  7.72261074E+00
 -1.54452215E+01  7.72261074E+00  7.72261074E+00 -1.54452215E+01  7.72261074E+00
  7.72261074E+00 -1.54452215E+01  7.72261074E+00  7.72261074E+00 -1.54452215E+01
  7.72261074E+00  7.72261074E+00 -1.54452215E+01  7.72261074E+00  7.72261074E+00
 -1.54452215E+01  7.72261074E+00  7.72261074E+00 -1.54452215E+01  7.72261074E+00
  7.72261074E+00 -1.54452215E+01  7.72261074E+00  7.72261074E+00 -1.54452215E+01
  7.72261074E+00  7.72261074E+00 -1.54452215E+01  7.72261074E+00  7.72261074E+00
 -1.54452215E+01  7.72261074E+00  7.72261074E+00 -1.54452215E+01  7.72261074E+00
  7.72261074E+00 -1.54452215E+01  7.72261074E+00  7.72261074E+00 -1.54452215E+01
  7.72261074E+00  7.72261074E+00 -1.54452215E+01  7.72261074E+00  7.72261074E+00
 -1.54452215E+01  7.72261074E+00  7.72261074E+00 -1.54452215E+01  7.72261074E+00
  7.72261074E+00 -1.54452215E+01  7.72261074E+00  7.72261074E+00 -1.54452215E+01
  7.72261074E+00  7.72261074E+00 -1.54452215E+01  7.72261074E+00  7.72261074E+00
 -1.54452215E+01  7.72261074E+00  7.72261074E+00 -1.54452215E+01  7.72261074E+00
  7.72261074E+00 -1.54452215E+01  7.72261074E+00  7.72261074E+00 -1.54452215E+01
  7.72261074E+00  7.72261074E+00 -1.54452215E+01  7.72261074E+00  7.72261074E+00
 -1.54452215E+01  7.72261074E+00  7.72261074E+00 -1.54452215E+01  7.72261074E+00
  7.72261074E+00 -1.54452215E+01  7.72261074E+00  7.72261074E+00 -1.54452215E+01
  7.72261074E+00  7.72261074E+00 -1.54452215E+01  7.72261074E+00  7.72261074E+00
 -1.54452215E+01  7.72261074E+00  7.72261074E+00 -1.54452215E+01  7.72261074E+00
  7.72261074E+00 -1.54452215E+01  7.72261074E+00  7.72261074E+00 -1.54452215E+01
  7.72261074E+00  7.72261074E+00 -1.54452215E+01  7.72261074E+00  7.72261074E+00
 -1.54452215E+01  7.72261074E+00  7.72261074E+00 -1.54452215E+01  7.72261074E+00
  7.72261074E+00 -1.54452215E+01  7.72261074E+00  7.72261074E+00 -1.54452215E+01
  7.72261074E+00  7.72261074E+00 -1.54452215E+01  7.72261074E+00  7.72261074E+00
 -1.54452215E+01  7.72261074E+00  7.72261074E+00 -1.54452215E+01  7.72261074E+00
  7.72261074E+00 -1.54452215E+01  7.72261074E+00  7.72261074E+00 -1.54452215E+01
  7.72261074E+00  7.72261074E+00 -1.54452215E+01  7.72261074E+00  7.72261074E+00
 -1.54452215E+01  7.72261074E+00  7.72261074E+00 -1.54452215E+01  7.72261074E+00
  7.72261074E+00 -1.54452215E+01  7.72261074E+00  7.72261074E+00 -1.54452215E+01
  7.72261074E+00  7.72261074E+00 -1.54452215E+01  7.72261074E+00  7.72261074E+00
 -1.54452215E+01  7.72261074E+00  7.72261074E+00 -1.54452215E+01  7.72261074E+00
  7.72261074E+00 -1.54452215E+01  7.72261074E+00  7.72261074E+00 -1.54452215E+01
  7.72261074E+00  7.72261074E+00 -1.54452215E+01  7.72261074E+00  7.72261074E+00
 -1.54452215E+01  7.72261074E+00  7.72261074E+00 -1.54452215E+01  7.72261074E+00
  7.72261074E+00 -1.54452215E+01  7.72261074E+00  7.72261074E+00 -1.54452215E+01
  7.72261074E+00  7.72261074E+00 -1.54452215E+01  7.72261074E+00  7.72261074E+00
 -1.54452215E+01  7.72261074E+00  7.72261074E+00 -1.54452215E+01  7.72261074E+00
  7.72261074E+00 -1.54452215E+01  7.72261074E+00  7.72261074E+00 -1.54452215E+01
  7.72261074E+00  7.72261074E+00 -1.54452215E+01  7.72261074E+00  7.72261074E+00
 -1.54452215E+01  7.72261074E+00  7.72261074E+00 -1.54452215E+01  7.72261074E+00
  7.72261074E+00 -1.54452215E+01  7.72261074E+00  7.72261074E+00 -1.54452215E+01
  7.72261074E+00  7.72261074E+00 -1.54452215E+01  7.72261074E+00  7.72261074E+00
 -1.54452215E+01  7.72261074E+00  7.72261074E+00 -1.54452215E+01  7.72261074E+00
  7.72261074E+00 -1.54452215E+01  7.72261074E+00  7.72261074E+00 -1.54452215E+01
  7.72261074E+00  7.72261074E+00 -1.54452215E+01  7.72261074E+00  7.72261074E+00
 -1.54452215E+01  7.72261074E+00  7.72261074E+00 -1.54452215E+01  7.72261074E+00
  7.72261074E+00 -1.54452215E+01  7.72261074E+00  7.72261074E+00 -1.54452215E+01
  7.72261074E+00  7.72261074E+00 -1.54452215E+01  7.72261074E+00  7.72261074E+00
 -1.54452215E+01  7.72261074E+00  7.72261074E+00 -1.54452215E+01  7.72261074E+00
  7.72261074E+00 -1.54452215E+01  7.72261074E+00  7.72261074E+00 -1.54452215E+01
  7.72261074E+00  7.72261074E+00 -1.54452215E+01  7.72261074E+00  7.72261074E+00
 -1.54452215E+01  7.72261074E+00  7.72261074E+00 -1.54452215E+01  7.72261074E+00
  7.72261074E+00 -1.54452215E+01  7.72261074E+00  7.72261074E+00 -1.54452215E+01
  7.72261074E+00  7.72261074E+00 -1.54452215E+01  7.72261074E+00  7.72261074E+00
 -1.54452215E+01  7.72261074E+00  7.72261074E+00 -1.54452215E+01  7.72261074E+00
  7.72261074E+00 -1.54452215E+01  7.72261074E+00  7.72261074E+00 -1.54452215E+01
  7.72261074E+00  7.72261074E+00 -1.54452215E+01  7.72261074E+00  7.72261074E+00
 -1.54452215E+01  7.72261074E+00  7.72261074E+00 -1.54452215E+01  7.72261074E+00
  7.72261074E+00 -1.54452215E+01  7.72261074E+00  7.72261074E+00 -1.54452215E+01
  7.72261074E+00  7.72261074E+00 -1.54452215E+01  7.72261074E+00  7.72261074E+00
 -1.54452215E+01  7.72261074E+00  7.72261074E+00 -1.54452215E+01  7.72261074E+00
  7.72261074E+00 -1.54452215E+01  7.72261074E+00  7.72261074E+00 -1.54452215E+01
  7.72261074E+00  7.72261074E+00 -1.54452215E+01  7.72261074E+00  7.72261074E+00
 -1.54452215E+01  7.72261074E+00  7.72261074E+00 -1.54452215E+01  7.72261074E+00
  7.72261074E+00 -1.54452215E+01  7.72261074E+00  7.72261074E+00 -1.54452215E+01
  7.72261074E+00  7.72261074E+00 -1.54452215E+01  7.72261074E+00  7.72261074E+00
 -1.54452215E+01  7.72261074E+00  7.72261074E+00 -1.54452215E+01  7.72261074E+00
  7.72261074E+00 -1.54452215E+01  7.72261074E+00  7.72261074E+00 -1.54452215E+01
  7.72261074E+00  7.72261074E+00 -1.54452215E+01  7.72261074E+00  7.72261074E+00
 -1.54452215E+01  7.72261074E+00  7.72261074E+00 -1.54452215E+01  7.72261074E+00
  7.72261074E+00 -1.54452215E+01  7.72261074E+00  7.72261074E+00 -1.54452215E+01
  7.72261074E+00  7.72261074E+00 -1.54452215E+01  7.72261074E+00  7.72261074E+00
 -1.54452215E+01  7.72261074E+00  7.72261074E+00 -1.54452215E+01  7.72261074E+00
  7.72261074E+00 -1.54452215E+01  7.72261074E+00  7.72261074E+00 -1.54452215E+01
  7.72261074E+00  7.72261074E+00 -1.54452215E+01  7.72261074E+00  7.72261074E+00
 -1.54452215E+01  7.72261074E+00  7.72261074E+00 -1.54452215E+01  7.72261074E+00
  7.72261074E+00 -1.54452215E+01  7.72261074E+00  7.72261074E+00 -1.54452215E+01
  7.72261074E+00  7.72261074E+00 -1.54452215E+01  7.72261074E+00  7.72261074E+00
 -1.54452215E+01  7.72261074E+00  7.72261074E+00 -1.54452215E+01  7.72261074E+00
  7.72261074E+00 -1.54452215E+01  7.72261074E+00  7.72261074E+00 -1.54452215E+01
  7.72261074E+00  7.72261074E+00 -1.54452215E+01  7.72261074E+00  7.72261074E+00
 -1.54452215E+01  7.72261074E+00  7.72261074E+00 -1.54452215E+01  7.72261074E+00
  7.72261074E+00 -1.54452215E+01  7.72261074E+00  7.72261074E+00 -1.54452215E+01
  7.72261074E+00  7.72261074E+00 -1.54452215E+01  7.72261074E+00  7.72261074E+00
 -1.54452215E+01  7.72261074E+00  7.72261074E+00 -1.54452215E+01  7.72261074E+00
  7.72261074E+00 -1.54452215E+01  7.72261074E+00  7.72261074E+00 -1.54452215E+01
  7.72261074E+00  7.72261074E+00 -1.54452215E+01  7.72261074E+00  7.72261074E+00
 -1.54452215E+01  7.72261074E+00  7.72261074E+00 -1.54452215E+01  7.72261074E+00
  7.72261074E+00 -1.54452215E+01  7.72261074E+00  7.72261074E+00 -1.54452215E+01
  7.72261074E+00  7.72261074E+00 -1.54452215E+01  7.72261074E+00  7.72261074E+00
 -1.54452215E+01  7.72261074E+00  7.72261074E+00 -1.54452215E+01  7.72261074E+00
  7.72261074E+00 -1.54452215E+01  7.72261074E+00  7.72261074E+00 -1.54452215E+01
  7.72261074E+00  7.72261074E+00 -1.54452215E+01  7.72261074E+00  7.72261074E+00
 -1.54452215E+01  7.72261074E+00  7.72261074E+00 -1.54452215E+01  7.72261074E+00
  7.72261074E+00 -1.54452215E+01  7.72261074E+00  7.72261074E+00 -1.54452215E+01
  7.72261074E+00  7.72261074E+00 -1.54452215E+01  7.72261074E+00  7.72261074E+00
 -1.54452215E+01  7.72261074E+00  7.72261074E+00 -1.54452215E+01  7.72261074E+00
  7.72261074E+00 -1.54452215E+01  7.72261074E+00  7.72261074E+00 -1.54452215E+01
  7.72261074E+00  7.72261074E+00 -1.54452215E+01  7.72261074E+00  7.72261074E+00
 -1.54452215E+01  7.72261074E+00  7.72261074E+00 -1.54452215E+01  7.72261074E+00
  7.72261074E+00 -1.54452215E+01  7.72261074E+00  7.72261074E+00 -1.54452215E+01
  7.72261074E+00  7.72261074E+00 -1.54452215E+01  7.72261074E+00  7.72261074E+00
 -1.54452215E+01  7.72261074E+00  7.72261074E+00 -1.54452215E+01  7.72261074E+00
  7.72261074E+00 -1.54452215E+01  7.72261074E+00  7.72261074E+00 -1.54452215E+01
  7.72261074E+00  7.72261074E+00 -1.54452215E+01  7.72261074E+00  7.72261074E+00
 -1.54452215E+01  7.72261074E+00  7.72261074E+00 -1.54452215E+01  7.72261074E+00
  7.72261074E+00 -1.54452215E+01  7.72261074E+00  7.72261074E+00 -1.54452215E+01
  7.72261074E+00  7.72261074E+00 -1.54452215E+01  7.72261074E+00  7.72261074E+00
 -1.54452215E+01  7.72261074E+00  7.72261074E+00 -1.54452215E+01  7.72261074E+00
  7.72261074E+00 -1.54452215E+01  7.72261074E+00  7.72261074E+00 -1.54452215E+01
  7.72261074E+00  7.72261074E+00 -1.54452215E+01  7.72261074E+00  7.72261074E+00
 -1.54452215E+01  7.72261074E+00  7.72261074E+00 -1.54452215E+01  7.72261074E+00
  7.72261074E+00 -1.54452215E+01  7.72261074E+00  7.72261074E+00 -1.54452215E+01
  7.72261074E+00  7.72261074E+00 -1.54452215E+01  7.72261074E+00  7.72261074E+00
 -1.54452215E+01  7.72261074E+00  7.72261074E+00 -1.54452215E+01  7.72261074E+00
  7.72261074E+00 -1.54452215E+01  7.72261074E+00  7.72261074E+00 -1.54452215E+01
  7.72261074E+00  7.72261074E+00 -1.54452215E+01  7.72261074E+00  7.72261074E+00
 -1.54452215E+01  7.72261074E+00  7.72261074E+00 -1.54452215E+01  7.72261074E+00
  7.72261074E+00 -1.54452215E+01  7.72261074E+00  7.72261074E+00 -1.54452215E+01
  7.72261074E+00  7.72261074E+00 -1.54452215E+01  7.72261074E+00  7.72261074E+00
 -1.54452215E+01  7.72261074E+00  7.72261074E+00 -1.54452215E+01  7.72261074E+00
  7.72261074E+00 -1.54452215E+01  7.72261074E+00  7.72261074E+00 -1.54452215E+01
  7.72261074E+00  7.72261074E+00 -1.54452215E+01  7.72261074E+00  7.72261074E+00
 -1.54452215E+01  7.72261074E+00  7.72261074E+00 -1.54452215E+01  7.72261074E+00
  7.72261074E+00 -1.54452215E+01  7.72261074E+00  7.72261074E+00 -1.54452215E+01
  7.72261074E+00  7.72261074E+00 -1.54452215E+01  7.72261074E+00  7.72261074E+00
 -1.54452215E+01  7.72261074E+00  7.72261074E+00 -1.54452215E+01  7.72261074E+00
  7.72261074E+00 -1.54452215E+01  7.72261074E+00  7.72261074E+00 -1.54452215E+01
  7.72261074E+00  7.72261074E+00 -1.54452215E+01  7.72261074E+00  7.72261074E+00
 -1.54452215E+01  7.72261074E+00  7.72261074E+00 -1.54452215E+01  7.72261074E+00
  7.72261074E+00 -1.54452215E+01  7.72261074E+00  7.72261074E+00 -1.54452215E+01
  7.72261074E+00  7.72261074E+00 -1.54452215E+01  7.72261074E+00  7.72261074E+00
 -1.54452215E+01  7.72261074E+00  7.72261074E+00 -1.54452215E+01  7.72261074E+00
  7.72261074E+00 -1.54452215E+01  7.72261074E+00  7.72261074E+00 -1.54452215E+01
  7.72261074E+00  7.72261074E+00 -1.54452215E+01  7.72261074E+00  7.72261074E+00
 -1.54452215E+01  7.72261074E+00  7.72261074E+00 -1.54452215E+01  7.72261074E+00
  7.72261074E+00 -1.54452215E+01  7.72261074E+00  7.72261074E+00 -1.54452215E+01
  7.72261074E+00  7.72261074E+00 -1.54452215E+01  7.72261074E+00  7.72261074E+00
 -1.54452215E+01  7.72261074E+00  7.72261074E+00 -1.54452215E+01  7.72261074E+00
  7.72261074E+00 -1.54452215E+01  7.72261074E+00  7.72261074E+00 -1.54452215E+01
  7.72261074E+00  7.72261074E+00 -1.54452215E+01  7.72261074E+00  7.72261074E+00
 -1.54452215E+01  7.72261074E+00  7.72261074E+00 -1.54452215E+01  7.72261074E+00
  7.72261074E+00 -1.54452215E+01  7.72261074E+00  7.72261074E+00 -1.54452215E+01
  7.72261074E+00  7.72261074E+00 -1.54452215E+01  7.72261074E+00  7.72261074E+00
 -1.54452215E+01  7.72261074E+00  7.72261074E+00 -1.54452215E+01  7.72261074E+00
  7.72261074E+00 -1.54452215E+01  7.72261074E+00  7.72261074E+00 -1.54452215E+01
  7.72261074E+00  7.72261074E+00 -1.54452215E+01  7.72261074E+00  7.72261074E+00
 -1.54452215E+01  7.72261074E+00  7.72261074E+00 -1.54452215E+01  7.72261074E+00
  7.72261074E+00 -1.54452215E+01  7.72261074E+00  7.72261074E+00 -1.54452215E+01
  7.72261074E+00  7.72261074E+00 -1.54452215E+01  7.72261074E+00  7.72261074E+00
 -1.54452215E+01  7.72261074E+00  7.72261074E+00 -1.54452215E+01  7.72261074E+00
  7.72261074E+00 -1.54452215E+01  7.72261074E+00  7.72261074E+00 -1.54452215E+01
  7.72261074E+00  7.72261074E+00 -1.54452215E+01  7.72261074E+00  7.72261074E+00
 -1.54452215E+01  7.72261074E+00  7.72261074E+00 -1.54452215E+01  7.72261074E+00
  7.72261074E+00 -1.54452215E+01  7.72261074E+00  7.72261074E+00 -1.54452215E+01
  7.72261074E+00  7.72261074E+00 -1.54452215E+01  7.72261074E+00  7.72261074E+00
 -1.54452215E+01  7.72261074E+00  7.72261074E+00 -1.54452215E+01  7.72261074E+00
  7.72261074E+00 -1.54452215E+01  7.72261074E+00  7.72261074E+00 -1.54452215E+01
  7.72261074E+00  7.72261074E+00 -1.54452215E+01  7.72261074E+00  7.72261074E+00
 -1.54452215E+01  7.72261074E+00  7.72261074E+00 -1.54452215E+01  7.72261074E+00
  7.72261074E+00 -1.54452215E+01  7.72261074E+00  7.72261074E+00 -1.54452215E+01
  7.72261074E+00  7.72261074E+00 -1.54452215E+01  7.72261074E+00  7.72261074E+00
 -1.54452215E+01  7.72261074E+00  7.72261074E+00 -1.54452215E+01  7.72261074E+00
  7.72261074E+00 -1.54452215E+01  7.72261074E+00  7.72261074E+00 -1.54452215E+01
  7.72261074E+00  7.72261074E+00 -1.54452215E+01  7.72261074E+00  7.72261074E+00
 -1.54452215E+01  7.72261074E+00  7.72261074E+00 -1.54452215E+01  7.72261074E+00
  7.72261074E+00 -1.54452215E+01  7.72261074E+00  7.72261074E+00 -1.54452215E+01
  7.72261074E+00  7.72261074E+00 -1.54452215E+01  7.72261074E+00  7.72261074E+00
 -1.54452215E+01  7.72261074E+00  7.72261074E+00 -1.54452215E+01  7.72261074E+00
  7.72261074E+00 -1.54452215E+01  7.72261074E+00  7.72261074E+00 -1.54452215E+01
  7.72261074E+00  7.72261074E+00 -1.54452215E+01  7.72261074E+00  7.72261074E+00
 -1.54452215E+01  7.72261074E+00  7.72261074E+00 -1.54452215E+01  7.72261074E+00
  7.72261074E+00 -1.54452215E+01  7.72261074E+00  7.72261074E+00 -1.54452215E+01
  7.72261074E+00  7.72261074E+00 -1.54452215E+01  7.72261074E+00  7.72261074E+00
 -1.54452215E+01  7.72261074E+00  7.72261074E+00 -1.54452215E+01  7.72261074E+00
  7.72261074E+00 -1.54452215E+01  7.72261074E+00  7.72261074E+00 -1.54452215E+01
  7.72261074E+00  7.72261074E+00 -1.54452215E+01  7.72261074E+00  7.72261074E+00
 -1.54452215E+01  7.72261074E+00  7.72261074E+00 -1.54452215E+01  7.72261074E+00
  7.72261074E+00 -1.54452215E+01  7.72261074E+00  7.72261074E+00 -1.54452215E+01
  7.72261074E+00  7.72261074E+00 -1.54452215E+01  7.72261074E+00  7.72261074E+00
 -1.54452215E+01  7.72261074E+00  7.72261074E+00 -1.54452215E+01  7.72261074E+00
  7.72261074E+00 -1.54452215E+01  7.72261074E+00  7.72261074E+00 -1.54452215E+01
  7.72261074E+00  7.72261074E+00 -1.54452215E+01  7.72261074E+00  7.72261074E+00
 -1.54452215E+01  7.72261074E+00  7.72261074E+00 -1.54452215E+01  7.72261074E+00
  7.72261074E+00 -1.54452215E+01  7.72261074E+00  7.72261074E+00 -1.54452215E+01
  7.72261074E+00  7.72261074E+00 -1.54452215E+01  7.72261074E+00  7.72261074E+00
 -1.54452215E+01  7.72261074E+00  7.72261074E+00 -1.54452215E+01  7.72261074E+00
  7.72261074E+00 -1.54452215E+01  7.72261074E+00  7.72261074E+00 -1.54452215E+01
  7.72261074E+00  7.72261074E+00 -1.54452215E+01  7.72261074E+00  7.72261074E+00
 -1.54452215E+01  7.72261074E+00  7.72261074E+00 -1.54452215E+01  7.72261074E+00
  7.72261074E+00 -1.54452215E+01  7.72261074E+00  7.72261074E+00 -1.54452215E+01
  7.72261074E+00  7.72261074E+00 -1.54452215E+01  7.72261074E+00  7.72261074E+00
 -1.54452215E+01  7.72261074E+00  7.72261074E+00 -1.54452215E+01  7.72261074E+00
  7.72261074E+00 -1.54452215E+01  7.72261074E+00  7.72261074E+00 -1.54452215E+01
  7.72261074E+00  7.72261074E+00 -1.54452215E+01  7.72261074E+00  7.72261074E+00
 -1.54452215E+01  7.72261074E+00  7.72261074E+00 -1.54452215E+01  7.72261074E+00
  7.72261074E+00 -1.54452215E+01  7.72261074E+00  7.72261074E+00 -1.54452215E+01
  7.72261074E+00  7.72261074E+00 -1.54452215E+01  7.72261074E+00  7.72261074E+00
 -1.54452215E+01  7.72261074E+00  7.72261074E+00 -1.54452215E+01  7.72261074E+00
  7.72261074E+00 -1.54452215E+01  7.72261074E+00  7.72261074E+00 -1.54452215E+01
  7.72261074E+00  7.72261074E+00 -1.54452215E+01  7.72261074E+00  7.72261074E+00
 -1.54452215E+01  7.72261074E+00  7.72261074E+00 -1.54452215E+01  7.72261074E+00
  7.72261074E+00 -1.54452215E+01  7.72261074E+00  7.72261074E+00 -1.54452215E+01
  7.72261074E+00  7.72261074E+00 -1.54452215E+01  7.72261074E+00  7.72261074E+00
 -1.54452215E+01  7.72261074E+00  7.72261074E+00 -1.54452215E+01  7.72261074E+00
  7.72261074E+00 -1.54452215E+01  7.72261074E+00  7.72261074E+00 -1.54452215E+01
  7.72261074E+00  7.72261074E+00 -1.54452215E+01  7.72261074E+00  7.72261074E+00
 -1.54452215E+01  7.72261074E+00  7.72261074E+00 -1.54452215E+01  7.72261074E+00
  7.72261074E+00 -1.54452215E+01  7.72261074E+00  7.72261074E+00 -1.54452215E+01
  7.72261074E+00  7.72261074E+00 -1.54452215E+01  7.72261074E+00  7.72261074E+00
 -1.54452215E+01  7.72261074E+00  7.72261074E+00 -1.54452215E+01  7.72261074E+00
  7.72261074E+00 -1.54452215E+01  7.72261074E+00  7.72261074E+00 -1.54452215E+01
  7.72261074E+00  7.72261074E+00 -1.54452215E+01  7.72261074E+00  7.72261074E+00
 -1.54452215E+01  7.72261074E+00  7.72261074E+00 -1.54452215E+01  7.72261074E+00
  7.72261074E+00 -1.54452215E+01  7.72261074E+00  7.72261074E+00 -1.54452215E+01
  7.72261074E+00  7.72261074E+00 -1.54452215E+01  7.72261074E+00  7.72261074E+00
 -1.54452215E+01  7.72261074E+00  7.72261074E+00 -1.54452215E+01  7.72261074E+00
  7.72261074E+00 -1.54452215E+01  7.72261074E+00  7.72261074E+00 -1.54452215E+01
  7.72261074E+00  7.72261074E+00 -1.54452215E+01  7.72261074E+00  7.72261074E+00
 -1.54452215E+01  7.72261074E+00  7.72261074E+00 -1.54452215E+01  7.72261074E+00
  7.72261074E+00 -1.54452215E+01  7.72261074E+00  7.72261074E+00 -1.54452215E+01
  7.72261074E+00  7.72261074E+00 -1.54452215E+01  7.72261074E+00  7.72261074E+00
 -1.54452215E+01  7.72261074E+00  7.72261074E+00 -1.54452215E+01  7.72261074E+00
  7.72261074E+00 -1.54452215E+01  7.72261074E+00  7.72261074E+00 -1.54452215E+01
  7.72261074E+00  7.72261074E+00 -1.54452215E+01  7.72261074E+00  7.72261074E+00
 -1.54452215E+01  7.72261074E+00  7.72261074E+00 -1.54452215E+01  7.72261074E+00
  7.72261074E+00 -1.54452215E+01  7.72261074E+00  7.72261074E+00 -1.54452215E+01
  7.72261074E+00  7.72261074E+00 -1.54452215E+01  7.72261074E+00  7.72261074E+00
 -1.54452215E+01  7.72261074E+00  7.72261074E+00 -1.54452215E+01  7.72261074E+00
  7.72261074E+00 -1.54452215E+01  7.72261074E+00  7.72261074E+00 -1.54452215E+01
  7.72261074E+00  7.72261074E+00 -1.54452215E+01  7.72261074E+00  7.72261074E+00
 -1.54452215E+01  7.72261074E+00  7.72261074E+00 -1.54452215E+01  7.72261074E+00
  7.72261074E+00 -1.54452215E+01  7.72261074E+00  7.72261074E+00 -1.54452215E+01
  7.72261074E+00  7.72261074E+00 -1.54452215E+01  7.72261074E+00  7.72261074E+00
 -1.54452215E+01  7.72261074E+00  7.72261074E+00 -1.54452215E+01  7.72261074E+00
  7.72261074E+00 -1.54452215E+01  7.72261074E+00  7.72261074E+00 -1.54452215E+01
  7.72261074E+00  7.72261074E+00 -1.54452215E+01  7.72261074E+00  7.72261074E+00
 -1.54452215E+01  7.72261074E+00  7.72261074E+00 -1.54452215E+01  7.72261074E+00
  7.72261074E+00 -1.54452215E+01  7.72261074E+00  7.72261074E+00 -1.54452215E+01
  7.72261074E+00  7.72261074E+00 -1.54452215E+01  7.72261074E+00  7.72261074E+00
 -1.54452215E+01  7.72261074E+00  7.72261074E+00 -1.54452215E+01  7.72261074E+00
  7.72261074E+00 -1.54452215E+01  7.72261074E+00  7.72261074E+00 -1.54452215E+01
  7.72261074E+00  7.72261074E+00 -1.54452215E+01  7.72261074E+00  7.72261074E+00
 -1.54452215E+01  7.72261074E+00  7.72261074E+00 -1.54452215E+01  7.72261074E+00
  7.72261074E+00 -1.54452215E+01  7.72261074E+00  7.72261074E+00 -1.54452215E+01
  7.72261074E+00  7.72261074E+00 -1.54452215E+01  7.72261074E+00  7.72261074E+00
 -1.54452215E+01  7.72261074E+00  7.72261074E+00 -1.54452215E+01  7.72261074E+00
  7.72261074E+00 -1.54452215E+01  7.72261074E+00  7.72261074E+00 -1.54452215E+01
  7.72261074E+00  7.72261074E+00 -1.54452215E+01  7.72261074E+00  7.72261074E+00
 -1.54452215E+01  7.72261074E+00  7.72261074E+00 -1.54452215E+01  7.72261074E+00
  7.72261074E+00 -1.54452215E+01  7.72261074E+00  7.72261074E+00 -1.54452215E+01
  7.72261074E+00  7.72261074E+00 -1.54452215E+01  7.72261074E+00  7.72261074E+00
 -1.54452215E+01  7.72261074E+00  7.72261074E+00 -1.54452215E+01  7.72261074E+00
  7.72261074E+00 -1.54452215E+01  7.72261074E+00  7.72261074E+00 -1.54452215E+01
  7.72261074E+00  7.72261074E+00 -1.54452215E+01  7.72261074E+00  7.72261074E+00
 -1.54452215E+01  7.72261074E+00  7.72261074E+00 -1.54452215E+01  7.72261074E+00
  7.72261074E+00 -1.54452215E+01  7.72261074E+00  7.72261074E+00 -1.54452215E+01
  7.72261074E+00  7.72261074E+00 -1.54452215E+01  7.72261074E+00  7.72261074E+00
 -1.54452215E+01  7.72261074E+00  7.72261074E+00 -1.54452215E+01  7.72261074E+00
  7.72261074E+00 -1.54452215E+01  7.72261074E+00  7.72261074E+00 -1.54452215E+01
  7.72261074E+00  7.72261074E+00 -1.54452215E+01  7.72261074E+00  7.72261074E+00
 -1.54452215E+01  7.72261074E+00  7.72261074E+00 -1.54452215E+01  7.72261074E+00
  7.72261074E+00 -1.54452215E+01  7.72261074E+00  7.72261074E+00 -1.54452215E+01
  7.72261074E+00  7.72261074E+00 -1.54452215E+01  7.72261074E+00  7.72261074E+00
 -1.54452215E+01  7.72261074E+00  7.72261074E+00 -1.54452215E+01  7.72261074E+00
  7.72261074E+00 -1.54452215E+01  7.72261074E+00  7.72261074E+00 -1.54452215E+01
  7.72261074E+00  7.72261074E+00 -1.54452215E+01  7.72261074E+00  7.72261074E+00
 -1.54452215E+01  7.72261074E+00  7.72261074E+00 -1.54452215E+01  7.72261074E+00
  7.72261074E+00 -1.54452215E+01  7.72261074E+00  7.72261074E+00 -1.54452215E+01
  7.72261074E+00  7.72261074E+00 -1.54452215E+01  7.72261074E+00  7.72261074E+00
 -1.54452215E+01  7.72261074E+00  7.72261074E+00 -1.54452215E+01  7.72261074E+00
  7.72261074E+00 -1.54452215E+01  7.72261074E+00  7.72261074E+00 -1.54452215E+01
  7.72261074E+00  7.72261074E+00 -1.54452215E+01  7.72261074E+00  7.72261074E+00
 -1.54452215E+01  7.72261074E+00  7.72261074E+00 -1.54452215E+01  7.72261074E+00
  7.72261074E+00 -1.54452215E+01  7.72261074E+00  7.72261074E+00 -1.54452215E+01
  7.72261074E+00  7.72261074E+00 -1.54452215E+01  7.72261074E+00  7.72261074E+00
 -1.54452215E+01  7.72261074E+00  7.72261074E+00 -1.54452215E+01  7.72261074E+00
  7.72261074E+00 -1.54452215E+01  7.72261074E+00  7.72261074E+00 -1.54452215E+01
  7.72261074E+00  7.72261074E+00 -1.54452215E+01  7.72261074E+00  7.72261074E+00
 -1.54452215E+01  7.72261074E+00  7.72261074E+00 -1.54452215E+01  7.72261074E+00
  7.72261074E+00 -1.54452215E+01  7.72261074E+00  7.72261074E+00 -1.54452215E+01
  7.72261074E+00  7.72261074E+00 -1.54452215E+01  7.72261074E+00  7.72261074E+00
 -1.54452215E+01  7.72261074E+00  7.72261074E+00 -1.54452215E+01  7.72261074E+00
  7.72261074E+00 -1.54452215E+01  7.72261074E+00  7.72261074E+00 -1.54452215E+01
  7.72261074E+00  7.72261074E+00 -1.54452215E+01  7.72261074E+00  7.72261074E+00
 -1.54452215E+01  7.72261074E+00  7.72261074E+00 -1.54452215E+01  7.72261074E+00
  7.72261074E+00 -1.54452215E+01  7.72261074E+00  7.72261074E+00 -1.54452215E+01
  7.72261074E+00  7.72261074E+00 -1.54452215E+01  7.72261074E+00  7.72261074E+00
 -1.54452215E+01  7.72261074E+00  7.72261074E+00 -1.54452215E+01  7.72261074E+00
  7.72261074E+00 -1.54452215E+01  7.72261074E+00  7.72261074E+00 -1.54452215E+01
  7.72261074E+00  7.72261074E+00 -1.54452215E+01  7.72261074E+00  7.72261074E+00
 -1.54452215E+01  7.72261074E+00  7.72261074E+00 -1.54452215E+01  7.72261074E+00
  7.72261074E+00 -1.54452215E+01  7.72261074E+00  7.72261074E+00 -1.54452215E+01
  7.72261074E+00  7.72261074E+00 -1.54452215E+01  7.72261074E+00  7.72261074E+00
 -1.54452215E+01  7.72261074E+00  7.72261074E+00 -1.54452215E+01  7.72261074E+00
  7.72261074E+00 -1.54452215E+01  7.72261074E+00  7.72261074E+00 -1.54452215E+01
  7.72261074E+00  7.72261074E+00 -1.54452215E+01  7.72261074E+00  7.72261074E+00
 -1.54452215E+01  7.72261074E+00  7.72261074E+00 -1.54452215E+01  7.72261074E+00
  7.72261074E+00 -1.54452215E+01  7.72261074E+00  7.72261074E+00 -1.54452215E+01
  7.72261074E+00  7.72261074E+00 -1.54452215E+01  7.72261074E+00  7.72261074E+00
 -1.54452215E+01  7.72261074E+00  7.72261074E+00 -1.54452215E+01  7.72261074E+00
  7.72261074E+00 -1.54452215E+01  7.72261074E+00  7.72261074E+00 -1.54452215E+01
  7.72261074E+00  7.72261074E+00 -1.54452215E+01  7.72261074E+00  7.72261074E+00
 -1.54452215E+01  7.72261074E+00  7.72261074E+00 -1.54452215E+01  7.72261074E+00
  7.72261074E+00 -1.54452215E+01  7.72261074E+00  7.72261074E+00 -1.54452215E+01
  7.72261074E+00  7.72261074E+00 -1.54452215E+01  7.72261074E+00  7.72261074E+00
 -1.54452215E+01  7.72261074E+00  7.72261074E+00 -1.54452215E+01  7.72261074E+00
  7.72261074E+00 -1.54452215E+01  7.72261074E+00  7.72261074E+00 -1.54452215E+01
  7.72261074E+00  7.72261074E+00 -1.54452215E+01  7.72261074E+00  7.72261074E+00
 -1.54452215E+01  7.72261074E+00  7.72261074E+00 -1.54452215E+01  7.72261074E+00
  7.72261074E+00 -1.54452215E+01  7.72261074E+00  7.72261074E+00 -1.54452215E+01
  7.72261074E+00  7.72261074E+00 -1.54452215E+01  7.72261074E+00  7.72261074E+00
 -1.54452215E+01  7.72261074E+00  7.72261074E+00 -1.54452215E+01  7.72261074E+00
  7.72261074E+00 -1.54452215E+01  7.72261074E+00  7.72261074E+00 -1.54452215E+01
  7.72261074E+00  7.72261074E+00 -1.54452215E+01  7.72261074E+00  7.72261074E+00
 -1.54452215E+01  7.72261074E+00  7.72261074E+00 -1.54452215E+01  7.72261074E+00
  7.72261074E+00 -1.54452215E+01  7.72261074E+00  7.72261074E+00 -1.54452215E+01
  7.72261074E+00  7.72261074E+00 -1.54452215E+01  7.72261074E+00  7.72261074E+00
 -1.54452215E+01  7.72261074E+00  7.72261074E+00 -1.54452215E+01  7.72261074E+00
  7.72261074E+00 -1.54452215E+01  7.72261074E+00  7.72261074E+00 -1.54452215E+01
  7.72261074E+00  7.72261074E+00 -1.54452215E+01  7.72261074E+00  7.72261074E+00
 -1.54452215E+01  7.72261074E+00  7.72261074E+00 -1.54452215E+01  7.72261074E+00
  7.72261074E+00 -1.54452215E+01  7.72261074E+00  7.72261074E+00 -1.54452215E+01
  7.72261074E+00  7.72261074E+00 -1.54452215E+01  7.72261074E+00  7.72261074E+00
 -1.54452215E+01  7.72261074E+00  7.72261074E+00 -1.54452215E+01  7.72261074E+00
  7.72261074E+00 -1.54452215E+01  7.72261074E+00  7.72261074E+00 -1.54452215E+01
  7.72261074E+00  7.72261074E+00 -1.54452215E+01  7.72261074E+00  7.72261074E+00
 -1.54452215E+01  7.72261074E+00  7.72261074E+00 -1.54452215E+01  7.72261074E+00
  7.72261074E+00 -1.54452215E+01  7.72261074E+00  7.72261074E+00 -1.54452215E+01
  7.72261074E+00  7.72261074E+00 -1.54452215E+01  7.72261074E+00  7.72261074E+00
 -1.54452215E+01  7.72261074E+00  7.72261074E+00 -1.54452215E+01  7.72261074E+00
  7.72261074E+00 -1.54452215E+01  7.72261074E+00  7.72261074E+00 -1.54452215E+01
  7.72261074E+00  7.72261074E+00 -1.54452215E+01  7.72261074E+00  7.72261074E+00
 -1.54452215E+01  7.72261074E+00  7.72261074E+00 -1.54452215E+01  7.72261074E+00
  7.72261074E+00 -1.54452215E+01  7.72261074E+00  7.72261074E+00 -1.54452215E+01
  7.72261074E+00  7.72261074E+00 -1.54452215E+01  7.72261074E+00  7.72261074E+00
 -1.54452215E+01  7.72261074E+00  7.72261074E+00 -1.54452215E+01  7.72261074E+00
  7.72261074E+00 -1.54452215E+01  7.72261074E+00  7.72261074E+00 -1.54452215E+01
  7.72261074E+00  7.72261074E+00 -1.54452215E+01  7.72261074E+00  7.72261074E+00
 -1.54452215E+01  7.72261074E+00  7.72261074E+00 -1.54452215E+01  7.72261074E+00
  7.72261074E+00 -1.54452215E+01  7.72261074E+00  7.72261074E+00 -1.54452215E+01
  7.72261074E+00  7.72261074E+00 -1.54452215E+01  7.72261074E+00  7.72261074E+00
 -1.54452215E+01  7.72261074E+00  7.72261074E+00 -1.54452215E+01  7.72261074E+00
  7.72261074E+00 -1.54452215E+01  7.72261074E+00  7.72261074E+00 -1.54452215E+01
  7.72261074E+00  7.72261074E+00 -1.54452215E+01  7.72261074E+00  7.72261074E+00
 -1.54452215E+01  7.72261074E+00  7.72261074E+00 -1.54452215E+01  7.72261074E+00
  7.72261074E+00 -1.54452215E+01  7.72261074E+00  7.72261074E+00 -1.54452215E+01
  7.72261074E+00  7.72261074E+00 -1.54452215E+01  7.72261074E+00  7.72261074E+00
 -1.54452215E+01  7.72261074E+00  7.72261074E+00 -1.54452215E+01  7.72261074E+00
  7.72261074E+00 -1.54452215E+01  7.72261074E+00  7.72261074E+00 -1.54452215E+01
  7.72261074E+00  7.72261074E+00 -1.54452215E+01  7.72261074E+00  7.72261074E+00
 -1.54452215E+01  7.72261074E+00  7.72261074E+00 -1.54452215E+01  7.72261074E+00
  7.72261074E+00 -1.54452215E+01  7.72261074E+00  7.72261074E+00 -1.54452215E+01
  7.72261074E+00  7.72261074E+00 -1.54452215E+01  7.72261074E+00  7.72261074E+00
 -1.54452215E+01  7.72261074E+00  7.72261074E+00 -1.54452215E+01  7.72261074E+00
  7.72261074E+00 -1.54452215E+01  7.72261074E+00  7.72261074E+00 -1.54452215E+01
  7.72261074E+00  7.72261074E+00 -1.54452215E+01  7.72261074E+00  7.72261074E+00
 -1.54452215E+01  7.72261074E+00  7.72261074E+00 -1.54452215E+01  7.72261074E+00
  7.72261074E+00 -1.54452215E+01  7.72261074E+00  7.72261074E+00 -1.54452215E+01
  7.72261074E+00  7.72261074E+00 -1.54452215E+01  7.72261074E+00  7.72261074E+00
 -1.54452215E+01  7.72261074E+00  7.72261074E+00 -1.54452215E+01  7.72261074E+00
  7.72261074E+00 -1.54452215E+01  7.72261074E+00  7.72261074E+00 -1.54452215E+01
  7.72261074E+00  7.72261074E+00 -1.54452215E+01  7.72261074E+00  7.72261074E+00
 -1.54452215E+01  7.72261074E+00  7.72261074E+00 -1.54452215E+01  7.72261074E+00
  7.72261074E+00 -1.54452215E+01  7.72261074E+00  7.72261074E+00 -1.54452215E+01
  7.72261074E+00  7.72261074E+00 -1.54452215E+01  7.72261074E+00  7.72261074E+00
 -1.54452215E+01  7.72261074E+00  7.72261074E+00 -1.54452215E+01  7.72261074E+00
  7.72261074E+00 -1.54452215E+01  7.72261074E+00  7.72261074E+00 -1.54452215E+01
  7.72261074E+00  7.72261074E+00 -1.54452215E+01  7.72261074E+00  7.72261074E+00
 -1.54452215E+01  7.72261074E+00  7.72261074E+00 -1.54452215E+01  7.72261074E+00
  7.72261074E+00 -1.54452215E+01  7.72261074E+00  7.72261074E+00 -1.54452215E+01
  7.72261074E+00  7.72261074E+00 -1.54452215E+01  7.72261074E+00  7.72261074E+00
 -1.54452215E+01  7.72261074E+00  7.72261074E+00 -1.54452215E+01  7.72261074E+00
  7.72261074E+00 -1.54452215E+01  7.72261074E+00  7.72261074E+00 -1.54452215E+01
  7.72261074E+00  7.72261074E+00 -1.54452215E+01  7.72261074E+00  7.72261074E+00
 -1.54452215E+01  7.72261074E+00  7.72261074E+00 -1.54452215E+01  7.72261074E+00
  7.72261074E+00 -1.54452215E+01  7.72261074E+00  7.72261074E+00 -1.54452215E+01
  7.72261074E+00  7.72261074E+00 -1.54452215E+01  7.72261074E+00  7.72261074E+00
 -1.54452215E+01  7.72261074E+00  7.72261074E+00 -1.54452215E+01  7.72261074E+00
  7.72261074E+00 -1.54452215E+01  7.72261074E+00  7.72261074E+00 -1.54452215E+01
  7.72261074E+00  7.72261074E+00 -1.54452215E+01  7.72261074E+00  7.72261074E+00
 -1.54452215E+01  7.72261074E+00  7.72261074E+00 -1.54452215E+01  7.72261074E+00
  7.72261074E+00 -1.54452215E+01  7.72261074E+00  7.72261074E+00 -1.54452215E+01
  7.72261074E+00  7.72261074E+00 -1.54452215E+01  7.72261074E+00  7.72261074E+00
 -1.54452215E+01  7.72261074E+00  7.72261074E+00 -1.54452215E+01  7.72261074E+00
  7.72261074E+00 -1.54452215E+01  7.72261074E+00  7.72261074E+00 -1.54452215E+01
  7.72261074E+00  7.72261074E+00 -1.54452215E+01  7.72261074E+00  7.72261074E+00
 -1.54452215E+01  7.72261074E+00  7.72261074E+00 -1.54452215E+01  7.72261074E+00
  7.72261074E+00 -1.54452215E+01  7.72261074E+00  7.72261074E+00 -1.54452215E+01
  7.72261074E+00  7.72261074E+00 -1.54452215E+01  7.72261074E+00  7.72261074E+00
 -1.54452215E+01  7.72261074E+00  7.72261074E+00 -1.54452215E+01  7.72261074E+00
  7.72261074E+00 -1.54452215E+01  7.72261074E+00  7.72261074E+00 -1.54452215E+01
  7.72261074E+00  7.72261074E+00 -1.54452215E+01  7.72261074E+00  7.72261074E+00
 -1.54452215E+01  7.72261074E+00  7.72261074E+00 -1.54452215E+01  7.72261074E+00
  7.72261074E+00 -1.54452215E+01  7.72261074E+00  7.72261074E+00 -1.54452215E+01
  7.72261074E+00  7.72261074E+00 -1.54452215E+01  7.72261074E+00  7.72261074E+00
 -1.54452215E+01  7.72261074E+00  7.72261074E+00 -1.54452215E+01  7.72261074E+00
  7.72261074E+00 -1.54452215E+01  7.72261074E+00  7.72261074E+00 -1.54452215E+01
  7.72261074E+00  7.72261074E+00 -1.54452215E+01  7.72261074E+00  7.72261074E+00
 -1.54452215E+01  7.72261074E+00  7.72261074E+00 -1.54452215E+01  7.72261074E+00
  7.72261074E+00 -1.54452215E+01  7.72261074E+00  7.72261074E+00 -1.54452215E+01
  7.72261074E+00  7.72261074E+00 -1.54452215E+01  7.72261074E+00  7.72261074E+00
 -1.54452215E+01  7.72261074E+00  7.72261074E+00 -1.54452215E+01  7.72261074E+00
  7.72261074E+00 -1.54452215E+01  7.72261074E+00  7.72261074E+00 -1.54452215E+01
  7.72261074E+00  7.72261074E+00 -1.54452215E+01  7.72261074E+00  7.72261074E+00
 -1.54452215E+01  7.72261074E+00  7.72261074E+00 -1.54452215E+01  7.72261074E+00
  7.72261074E+00 -1.54452215E+01  7.72261074E+00  7.72261074E+00 -1.54452215E+01
  7.72261074E+00  7.72261074E+00 -1.54452215E+01  7.72261074E+00  7.72261074E+00
 -1.54452215E+01  7.72261074E+00  7.72261074E+00 -1.54452215E+01  7.72261074E+00
  7.72261074E+00 -1.54452215E+01  7.72261074E+00  7.72261074E+00 -1.54452215E+01
  7.72261074E+00  7.72261074E+00 -1.54452215E+01  7.72261074E+00  7.72261074E+00
 -1.54452215E+01  7.72261074E+00  7.72261074E+00 -1.54452215E+01  7.72261074E+00
  7.72261074E+00 -1.54452215E+01  7.72261074E+00  7.72261074E+00 -1.54452215E+01
  7.72261074E+00  7.72261074E+00 -1.54452215E+01  7.72261074E+00  7.72261074E+00
 -1.54452215E+01  7.72261074E+00  7.72261074E+00 -1.54452215E+01  7.72261074E+00
  7.72261074E+00 -1.54452215E+01  7.72261074E+00  7.72261074E+00 -1.54452215E+01
  7.72261074E+00  7.72261074E+00 -1.54452215E+01  7.72261074E+00  7.72261074E+00
 -1.54452215E+01  7.72261074E+00  7.72261074E+00 -1.54452215E+01  7.72261074E+00
  7.72261074E+00 -1.54452215E+01  7.72261074E+00  7.72261074E+00 -1.54452215E+01
  7.72261074E+00  7.72261074E+00 -1.54452215E+01  7.72261074E+00  7.72261074E+00
 -1.54452215E+01  7.72261074E+00  7.72261074E+00 -1.54452215E+01  7.72261074E+00
  7.72261074E+00 -1.54452215E+01  7.72261074E+00  7.72261074E+00 -1.54452215E+01
  7.72261074E+00  7.72261074E+00 -1.54452215E+01  7.72261074E+00  7.72261074E+00
 -1.54452215E+01  7.72261074E+00  7.72261074E+00 -1.54452215E+01  7.72261074E+00
  7.72261074E+00 -1.54452215E+01  7.72261074E+00  7.72261074E+00 -1.54452215E+01
  7.72261074E+00  7.72261074E+00 -1.54452215E+01  7.72261074E+00  7.72261074E+00
 -1.54452215E+01  7.72261074E+00  7.72261074E+00 -1.54452215E+01  7.72261074E+00
  7.72261074E+00 -1.54452215E+01  7.72261074E+00  7.72261074E+00 -1.54452215E+01
  7.72261074E+00  7.72261074E+00 -1.54452215E+01  7.72261074E+00  7.72261074E+00
 -1.54452215E+01  7.72261074E+00  7.72261074E+00 -1.54452215E+01  7.72261074E+00
  7.72261074E+00 -1.54452215E+01  7.72261074E+00  7.72261074E+00 -1.54452215E+01
  7.72261074E+00  7.72261074E+00 -1.54452215E+01  7.72261074E+00  7.72261074E+00
 -1.54452215E+01  7.72261074E+00  7.72261074E+00 -1.54452215E+01  7.72261074E+00
  7.72261074E+00 -1.54452215E+01  7.72261074E+00  7.72261074E+00 -1.54452215E+01
  7.72261074E+00  7.72261074E+00 -1.54452215E+01  7.72261074E+00  7.72261074E+00
 -1.54452215E+01  7.72261074E+00  7.72261074E+00 -1.54452215E+01  7.72261074E+00
  7.72261074E+00 -1.54452215E+01  7.72261074E+00  7.72261074E+00 -1.54452215E+01
  7.72261074E+00  7.72261074E+00 -1.54452215E+01  7.72261074E+00  7.72261074E+00
 -1.54452215E+01  7.72261074E+00  7.72261074E+00 -1.54452215E+01  7.72261074E+00
  7.72261074E+00 -1.54452215E+01  7.72261074E+00  7.72261074E+00 -1.54452215E+01
  7.72261074E+00  7.72261074E+00 -1.54452215E+01  7.72261074E+00  7.72261074E+00
 -1.54452215E+01  7.72261074E+00  7.72261074E+00 -1.54452215E+01  7.72261074E+00
  7.72261074E+00 -1.54452215E+01  7.72261074E+00  7.72261074E+00 -1.54452215E+01
  7.72261074E+00  7.72261074E+00 -1.54452215E+01  7.72261074E+00  7.72261074E+00
 -1.54452215E+01  7.72261074E+00  7.72261074E+00 -1.54452215E+01  7.72261074E+00
  7.72261074E+00 -1.54452215E+01  7.72261074E+00  7.72261074E+00 -1.54452215E+01
  7.72261074E+00  7.72261074E+00 -1.54452215E+01  7.72261074E+00  7.72261074E+00
 -1.54452215E+01  7.72261074E+00  7.72261074E+00 -1.54452215E+01  7.72261074E+00
  7.72261074E+00 -1.54452215E+01  7.72261074E+00  7.72261074E+00 -1.54452215E+01
  7.72261074E+00  7.72261074E+00 -1.54452215E+01  7.72261074E+00  7.72261074E+00
 -1.54452215E+01  7.72261074E+00  7.72261074E+00 -1.54452215E+01  7.72261074E+00
  7.72261074E+00 -1.54452215E+01  7.72261074E+00  7.72261074E+00 -1.54452215E+01
  7.72261074E+00  7.72261074E+00 -1.54452215E+01  7.72261074E+00  7.72261074E+00
 -1.54452215E+01  7.72261074E+00  7.72261074E+00 -1.54452215E+01  7.72261074E+00
  7.72261074E+00 -1.54452215E+01  7.72261074E+00  7.72261074E+00 -1.54452215E+01
  7.72261074E+00  7.72261074E+00 -1.54452215E+01  7.72261074E+00  7.72261074E+00
 -1.54452215E+01  7.72261074E+00  7.72261074E+00 -1.54452215E+01  7.72261074E+00
  7.72261074E+00 -1.54452215E+01  7.72261074E+00  7.72261074E+00 -1.54452215E+01
  7.72261074E+00  7.72261074E+00 -1.54452215E+01  7.72261074E+00  7.72261074E+00
 -1.54452215E+01  7.72261074E+00  7.72261074E+00 -1.54452215E+01  7.72261074E+00
  7.72261074E+00 -1.54452215E+01  7.72261074E+00  7.72261074E+00 -1.54452215E+01
  7.72261074E+00  7.72261074E+00 -1.54452215E+01  7.72261074E+00  7.72261074E+00
 -1.54452215E+01  7.72261074E+00  7.72261074E+00 -1.54452215E+01  7.72261074E+00
  7.72261074E+00 -1.54452215E+01  7.72261074E+00  7.72261074E+00 -1.54452215E+01
  7.72261074E+00  7.72261074E+00 -1.54452215E+01  7.72261074E+00  7.72261074E+00
 -1.54452215E+01  7.72261074E+00  7.72261074E+00 -1.54452215E+01  7.72261074E+00
  7.72261074E+00 -1.54452215E+01  7.72261074E+00  7.72261074E+00 -1.54452215E+01
  7.72261074E+00  7.72261074E+00 -1.54452215E+01  7.72261074E+00  7.72261074E+00
 -1.54452215E+01  7.72261074E+00  7.72261074E+00 -1.54452215E+01  7.72261074E+00
  7.72261074E+00 -1.54452215E+01  7.72261074E+00  7.72261074E+00 -1.54452215E+01
  7.72261074E+00  7.72261074E+00 -1.54452215E+01  7.72261074E+00  7.72261074E+00
 -1.54452215E+01  7.72261074E+00  7.72261074E+00 -1.54452215E+01  7.72261074E+00
  7.72261074E+00 -1.54452215E+01  7.72261074E+00  7.72261074E+00 -1.54452215E+01
  7.72261074E+00  7.72261074E+00 -1.54452215E+01  7.72261074E+00  7.72261074E+00
 -1.54452215E+01  7.72261074E+00  7.72261074E+00 -1.54452215E+01  7.72261074E+00
  7.72261074E+00 -1.54452215E+01  7.72261074E+00  7.72261074E+00 -1.54452215E+01
  7.72261074E+00  7.72261074E+00 -1.54452215E+01  7.72261074E+00  7.72261074E+00
 -1.54452215E+01  7.72261074E+00  7.72261074E+00 -1.54452215E+01  7.72261074E+00
  7.72261074E+00 -1.54452215E+01  7.72261074E+00  7.72261074E+00 -1.54452215E+01
  7.72261074E+00  7.72261074E+00 -1.54452215E+01  7.72261074E+00  7.72261074E+00
 -1.54452215E+01  7.72261074E+00  7.72261074E+00 -1.54452215E+01  7.72261074E+00
  7.72261074E+00 -1.54452215E+01  7.72261074E+00  7.72261074E+00 -1.54452215E+01
  7.72261074E+00  7.72261074E+00 -1.54452215E+01  7.72261074E+00  7.72261074E+00
 -1.54452215E+01  7.72261074E+00  7.72261074E+00 -1.54452215E+01  7.72261074E+00
  7.72261074E+00 -1.54452215E+01  7.72261074E+00  7.72261074E+00 -1.54452215E+01
  7.72261074E+00  7.72261074E+00 -1.54452215E+01  7.72261074E+00  7.72261074E+00
 -1.54452215E+01  7.72261074E+00  7.72261074E+00 -1.54452215E+01  7.72261074E+00
  7.72261074E+00 -1.54452215E+01  7.72261074E+00  7.72261074E+00 -1.54452215E+01
  7.72261074E+00  7.72261074E+00 -1.54452215E+01  7.72261074E+00  7.72261074E+00
 -1.54452215E+01  7.72261074E+00  7.72261074E+00 -1.54452215E+01  7.72261074E+00
  7.72261074E+00 -1.54452215E+01  7.72261074E+00  7.72261074E+00 -1.54452215E+01
  7.72261074E+00  7.72261074E+00 -1.54452215E+01  7.72261074E+00  7.72261074E+00
 -1.54452215E+01  7.72261074E+00  7.72261074E+00 -1.54452215E+01  7.72261074E+00
  7.72261074E+00 -1.54452215E+01  7.72261074E+00  7.72261074E+00 -1.54452215E+01
  7.72261074E+00  7.72261074E+00 -1.54452215E+01  7.72261074E+00  7.72261074E+00
 -1.54452215E+01  7.72261074E+00  7.72261074E+00 -1.54452215E+01  7.72261074E+00
  7.72261074E+00 -1.54452215E+01  7.72261074E+00  7.72261074E+00 -1.54452215E+01
  7.72261074E+00  7.72261074E+00 -1.54452215E+01  7.72261074E+00  7.72261074E+00
 -1.54452215E+01  7.72261074E+00  7.72261074E+00 -1.54452215E+01  7.72261074E+00
  7.72261074E+00 -1.54452215E+01  7.72261074E+00  7.72261074E+00 -1.54452215E+01
  7.72261074E+00  7.72261074E+00 -1.54452215E+01  7.72261074E+00  7.72261074E+00
 -1.54452215E+01  7.72261074E+00  7.72261074E+00 -1.54452215E+01  7.72261074E+00
  7.72261074E+00 -1.54452215E+01  7.72261074E+00  7.72261074E+00 -1.54452215E+01
  7.72261074E+00  7.72261074E+00 -1.54452215E+01  7.72261074E+00  7.72261074E+00
 -1.54452215E+01  7.72261074E+00  7.72261074E+00 -1.54452215E+01  7.72261074E+00
  7.72261074E+00 -1.54452215E+01  7.72261074E+00  7.72261074E+00 -1.54452215E+01
  7.72261074E+00  7.72261074E+00 -1.54452215E+01  7.72261074E+00  7.72261074E+00
 -1.54452215E+01  7.72261074E+00  7.72261074E+00 -1.54452215E+01  7.72261074E+00
  7.72261074E+00 -1.54452215E+01  7.72261074E+00  7.72261074E+00 -1.54452215E+01
  7.72261074E+00  7.72261074E+00 -1.54452215E+01  7.72261074E+00  7.72261074E+00
 -1.54452215E+01  7.72261074E+00  7.72261074E+00 -1.54452215E+01  7.72261074E+00
  7.72261074E+00 -1.54452215E+01  7.72261074E+00  7.72261074E+00 -1.54452215E+01
  7.72261074E+00  7.72261074E+00 -1.54452215E+01  7.72261074E+00  7.72261074E+00
 -1.54452215E+01  7.72261074E+00  7.72261074E+00 -1.54452215E+01  7.72261074E+00
  7.72261074E+00 -1.54452215E+01  7.72261074E+00  7.72261074E+00 -1.54452215E+01
  7.72261074E+00  7.72261074E+00 -1.54452215E+01  7.72261074E+00  7.72261074E+00
 -1.54452215E+01  7.72261074E+00  7.72261074E+00 -1.54452215E+01  7.72261074E+00
  7.72261074E+00 -1.54452215E+01  7.72261074E+00  7.72261074E+00 -1.54452215E+01
  7.72261074E+00  7.72261074E+00 -1.54452215E+01  7.72261074E+00  7.72261074E+00
 -1.54452215E+01  7.72261074E+00  7.72261074E+00 -1.54452215E+01  7.72261074E+00
  7.72261074E+00 -1.54452215E+01  7.72261074E+00  7.72261074E+00 -1.54452215E+01
  7.72261074E+00  7.72261074E+00 -1.54452215E+01  7.72261074E+00  7.72261074E+00
 -1.54452215E+01  7.72261074E+00  7.72261074E+00 -1.54452215E+01  7.72261074E+00
  7.72261074E+00 -1.54452215E+01  7.72261074E+00  7.72261074E+00 -1.54452215E+01
  7.72261074E+00  7.72261074E+00 -1.54452215E+01  7.72261074E+00  7.72261074E+00
 -1.54452215E+01  7.72261074E+00  7.72261074E+00 -1.54452215E+01  7.72261074E+00
  7.72261074E+00 -1.54452215E+01  7.72261074E+00  7.72261074E+00 -1.54452215E+01
  7.72261074E+00  7.72261074E+00 -1.54452215E+01  7.72261074E+00  7.72261074E+00
 -1.54452215E+01  7.72261074E+00  7.72261074E+00 -1.54452215E+01  7.72261074E+00
  7.72261074E+00 -1.54452215E+01  7.72261074E+00  7.72261074E+00 -1.54452215E+01
  7.72261074E+00  7.72261074E+00 -1.54452215E+01  7.72261074E+00  7.72261074E+00
 -1.54452215E+01  7.72261074E+00  7.72261074E+00 -1.54452215E+01  7.72261074E+00
  7.72261074E+00 -1.54452215E+01  7.72261074E+00  7.72261074E+00 -1.54452215E+01
  7.72261074E+00  7.72261074E+00 -1.54452215E+01  7.72261074E+00  7.72261074E+00
 -1.54452215E+01  7.72261074E+00  7.72261074E+00 -1.54452215E+01  7.72261074E+00
  7.72261074E+00 -1.54452215E+01  7.72261074E+00  7.72261074E+00 -1.54452215E+01
  7.72261074E+00  7.72261074E+00 -1.54452215E+01  7.72261074E+00  7.72261074E+00
 -1.54452215E+01  7.72261074E+00  7.72261074E+00 -1.54452215E+01  7.72261074E+00
  7.72261074E+00 -1.54452215E+01  7.72261074E+00  7.72261074E+00 -1.54452215E+01
  7.72261074E+00  7.72261074E+00 -1.54452215E+01  7.72261074E+00  7.72261074E+00
 -1.54452215E+01  7.72261074E+00  7.72261074E+00 -1.54452215E+01  7.72261074E+00
  7.72261074E+00 -1.54452215E+01  7.72261074E+00  7.72261074E+00 -1.54452215E+01
  7.72261074E+00  7.72261074E+00 -1.54452215E+01  7.72261074E+00  7.72261074E+00
 -1.54452215E+01  7.72261074E+00  7.72261074E+00 -1.54452215E+01  7.72261074E+00
  7.72261074E+00 -1.54452215E+01  7.72261074E+00  7.72261074E+00 -1.54452215E+01
  7.72261074E+00  7.72261074E+00 -1.54452215E+01  7.72261074E+00  7.72261074E+00
 -1.54452215E+01  7.72261074E+00  7.72261074E+00 -1.54452215E+01  7.72261074E+00
  7.72261074E+00 -1.54452215E+01  7.72261074E+00  7.72261074E+00 -1.54452215E+01
  7.72261074E+00  7.72261074E+00 -1.54452215E+01  7.72261074E+00  7.72261074E+00
 -1.54452215E+01  7.72261074E+00  7.72261074E+00 -1.54452215E+01  7.72261074E+00
  7.72261074E+00 -1.54452215E+01  7.72261074E+00  7.72261074E+00 -1.54452215E+01
  7.72261074E+00  7.72261074E+00 -1.54452215E+01  7.72261074E+00  7.72261074E+00
 -1.54452215E+01  7.72261074E+00  7.72261074E+00 -1.54452215E+01  7.72261074E+00
  7.72261074E+00 -1.54452215E+01  7.72261074E+00  7.72261074E+00 -1.54452215E+01
  7.72261074E+00  7.72261074E+00 -1.54452215E+01  7.72261074E+00  7.72261074E+00
 -1.54452215E+01  7.72261074E+00  7.72261074E+00 -1.54452215E+01  7.72261074E+00
  7.72261074E+00 -1.54452215E+01  7.72261074E+00  7.72261074E+00 -1.54452215E+01
  7.72261074E+00  7.72261074E+00 -1.54452215E+01  7.72261074E+00  7.72261074E+00
 -1.54452215E+01  7.72261074E+00  7.72261074E+00 -1.54452215E+01  7.72261074E+00
  7.72261074E+00 -1.54452215E+01  7.72261074E+00  7.72261074E+00 -1.54452215E+01
  7.72261074E+00  7.72261074E+00 -1.54452215E+01  7.72261074E+00  7.72261074E+00
 -1.54452215E+01  7.72261074E+00  7.72261074E+00 -1.54452215E+01  7.72261074E+00
  7.72261074E+00 -1.54452215E+01  7.72261074E+00  7.72261074E+00 -1.54452215E+01
  7.72261074E+00  7.72261074E+00 -1.54452215E+01  7.72261074E+00  7.72261074E+00
 -1.54452215E+01  7.72261074E+00  7.72261074E+00 -1.54452215E+01  7.72261074E+00
  7.72261074E+00 -1.54452215E+01  7.72261074E+00  7.72261074E+00 -1.54452215E+01
  7.72261074E+00  7.72261074E+00 -1.54452215E+01  7.72261074E+00  7.72261074E+00
 -1.54452215E+01  7.72261074E+00  7.72261074E+00 -1.54452215E+01  7.72261074E+00
  7.72261074E+00 -1.54452215E+01  7.72261074E+00  7.72261074E+00 -1.54452215E+01
  7.72261074E+00  7.72261074E+00 -1.54452215E+01  7.72261074E+00  7.72261074E+00
 -1.54452215E+01  7.72261074E+00  7.72261074E+00 -1.54452215E+01  7.72261074E+00
  7.72261074E+00 -1.54452215E+01  7.72261074E+00  7.72261074E+00 -1.54452215E+01
  7.72261074E+00  7.72261074E+00 -1.54452215E+01  7.72261074E+00  7.72261074E+00
 -1.54452215E+01  7.72261074E+00  7.72261074E+00 -1.54452215E+01  7.72261074E+00
  7.72261074E+00 -1.54452215E+01  7.72261074E+00  7.72261074E+00 -1.54452215E+01
  7.72261074E+00  7.72261074E+00 -1.54452215E+01  7.72261074E+00  7.72261074E+00
 -1.54452215E+01  7.72261074E+00  7.72261074E+00 -1.54452215E+01  7.72261074E+00
  7.72261074E+00 -1.54452215E+01  7.72261074E+00  7.72261074E+00 -1.54452215E+01
  7.72261074E+00  7.72261074E+00 -1.54452215E+01  7.72261074E+00  7.72261074E+00
 -1.54452215E+01  7.72261074E+00  7.72261074E+00 -1.54452215E+01  7.72261074E+00
  7.72261074E+00 -1.54452215E+01  7.72261074E+00  7.72261074E+00 -1.54452215E+01
  7.72261074E+00  7.72261074E+00 -1.54452215E+01  7.72261074E+00  7.72261074E+00
 -1.54452215E+01  7.72261074E+00  7.72261074E+00 -1.54452215E+01  7.72261074E+00
  7.72261074E+00 -1.54452215E+01  7.72261074E+00  7.72261074E+00 -1.54452215E+01
  7.72261074E+00  7.72261074E+00 -1.54452215E+01  7.72261074E+00  7.72261074E+00
 -1.54452215E+01  7.72261074E+00  7.72261074E+00 -1.54452215E+01  7.72261074E+00
  7.72261074E+00 -1.54452215E+01  7.72261074E+00  7.72261074E+00 -1.54452215E+01
  7.72261074E+00  7.72261074E+00 -1.54452215E+01  7.72261074E+00  7.72261074E+00
 -1.54452215E+01  7.72261074E+00  7.72261074E+00 -1.54452215E+01  7.72261074E+00
  7.72261074E+00 -1.54452215E+01  7.72261074E+00  7.72261074E+00 -1.54452215E+01
  7.72261074E+00  7.72261074E+00 -1.54452215E+01  7.72261074E+00  7.72261074E+00
 -1.54452215E+01  7.72261074E+00  7.72261074E+00 -1.54452215E+01  7.72261074E+00
  7.72261074E+00 -1.54452215E+01  7.72261074E+00  7.72261074E+00 -1.54452215E+01
  7.72261074E+00  7.72261074E+00 -1.54452215E+01  7.72261074E+00  7.72261074E+00
 -1.54452215E+01  7.72261074E+00  7.72261074E+00 -1.54452215E+01  7.72261074E+00
  7.72261074E+00 -1.54452215E+01  7.72261074E+00  7.72261074E+00 -1.54452215E+01
  7.72261074E+00  7.72261074E+00 -1.54452215E+01  7.72261074E+00  7.72261074E+00
 -1.54452215E+01  7.72261074E+00  7.72261074E+00 -1.54452215E+01  7.72261074E+00
  7.72261074E+00 -1.54452215E+01  7.72261074E+00  7.72261074E+00 -1.54452215E+01
  7.72261074E+00  7.72261074E+00 -1.54452215E+01  7.72261074E+00  7.72261074E+00
 -1.54452215E+01  7.72261074E+00  7.72261074E+00 -1.54452215E+01  7.72261074E+00
  7.72261074E+00 -1.54452215E+01  7.72261074E+00  7.72261074E+00 -1.54452215E+01
  7.72261074E+00  7.72261074E+00 -1.54452215E+01  7.72261074E+00  7.72261074E+00
 -1.54452215E+01  7.72261074E+00  7.72261074E+00 -1.54452215E+01  7.72261074E+00
  7.72261074E+00 -1.54452215E+01  7.72261074E+00  7.72261074E+00 -1.54452215E+01
  7.72261074E+00  7.72261074E+00 -1.54452215E+01  7.72261074E+00  7.72261074E+00
 -1.54452215E+01  7.72261074E+00  7.72261074E+00 -1.54452215E+01  7.72261074E+00
  7.72261074E+00 -1.54452215E+01  7.72261074E+00  7.72261074E+00 -1.54452215E+01
  7.72261074E+00  7.72261074E+00 -1.54452215E+01  7.72261074E+00  7.72261074E+00
 -1.54452215E+01  7.72261074E+00  7.72261074E+00 -1.54452215E+01  7.72261074E+00
  7.72261074E+00 -1.54452215E+01  7.72261074E+00  7.72261074E+00 -1.54452215E+01
  7.72261074E+00  7.72261074E+00 -1.54452215E+01  7.72261074E+00  7.72261074E+00
 -1.54452215E+01  7.72261074E+00  7.72261074E+00 -1.54452215E+01  7.72261074E+00
  7.72261074E+00 -1.54452215E+01  7.72261074E+00  7.72261074E+00 -1.54452215E+01
  7.72261074E+00  7.72261074E+00 -1.54452215E+01  7.72261074E+00  7.72261074E+00
 -1.54452215E+01  7.72261074E+00  7.72261074E+00 -1.54452215E+01  7.72261074E+00
  7.72261074E+00 -1.54452215E+01  7.72261074E+00  7.72261074E+00 -1.54452215E+01
  7.72261074E+00  7.72261074E+00 -1.54452215E+01  7.72261074E+00  7.72261074E+00
 -1.54452215E+01  7.72261074E+00  7.72261074E+00 -1.54452215E+01  7.72261074E+00
  7.72261074E+00 -1.54452215E+01  7.72261074E+00  7.72261074E+00 -1.54452215E+01
  7.72261074E+00  7.72261074E+00 -1.54452215E+01  7.72261074E+00  7.72261074E+00
 -1.54452215E+01  7.72261074E+00  7.72261074E+00 -1.54452215E+01  7.72261074E+00
  7.72261074E+00 -1.54452215E+01  7.72261074E+00  7.72261074E+00 -1.54452215E+01
  7.72261074E+00  7.72261074E+00 -1.54452215E+01  7.72261074E+00  7.72261074E+00
 -1.54452215E+01  7.72261074E+00  7.72261074E+00 -1.54452215E+01  7.72261074E+00
  7.72261074E+00 -1.54452215E+01  7.72261074E+00  7.72261074E+00 -1.54452215E+01
  7.72261074E+00  7.72261074E+00 -1.54452215E+01  7.72261074E+00  7.72261074E+00
 -1.54452215E+01  7.72261074E+00  7.72261074E+00 -1.54452215E+01  7.72261074E+00
  7.72261074E+00 -1.54452215E+01  7.72261074E+00  7.72261074E+00 -1.54452215E+01
  7.72261074E+00  7.72261074E+00 -1.54452215E+01  7.72261074E+00  7.72261074E+00
 -1.54452215E+01  7.72261074E+00  7.72261074E+00 -1.54452215E+01  7.72261074E+00
  7.72261074E+00 -1.54452215E+01  7.72261074E+00  7.72261074E+00 -1.54452215E+01
  7.72261074E+00  7.72261074E+00 -1.54452215E+01  7.72261074E+00  7.72261074E+00
 -1.54452215E+01  7.72261074E+00  7.72261074E+00 -1.54452215E+01  7.72261074E+00
  7.72261074E+00 -1.54452215E+01  7.72261074E+00  7.72261074E+00 -1.54452215E+01
  7.72261074E+00  7.72261074E+00 -1.54452215E+01  7.72261074E+00  7.72261074E+00
 -1.54452215E+01  7.72261074E+00  7.72261074E+00 -1.54452215E+01  7.72261074E+00
  7.72261074E+00 -1.54452215E+01  7.72261074E+00  7.72261074E+00 -1.54452215E+01
  7.72261074E+00  7.72261074E+00 -1.54452215E+01  7.72261074E+00  7.72261074E+00
 -1.54452215E+01  7.72261074E+00  7.72261074E+00 -1.54452215E+01  7.72261074E+00
  7.72261074E+00 -1.54452215E+01  7.72261074E+00  7.72261074E+00 -1.54452215E+01
  7.72261074E+00  7.72261074E+00 -1.54452215E+01  7.72261074E+00  7.72261074E+00
 -1.54452215E+01  7.72261074E+00  7.72261074E+00 -1.54452215E+01  7.72261074E+00
  7.72261074E+00 -1.54452215E+01  7.72261074E+00  7.72261074E+00 -1.54452215E+01
  7.72261074E+00  7.72261074E+00 -1.54452215E+01  7.72261074E+00  7.72261074E+00
 -1.54452215E+01  7.72261074E+00  7.72261074E+00 -1.54452215E+01  7.72261074E+00
  7.72261074E+00 -1.54452215E+01  7.72261074E+00  7.72261074E+00 -1.54452215E+01
  7.72261074E+00  7.72261074E+00 -1.54452215E+01  7.72261074E+00  7.72261074E+00
 -1.54452215E+01  7.72261074E+00  7.72261074E+00 -1.54452215E+01  7.72261074E+00
  7.72261074E+00 -1.54452215E+01  7.72261074E+00  7.72261074E+00 -1.54452215E+01
  7.72261074E+00  7.72261074E+00 -1.54452215E+01  7.72261074E+00  7.72261074E+00
 -1.54452215E+01  7.72261074E+00  7.72261074E+00 -1.54452215E+01  7.72261074E+00
  7.72261074E+00 -1.54452215E+01  7.72261074E+00  7.72261074E+00 -1.54452215E+01
  7.72261074E+00  7.72261074E+00 -1.54452215E+01  7.72261074E+00  7.72261074E+00
 -1.54452215E+01  7.72261074E+00  7.72261074E+00 -1.54452215E+01  7.72261074E+00
  7.72261074E+00 -1.54452215E+01  7.72261074E+00  7.72261074E+00 -1.54452215E+01
  7.72261074E+00  7.72261074E+00 -1.54452215E+01  7.72261074E+00  7.72261074E+00
 -1.54452215E+01  7.72261074E+00  7.72261074E+00 -1.54452215E+01  7.72261074E+00
  7.72261074E+00 -1.54452215E+01  7.72261074E+00  7.72261074E+00 -1.54452215E+01
  7.72261074E+00  7.72261074E+00 -1.54452215E+01  7.72261074E+00  7.72261074E+00
 -1.54452215E+01  7.72261074E+00  7.72261074E+00 -1.54452215E+01  7.72261074E+00
  7.72261074E+00 -1.54452215E+01  7.72261074E+00  7.72261074E+00 -1.54452215E+01
  7.72261074E+00  7.72261074E+00 -1.54452215E+01  7.72261074E+00  7.72261074E+00
 -1.54452215E+01  7.72261074E+00  7.72261074E+00 -1.54452215E+01  7.72261074E+00
  7.72261074E+00 -1.54452215E+01  7.72261074E+00  7.72261074E+00 -1.54452215E+01
  7.72261074E+00  7.72261074E+00 -1.54452215E+01  7.72261074E+00  7.72261074E+00
 -1.54452215E+01  7.72261074E+00  7.72261074E+00 -1.54452215E+01  7.72261074E+00
  7.72261074E+00 -1.54452215E+01  7.72261074E+00  7.72261074E+00 -1.54452215E+01
  7.72261074E+00  7.72261074E+00 -1.54452215E+01  7.72261074E+00  7.72261074E+00
 -1.54452215E+01  7.72261074E+00  7.72261074E+00 -1.54452215E+01  7.72261074E+00
  7.72261074E+00 -1.54452215E+01  7.72261074E+00  7.72261074E+00 -1.54452215E+01
  7.72261074E+00  7.72261074E+00 -1.54452215E+01  7.72261074E+00  7.72261074E+00
 -1.54452215E+01  7.72261074E+00  7.72261074E+00 -1.54452215E+01  7.72261074E+00
  7.72261074E+00 -1.54452215E+01  7.72261074E+00  7.72261074E+00 -1.54452215E+01
  7.72261074E+00  7.72261074E+00 -1.54452215E+01  7.72261074E+00  7.72261074E+00
 -1.54452215E+01  7.72261074E+00  7.72261074E+00 -1.54452215E+01  7.72261074E+00
  7.72261074E+00 -1.54452215E+01  7.72261074E+00  7.72261074E+00 -1.54452215E+01
  7.72261074E+00  7.72261074E+00 -1.54452215E+01  7.72261074E+00  7.72261074E+00
 -1.54452215E+01  7.72261074E+00  7.72261074E+00 -1.54452215E+01  7.72261074E+00
  7.72261074E+00 -1.54452215E+01  7.72261074E+00  7.72261074E+00 -1.54452215E+01
  7.72261074E+00  7.72261074E+00 -1.54452215E+01  7.72261074E+00  7.72261074E+00
 -1.54452215E+01  7.72261074E+00  7.72261074E+00 -1.54452215E+01  7.72261074E+00
  7.72261074E+00 -1.54452215E+01  7.72261074E+00  7.72261074E+00 -1.54452215E+01
  7.72261074E+00  7.72261074E+00 -1.54452215E+01  7.72261074E+00  7.72261074E+00
 -1.54452215E+01  7.72261074E+00  7.72261074E+00 -1.54452215E+01  7.72261074E+00
  7.72261074E+00 -1.54452215E+01  7.72261074E+00  7.72261074E+00 -1.54452215E+01
  7.72261074E+00  7.72261074E+00 -1.54452215E+01  7.72261074E+00  7.72261074E+00
 -1.54452215E+01  7.72261074E+00  7.72261074E+00 -1.54452215E+01  7.72261074E+00
  7.72261074E+00 -1.54452215E+01  7.72261074E+00  7.72261074E+00 -1.54452215E+01
  7.72261074E+00  7.72261074E+00 -1.54452215E+01  7.72261074E+00  7.72261074E+00
 -1.54452215E+01  7.72261074E+00  7.72261074E+00 -1.54452215E+01  7.72261074E+00
  7.72261074E+00 -1.54452215E+01  7.72261074E+00  7.72261074E+00 -1.54452215E+01
  7.72261074E+00  7.72261074E+00 -1.54452215E+01  7.72261074E+00  7.72261074E+00
 -1.54452215E+01  7.72261074E+00  7.72261074E+00 -1.54452215E+01  7.72261074E+00
  7.72261074E+00 -1.54452215E+01  7.72261074E+00  7.72261074E+00 -1.54452215E+01
  7.72261074E+00  7.72261074E+00 -1.54452215E+01  7.72261074E+00  7.72261074E+00
 -1.54452215E+01  7.72261074E+00  7.72261074E+00 -1.54452215E+01  7.72261074E+00
  7.72261074E+00 -1.54452215E+01  7.72261074E+00  7.72261074E+00 -1.54452215E+01
  7.72261074E+00  7.72261074E+00 -1.54452215E+01  7.72261074E+00  7.72261074E+00
 -1.54452215E+01  7.72261074E+00  7.72261074E+00 -1.54452215E+01  7.72261074E+00
  7.72261074E+00 -1.54452215E+01  7.72261074E+00  7.72261074E+00 -1.54452215E+01
  7.72261074E+00  7.72261074E+00 -1.54452215E+01  7.72261074E+00  7.72261074E+00
 -1.54452215E+01  7.72261074E+00  7.72261074E+00 -1.54452215E+01  7.72261074E+00
  7.72261074E+00 -1.54452215E+01  7.72261074E+00  7.72261074E+00 -1.54452215E+01
  7.72261074E+00  7.72261074E+00 -1.54452215E+01  7.72261074E+00  7.72261074E+00
 -1.54452215E+01  7.72261074E+00  7.72261074E+00 -1.54452215E+01  7.72261074E+00
  7.72261074E+00 -1.54452215E+01  7.72261074E+00  7.72261074E+00 -1.54452215E+01
  7.72261074E+00  7.72261074E+00 -1.54452215E+01  7.72261074E+00  7.72261074E+00
 -1.54452215E+01  7.72261074E+00  7.72261074E+00 -1.54452215E+01  7.72261074E+00
  7.72261074E+00 -1.54452215E+01  7.72261074E+00  7.72261074E+00 -1.54452215E+01
  7.72261074E+00  7.72261074E+00 -1.54452215E+01  7.72261074E+00  7.72261074E+00
 -1.54452215E+01  7.72261074E+00  7.72261074E+00 -1.54452215E+01  7.72261074E+00
  7.72261074E+00 -1.54452215E+01  7.72261074E+00  7.72261074E+00 -1.54452215E+01
  7.72261074E+00  7.72261074E+00 -1.54452215E+01  7.72261074E+00  7.72261074E+00
 -1.54452215E+01  7.72261074E+00  7.72261074E+00 -1.54452215E+01  7.72261074E+00
  7.72261074E+00 -1.54452215E+01  7.72261074E+00  7.72261074E+00 -1.54452215E+01
  7.72261074E+00  7.72261074E+00 -1.54452215E+01  7.72261074E+00  7.72261074E+00
 -1.54452215E+01  7.72261074E+00  7.72261074E+00 -1.54452215E+01  7.72261074E+00
  7.72261074E+00 -1.54452215E+01  7.72261074E+00  7.72261074E+00 -1.54452215E+01
  7.72261074E+00  7.72261074E+00 -1.54452215E+01  7.72261074E+00  7.72261074E+00
 -1.54452215E+01  7.72261074E+00  7.72261074E+00 -1.54452215E+01  7.72261074E+00
  7.72261074E+00 -1.54452215E+01  7.72261074E+00  7.72261074E+00 -1.54452215E+01
  7.72261074E+00  7.72261074E+00 -1.54452215E+01  7.72261074E+00  7.72261074E+00
 -1.54452215E+01  7.72261074E+00  7.72261074E+00 -1.54452215E+01  7.72261074E+00
  7.72261074E+00 -1.54452215E+01  7.72261074E+00  7.72261074E+00 -1.54452215E+01
  7.72261074E+00  7.72261074E+00 -1.54452215E+01  7.72261074E+00  7.72261074E+00
 -1.54452215E+01  7.72261074E+00  7.72261074E+00 -1.54452215E+01  7.72261074E+00
  7.72261074E+00 -1.54452215E+01  7.72261074E+00  7.72261074E+00 -1.54452215E+01
  7.72261074E+00  7.72261074E+00 -1.54452215E+01  7.72261074E+00  7.72261074E+00
 -1.54452215E+01  7.72261074E+00  7.72261074E+00 -1.54452215E+01  7.72261074E+00
  7.72261074E+00 -1.54452215E+01  7.72261074E+00  7.72261074E+00 -1.54452215E+01
  7.72261074E+00  7.72261074E+00 -1.54452215E+01  7.72261074E+00  7.72261074E+00
 -1.54452215E+01  7.72261074E+00  7.72261074E+00 -1.54452215E+01  7.72261074E+00
  7.72261074E+00 -1.54452215E+01  7.72261074E+00  7.72261074E+00 -1.54452215E+01
  7.72261074E+00  7.72261074E+00 -1.54452215E+01  7.72261074E+00  7.72261074E+00
 -1.54452215E+01  7.72261074E+00  7.72261074E+00 -1.54452215E+01  7.72261074E+00
  7.72261074E+00 -1.54452215E+01  7.72261074E+00  7.72261074E+00 -1.54452215E+01
  7.72261074E+00  7.72261074E+00 -1.54452215E+01  7.72261074E+00  7.72261074E+00
 -1.54452215E+01  7.72261074E+00  7.72261074E+00 -1.54452215E+01  7.72261074E+00
  7.72261074E+00 -1.54452215E+01  7.72261074E+00  7.72261074E+00 -1.54452215E+01
  7.72261074E+00  7.72261074E+00 -1.54452215E+01  7.72261074E+00  7.72261074E+00
 -1.54452215E+01  7.72261074E+00  7.72261074E+00 -1.54452215E+01  7.72261074E+00
  7.72261074E+00 -1.54452215E+01  7.72261074E+00  7.72261074E+00 -1.54452215E+01
  7.72261074E+00  7.72261074E+00 -1.54452215E+01  7.72261074E+00  7.72261074E+00
 -1.54452215E+01  7.72261074E+00  7.72261074E+00 -1.54452215E+01  7.72261074E+00
  7.72261074E+00 -1.54452215E+01  7.72261074E+00  7.72261074E+00 -1.54452215E+01
  7.72261074E+00  7.72261074E+00 -1.54452215E+01  7.72261074E+00  7.72261074E+00
 -1.54452215E+01  7.72261074E+00  7.72261074E+00 -1.54452215E+01  7.72261074E+00
  7.72261074E+00 -1.54452215E+01  7.72261074E+00  7.72261074E+00 -1.54452215E+01
  7.72261074E+00  7.72261074E+00 -1.54452215E+01  7.72261074E+00  7.72261074E+00
 -1.54452215E+01  7.72261074E+00  7.72261074E+00 -1.54452215E+01  7.72261074E+00
  7.72261074E+00 -1.54452215E+01  7.72261074E+00  7.72261074E+00 -1.54452215E+01
  7.72261074E+00  7.72261074E+00 -1.54452215E+01  7.72261074E+00  7.72261074E+00
 -1.54452215E+01  7.72261074E+00  7.72261074E+00 -1.54452215E+01  7.72261074E+00
  7.72261074E+00 -1.54452215E+01  7.72261074E+00  7.72261074E+00 -1.54452215E+01
  7.72261074E+00  7.72261074E+00 -1.54452215E+01  7.72261074E+00  7.72261074E+00
 -1.54452215E+01  7.72261074E+00  7.72261074E+00 -1.54452215E+01  7.72261074E+00
  7.72261074E+00 -1.54452215E+01  7.72261074E+00  7.72261074E+00 -1.54452215E+01
  7.72261074E+00  7.72261074E+00 -1.54452215E+01  7.72261074E+00  7.72261074E+00
 -1.54452215E+01  7.72261074E+00  7.72261074E+00 -1.54452215E+01  7.72261074E+00
  7.72261074E+00 -1.54452215E+01  7.72261074E+00  7.72261074E+00 -1.54452215E+01
  7.72261074E+00  7.72261074E+00 -1.54452215E+01  7.72261074E+00  7.72261074E+00
 -1.54452215E+01  7.72261074E+00  7.72261074E+00 -1.54452215E+01  7.72261074E+00
  7.72261074E+00 -1.54452215E+01  7.72261074E+00  7.72261074E+00 -1.54452215E+01
  7.72261074E+00  7.72261074E+00 -1.54452215E+01  7.72261074E+00  7.72261074E+00
 -1.54452215E+01  7.72261074E+00  7.72261074E+00 -1.54452215E+01  7.72261074E+00
  7.72261074E+00 -1.54452215E+01  7.72261074E+00  7.72261074E+00 -1.54452215E+01
  7.72261074E+00  7.72261074E+00 -1.54452215E+01  7.72261074E+00  7.72261074E+00
 -1.54452215E+01  7.72261074E+00  7.72261074E+00 -1.54452215E+01  7.72261074E+00
  7.72261074E+00 -1.54452215E+01  7.72261074E+00  7.72261074E+00 -1.54452215E+01
  7.72261074E+00  7.72261074E+00 -1.54452215E+01  7.72261074E+00  7.72261074E+00
 -1.54452215E+01  7.72261074E+00  7.72261074E+00 -1.54452215E+01  7.72261074E+00
  7.72261074E+00 -1.54452215E+01  7.72261074E+00  7.72261074E+00 -1.54452215E+01
  7.72261074E+00  7.72261074E+00 -1.54452215E+01  7.72261074E+00  7.72261074E+00
 -1.54452215E+01  7.72261074E+00  7.72261074E+00 -1.54452215E+01  7.72261074E+00
  7.72261074E+00 -1.54452215E+01  7.72261074E+00  7.72261074E+00 -1.54452215E+01
  7.72261074E+00  7.72261074E+00 -1.54452215E+01  7.72261074E+00  7.72261074E+00
 -1.54452215E+01  7.72261074E+00  7.72261074E+00 -1.54452215E+01  7.72261074E+00
  7.72261074E+00 -1.54452215E+01  7.72261074E+00  7.72261074E+00 -1.54452215E+01
  7.72261074E+00  7.72261074E+00 -1.54452215E+01  7.72261074E+00  7.72261074E+00
 -1.54452215E+01  7.72261074E+00  7.72261074E+00 -1.54452215E+01  7.72261074E+00
  7.72261074E+00 -1.54452215E+01  7.72261074E+00  7.72261074E+00 -1.54452215E+01
  7.72261074E+00  7.72261074E+00 -1.54452215E+01  7.72261074E+00  7.72261074E+00
 -1.54452215E+01  7.72261074E+00  7.72261074E+00 -1.54452215E+01  7.72261074E+00
  7.72261074E+00 -1.54452215E+01  7.72261074E+00  7.72261074E+00 -1.54452215E+01
  7.72261074E+00  7.72261074E+00 -1.54452215E+01  7.72261074E+00  7.72261074E+00
 -1.54452215E+01  7.72261074E+00  7.72261074E+00 -1.54452215E+01  7.72261074E+00
  7.72261074E+00 -1.54452215E+01  7.72261074E+00  7.72261074E+00 -1.54452215E+01
  7.72261074E+00  7.72261074E+00 -1.54452215E+01  7.72261074E+00  7.72261074E+00
 -1.54452215E+01  7.72261074E+00  7.72261074E+00 -1.54452215E+01  7.72261074E+00
  7.72261074E+00 -1.54452215E+01  7.72261074E+00  7.72261074E+00 -1.54452215E+01
  7.72261074E+00  7.72261074E+00 -1.54452215E+01  7.72261074E+00  7.72261074E+00
 -1.54452215E+01  7.72261074E+00  7.72261074E+00 -1.54452215E+01  7.72261074E+00
  7.72261074E+00 -1.54452215E+01  7.72261074E+00  7.72261074E+00 -1.54452215E+01
  7.72261074E+00  7.72261074E+00 -1.54452215E+01  7.72261074E+00  7.72261074E+00
 -1.54452215E+01  7.72261074E+00  7.72261074E+00 -1.54452215E+01  7.72261074E+00
  7.72261074E+00 -1.54452215E+01  7.72261074E+00  7.72261074E+00 -1.54452215E+01
  7.72261074E+00  7.72261074E+00 -1.54452215E+01  7.72261074E+00  7.72261074E+00
 -1.54452215E+01  7.72261074E+00  7.72261074E+00 -1.54452215E+01  7.72261074E+00
  7.72261074E+00 -1.54452215E+01  7.72261074E+00  7.72261074E+00 -1.54452215E+01
  7.72261074E+00  7.72261074E+00 -1.54452215E+01  7.72261074E+00  7.72261074E+00
 -1.54452215E+01  7.72261074E+00  7.72261074E+00 -1.54452215E+01  7.72261074E+00
  7.72261074E+00 -1.54452215E+01  7.72261074E+00  7.72261074E+00 -1.54452215E+01
  7.72261074E+00  7.72261074E+00 -1.54452215E+01  7.72261074E+00  7.72261074E+00
 -1.54452215E+01  7.72261074E+00  7.72261074E+00 -1.54452215E+01  7.72261074E+00
  7.72261074E+00 -1.54452215E+01  7.72261074E+00  7.72261074E+00 -1.54452215E+01
  7.72261074E+00  7.72261074E+00 -1.54452215E+01  7.72261074E+00  7.72261074E+00
 -1.54452215E+01  7.72261074E+00  7.72261074E+00 -1.54452215E+01  7.72261074E+00
  7.72261074E+00 -1.54452215E+01  7.72261074E+00  7.72261074E+00 -1.54452215E+01
  7.72261074E+00  7.72261074E+00 -1.54452215E+01  7.72261074E+00  7.72261074E+00
 -1.54452215E+01  7.72261074E+00  7.72261074E+00 -1.54452215E+01  7.72261074E+00
  7.72261074E+00 -1.54452215E+01  7.72261074E+00  7.72261074E+00 -1.54452215E+01
  7.72261074E+00  7.72261074E+00 -1.54452215E+01  7.72261074E+00  7.72261074E+00
 -1.54452215E+01  7.72261074E+00  7.72261074E+00 -1.54452215E+01  7.72261074E+00
  7.72261074E+00 -1.54452215E+01  7.72261074E+00  7.72261074E+00 -1.54452215E+01
  7.72261074E+00  7.72261074E+00 -1.54452215E+01  7.72261074E+00  7.72261074E+00
 -1.54452215E+01  7.72261074E+00  7.72261074E+00 -1.54452215E+01  7.72261074E+00
  7.72261074E+00 -1.54452215E+01  7.72261074E+00  7.72261074E+00 -1.54452215E+01
  7.72261074E+00  7.72261074E+00 -1.54452215E+01  7.72261074E+00  7.72261074E+00
 -1.54452215E+01  7.72261074E+00  7.72261074E+00 -1.54452215E+01  7.72261074E+00
  7.72261074E+00 -1.54452215E+01  7.72261074E+00  7.72261074E+00 -1.54452215E+01
  7.72261074E+00  7.72261074E+00 -1.54452215E+01  7.72261074E+00  7.72261074E+00
 -1.54452215E+01  7.72261074E+00  7.72261074E+00 -1.54452215E+01  7.72261074E+00
  7.72261074E+00 -1.54452215E+01  7.72261074E+00  7.72261074E+00 -1.54452215E+01
  7.72261074E+00  7.72261074E+00 -1.54452215E+01  7.72261074E+00  7.72261074E+00
 -1.54452215E+01  7.72261074E+00  7.72261074E+00 -1.54452215E+01  7.72261074E+00
  7.72261074E+00 -1.54452215E+01  7.72261074E+00  7.72261074E+00 -1.54452215E+01
  7.72261074E+00  7.72261074E+00 -1.54452215E+01  7.72261074E+00  7.72261074E+00
 -1.54452215E+01  7.72261074E+00  7.72261074E+00 -1.54452215E+01  7.72261074E+00
  7.72261074E+00 -1.54452215E+01  7.72261074E+00  7.72261074E+00 -1.54452215E+01
  7.72261074E+00  7.72261074E+00 -1.54452215E+01  7.72261074E+00  7.72261074E+00
 -1.54452215E+01  7.72261074E+00  7.72261074E+00 -1.54452215E+01  7.72261074E+00
  7.72261074E+00 -1.54452215E+01  7.72261074E+00  7.72261074E+00 -1.54452215E+01
  7.72261074E+00  7.72261074E+00 -1.54452215E+01  7.72261074E+00  7.72261074E+00
 -1.54452215E+01  7.72261074E+00  7.72261074E+00 -1.54452215E+01  7.72261074E+00
  7.72261074E+00 -1.54452215E+01  7.72261074E+00  7.72261074E+00 -1.54452215E+01
  7.72261074E+00  7.72261074E+00 -1.54452215E+01  7.72261074E+00  7.72261074E+00
 -1.54452215E+01  7.72261074E+00  7.72261074E+00 -1.54452215E+01  7.72261074E+00
  7.72261074E+00 -1.54452215E+01  7.72261074E+00  7.72261074E+00 -1.54452215E+01
  7.72261074E+00  7.72261074E+00 -1.54452215E+01  7.72261074E+00  7.72261074E+00
 -1.54452215E+01  7.72261074E+00  7.72261074E+00 -1.54452215E+01  7.72261074E+00
  7.72261074E+00 -1.54452215E+01  7.72261074E+00  7.72261074E+00 -1.54452215E+01
  7.72261074E+00  7.72261074E+00 -1.54452215E+01  7.72261074E+00  7.72261074E+00
 -1.54452215E+01  7.72261074E+00  7.72261074E+00 -1.54452215E+01  7.72261074E+00
  7.72261074E+00 -1.54452215E+01  7.72261074E+00  7.72261074E+00 -1.54452215E+01
  7.72261074E+00  7.72261074E+00 -1.54452215E+01  7.72261074E+00  7.72261074E+00
 -1.54452215E+01  7.72261074E+00  7.72261074E+00 -1.54452215E+01  7.72261074E+00
  7.72261074E+00 -1.54452215E+01  7.72261074E+00  7.72261074E+00 -1.54452215E+01
  7.72261074E+00  7.72261074E+00 -1.54452215E+01  7.72261074E+00  7.72261074E+00
 -1.54452215E+01  7.72261074E+00  7.72261074E+00 -1.54452215E+01  7.72261074E+00
  7.72261074E+00 -1.54452215E+01  7.72261074E+00  7.72261074E+00 -1.54452215E+01
  7.72261074E+00  7.72261074E+00 -1.54452215E+01  7.72261074E+00  7.72261074E+00
 -1.54452215E+01  7.72261074E+00  7.72261074E+00 -1.54452215E+01  7.72261074E+00
  7.72261074E+00 -1.54452215E+01  7.72261074E+00  7.72261074E+00 -1.54452215E+01
  7.72261074E+00  7.72261074E+00 -1.54452215E+01  7.72261074E+00  7.72261074E+00
 -1.54452215E+01  7.72261074E+00  7.72261074E+00 -1.54452215E+01  7.72261074E+00
  7.72261074E+00 -1.54452215E+01  7.72261074E+00  7.72261074E+00 -1.54452215E+01
  7.72261074E+00  7.72261074E+00 -1.54452215E+01  7.72261074E+00  7.72261074E+00
 -1.54452215E+01  7.72261074E+00  7.72261074E+00 -1.54452215E+01  7.72261074E+00
  7.72261074E+00 -1.54452215E+01  7.72261074E+00  7.72261074E+00 -1.54452215E+01
  7.72261074E+00  7.72261074E+00 -1.54452215E+01  7.72261074E+00  7.72261074E+00
 -1.54452215E+01  7.72261074E+00  7.72261074E+00 -1.54452215E+01  7.72261074E+00
  7.72261074E+00 -1.54452215E+01  7.72261074E+00  7.72261074E+00 -1.54452215E+01
  7.72261074E+00  7.72261074E+00 -1.54452215E+01  7.72261074E+00  7.72261074E+00
 -1.54452215E+01  7.72261074E+00  7.72261074E+00 -1.54452215E+01  7.72261074E+00
  7.72261074E+00 -1.54452215E+01  7.72261074E+00  7.72261074E+00 -1.54452215E+01
  7.72261074E+00  7.72261074E+00 -1.54452215E+01  7.72261074E+00  7.72261074E+00
 -1.54452215E+01  7.72261074E+00  7.72261074E+00 -1.54452215E+01  7.72261074E+00
  7.72261074E+00 -1.54452215E+01  7.72261074E+00  7.72261074E+00 -1.54452215E+01
  7.72261074E+00  7.72261074E+00 -1.54452215E+01  7.72261074E+00  7.72261074E+00
 -1.54452215E+01  7.72261074E+00  7.72261074E+00 -1.54452215E+01  7.72261074E+00
  7.72261074E+00 -1.54452215E+01  7.72261074E+00  7.72261074E+00 -1.54452215E+01
  7.72261074E+00  7.72261074E+00 -1.54452215E+01  7.72261074E+00  7.72261074E+00
 -1.54452215E+01  7.72261074E+00  7.72261074E+00 -1.54452215E+01  7.72261074E+00
  7.72261074E+00 -1.54452215E+01  7.72261074E+00  7.72261074E+00 -1.54452215E+01
  7.72261074E+00  7.72261074E+00 -1.54452215E+01  7.72261074E+00  7.72261074E+00
 -1.54452215E+01  7.72261074E+00  7.72261074E+00 -1.54452215E+01  7.72261074E+00
  7.72261074E+00 -1.54452215E+01  7.72261074E+00  7.72261074E+00 -1.54452215E+01
  7.72261074E+00  7.72261074E+00 -1.54452215E+01  7.72261074E+00  7.72261074E+00
 -1.54452215E+01  7.72261074E+00  7.72261074E+00 -1.54452215E+01  7.72261074E+00
  7.72261074E+00 -1.54452215E+01  7.72261074E+00  7.72261074E+00 -1.54452215E+01
  7.72261074E+00  7.72261074E+00 -1.54452215E+01  7.72261074E+00  7.72261074E+00
 -1.54452215E+01  7.72261074E+00  7.72261074E+00 -1.54452215E+01  7.72261074E+00
  7.72261074E+00 -1.54452215E+01  7.72261074E+00  7.72261074E+00 -1.54452215E+01
  7.72261074E+00  7.72261074E+00 -1.54452215E+01  7.72261074E+00  7.72261074E+00
 -1.54452215E+01  7.72261074E+00  7.72261074E+00 -1.54452215E+01  7.72261074E+00
  7.72261074E+00 -1.54452215E+01  7.72261074E+00  7.72261074E+00 -1.54452215E+01
  7.72261074E+00  7.72261074E+00 -1.54452215E+01  7.72261074E+00  7.72261074E+00
 -1.54452215E+01  7.72261074E+00  7.72261074E+00 -1.54452215E+01  7.72261074E+00
  7.72261074E+00 -1.54452215E+01  7.72261074E+00  7.72261074E+00 -1.54452215E+01
  7.72261074E+00  7.72261074E+00 -1.54452215E+01  7.72261074E+00  7.72261074E+00
 -1.54452215E+01  7.72261074E+00  7.72261074E+00 -1.54452215E+01  7.72261074E+00
  7.72261074E+00 -1.54452215E+01  7.72261074E+00  7.72261074E+00 -1.54452215E+01
  7.72261074E+00  7.72261074E+00 -1.54452215E+01  7.72261074E+00  7.72261074E+00
 -1.54452215E+01  7.72261074E+00  7.72261074E+00 -1.54452215E+01  7.72261074E+00
  7.72261074E+00 -1.54452215E+01  7.72261074E+00  7.72261074E+00 -1.54452215E+01
  7.72261074E+00  7.72261074E+00 -1.54452215E+01  7.72261074E+00  7.72261074E+00
 -1.54452215E+01  7.72261074E+00  7.72261074E+00 -1.54452215E+01  7.72261074E+00
  7.72261074E+00 -1.54452215E+01  7.72261074E+00  7.72261074E+00 -1.54452215E+01
  7.72261074E+00  7.72261074E+00 -1.54452215E+01  7.72261074E+00  7.72261074E+00
 -1.54452215E+01  7.72261074E+00  7.72261074E+00 -1.54452215E+01  7.72261074E+00
  7.72261074E+00 -1.54452215E+01  7.72261074E+00  7.72261074E+00 -1.54452215E+01
  7.72261074E+00  7.72261074E+00 -1.54452215E+01  7.72261074E+00  7.72261074E+00
 -1.54452215E+01  7.72261074E+00  7.72261074E+00 -1.54452215E+01  7.72261074E+00
  7.72261074E+00 -1.54452215E+01  7.72261074E+00  7.72261074E+00 -1.54452215E+01
  7.72261074E+00  7.72261074E+00 -1.54452215E+01  7.72261074E+00  7.72261074E+00
 -1.54452215E+01  7.72261074E+00  7.72261074E+00 -1.54452215E+01  7.72261074E+00
  7.72261074E+00 -1.54452215E+01  7.72261074E+00  7.72261074E+00 -1.54452215E+01
  7.72261074E+00  7.72261074E+00 -1.54452215E+01  7.72261074E+00  7.72261074E+00
 -1.54452215E+01  7.72261074E+00  7.72261074E+00 -1.54452215E+01  7.72261074E+00
  7.72261074E+00 -1.54452215E+01  7.72261074E+00  7.72261074E+00 -1.54452215E+01
  7.72261074E+00  7.72261074E+00 -1.54452215E+01  7.72261074E+00  7.72261074E+00
 -1.54452215E+01  7.72261074E+00  7.72261074E+00 -1.54452215E+01  7.72261074E+00
  7.72261074E+00 -1.54452215E+01  7.72261074E+00  7.72261074E+00 -1.54452215E+01
  7.72261074E+00  7.72261074E+00 -1.54452215E+01  7.72261074E+00  7.72261074E+00
 -1.54452215E+01  7.72261074E+00  7.72261074E+00 -1.54452215E+01  7.72261074E+00
  7.72261074E+00 -1.54452215E+01  7.72261074E+00  7.72261074E+00 -1.54452215E+01
  7.72261074E+00  7.72261074E+00 -1.54452215E+01  7.72261074E+00  7.72261074E+00
 -1.54452215E+01  7.72261074E+00  7.72261074E+00 -1.54452215E+01  7.72261074E+00
  7.72261074E+00 -1.54452215E+01  7.72261074E+00  7.72261074E+00 -1.54452215E+01
  7.72261074E+00  7.72261074E+00 -1.54452215E+01  7.72261074E+00  7.72261074E+00
 -1.54452215E+01  7.72261074E+00  7.72261074E+00 -1.54452215E+01  7.72261074E+00
  7.72261074E+00 -1.54452215E+01  7.72261074E+00  7.72261074E+00 -1.54452215E+01
  7.72261074E+00  7.72261074E+00 -1.54452215E+01  7.72261074E+00  7.72261074E+00
 -1.54452215E+01  7.72261074E+00  7.72261074E+00 -1.54452215E+01  7.72261074E+00
  7.72261074E+00 -1.54452215E+01  7.72261074E+00  7.72261074E+00 -1.54452215E+01
  7.72261074E+00  7.72261074E+00 -1.54452215E+01  7.72261074E+00  7.72261074E+00
 -1.54452215E+01  7.72261074E+00  7.72261074E+00 -1.54452215E+01  7.72261074E+00
  7.72261074E+00 -1.54452215E+01  7.72261074E+00  7.72261074E+00 -1.54452215E+01
  7.72261074E+00  7.72261074E+00 -1.54452215E+01  7.72261074E+00  7.72261074E+00
 -1.54452215E+01  7.72261074E+00  7.72261074E+00 -1.54452215E+01  7.72261074E+00
  7.72261074E+00 -1.54452215E+01  7.72261074E+00  7.72261074E+00 -1.54452215E+01
  7.72261074E+00  7.72261074E+00 -1.54452215E+01  7.72261074E+00  7.72261074E+00
 -1.54452215E+01  7.72261074E+00  7.72261074E+00 -1.54452215E+01  7.72261074E+00
  7.72261074E+00 -1.54452215E+01  7.72261074E+00  7.72261074E+00 -1.54452215E+01
  7.72261074E+00  7.72261074E+00 -1.54452215E+01  7.72261074E+00  7.72261074E+00
 -1.54452215E+01  7.72261074E+00  7.72261074E+00 -1.54452215E+01  7.72261074E+00
  7.72261074E+00 -1.54452215E+01  7.72261074E+00  7.72261074E+00 -1.54452215E+01
  7.72261074E+00  7.72261074E+00 -1.54452215E+01  7.72261074E+00  7.72261074E+00
 -1.54452215E+01  7.72261074E+00  7.72261074E+00 -1.54452215E+01  7.72261074E+00
  7.72261074E+00 -1.54452215E+01  7.72261074E+00  7.72261074E+00 -1.54452215E+01
  7.72261074E+00  7.72261074E+00 -1.54452215E+01  7.72261074E+00  7.72261074E+00
 -1.54452215E+01  7.72261074E+00  7.72261074E+00 -1.54452215E+01  7.72261074E+00
  7.72261074E+00 -1.54452215E+01  7.72261074E+00  7.72261074E+00 -1.54452215E+01
  7.72261074E+00  7.72261074E+00 -1.54452215E+01  7.72261074E+00  7.72261074E+00
 -1.54452215E+01  7.72261074E+00  7.72261074E+00 -1.54452215E+01  7.72261074E+00
  7.72261074E+00 -1.54452215E+01  7.72261074E+00  7.72261074E+00 -1.54452215E+01
  7.72261074E+00  7.72261074E+00 -1.54452215E+01  7.72261074E+00  7.72261074E+00
 -1.54452215E+01  7.72261074E+00  7.72261074E+00 -1.54452215E+01  7.72261074E+00
  7.72261074E+00 -1.54452215E+01  7.72261074E+00  7.72261074E+00 -1.54452215E+01
  7.72261074E+00  7.72261074E+00 -1.54452215E+01  7.72261074E+00  7.72261074E+00
 -1.54452215E+01  7.72261074E+00  7.72261074E+00 -1.54452215E+01  7.72261074E+00
  7.72261074E+00 -1.54452215E+01  7.72261074E+00  7.72261074E+00 -1.54452215E+01
  7.72261074E+00  7.72261074E+00 -1.54452215E+01  7.72261074E+00  7.72261074E+00
 -1.54452215E+01  7.72261074E+00  7.72261074E+00 -1.54452215E+01  7.72261074E+00
  7.72261074E+00 -1.54452215E+01  7.72261074E+00  7.72261074E+00 -1.54452215E+01
  7.72261074E+00  7.72261074E+00 -1.54452215E+01  7.72261074E+00  7.72261074E+00
 -1.54452215E+01  7.72261074E+00  7.72261074E+00 -1.54452215E+01  7.72261074E+00
  7.72261074E+00 -1.54452215E+01  7.72261074E+00  7.72261074E+00 -1.54452215E+01
  7.72261074E+00  7.72261074E+00 -1.54452215E+01  7.72261074E+00  7.72261074E+00
 -1.54452215E+01  7.72261074E+00  7.72261074E+00 -1.54452215E+01  7.72261074E+00
  7.72261074E+00 -1.54452215E+01  7.72261074E+00  7.72261074E+00 -1.54452215E+01
  7.72261074E+00  7.72261074E+00 -1.54452215E+01  7.72261074E+00  7.72261074E+00
 -1.54452215E+01  7.72261074E+00  7.72261074E+00 -1.54452215E+01  7.72261074E+00
  7.72261074E+00 -1.54452215E+01  7.72261074E+00  7.72261074E+00 -1.54452215E+01
  7.72261074E+00  7.72261074E+00 -1.54452215E+01  7.72261074E+00  7.72261074E+00
 -1.54452215E+01  7.72261074E+00  7.72261074E+00 -1.54452215E+01  7.72261074E+00
  7.72261074E+00 -1.54452215E+01  7.72261074E+00  7.72261074E+00 -1.54452215E+01
  7.72261074E+00  7.72261074E+00 -1.54452215E+01  7.72261074E+00  7.72261074E+00
 -1.54452215E+01  7.72261074E+00  7.72261074E+00 -1.54452215E+01  7.72261074E+00
  7.72261074E+00 -1.54452215E+01  7.72261074E+00  7.72261074E+00 -1.54452215E+01
  7.72261074E+00  7.72261074E+00 -1.54452215E+01  7.72261074E+00  7.72261074E+00
 -1.54452215E+01  7.72261074E+00  7.72261074E+00 -1.54452215E+01  7.72261074E+00
  7.72261074E+00 -1.54452215E+01  7.72261074E+00  7.72261074E+00 -1.54452215E+01
  7.72261074E+00  7.72261074E+00 -1.54452215E+01  7.72261074E+00  7.72261074E+00
 -1.54452215E+01  7.72261074E+00  7.72261074E+00 -1.54452215E+01  7.72261074E+00
  7.72261074E+00 -1.54452215E+01  7.72261074E+00  7.72261074E+00 -1.54452215E+01
  7.72261074E+00  7.72261074E+00 -1.54452215E+01  7.72261074E+00  7.72261074E+00
 -1.54452215E+01  7.72261074E+00  7.72261074E+00 -1.54452215E+01  7.72261074E+00
  7.72261074E+00 -1.54452215E+01  7.72261074E+00  7.72261074E+00 -1.54452215E+01
  7.72261074E+00  7.72261074E+00 -1.54452215E+01  7.72261074E+00  7.72261074E+00
 -1.54452215E+01  7.72261074E+00  7.72261074E+00 -1.54452215E+01  7.72261074E+00
  7.72261074E+00 -1.54452215E+01  7.72261074E+00  7.72261074E+00 -1.54452215E+01
  7.72261074E+00  7.72261074E+00 -1.54452215E+01  7.72261074E+00  7.72261074E+00
 -1.54452215E+01  7.72261074E+00  7.72261074E+00 -1.54452215E+01  7.72261074E+00
  7.72261074E+00 -1.54452215E+01  7.72261074E+00  7.72261074E+00 -1.54452215E+01
  7.72261074E+00  7.72261074E+00 -1.54452215E+01  7.72261074E+00  7.72261074E+00
 -1.54452215E+01  7.72261074E+00  7.72261074E+00 -1.54452215E+01  7.72261074E+00
  7.72261074E+00 -1.54452215E+01  7.72261074E+00  7.72261074E+00 -1.54452215E+01
  7.72261074E+00  7.72261074E+00 -1.54452215E+01  7.72261074E+00  7.72261074E+00
 -1.54452215E+01  7.72261074E+00  7.72261074E+00 -1.54452215E+01  7.72261074E+00
  7.72261074E+00 -1.54452215E+01  7.72261074E+00  7.72261074E+00 -1.54452215E+01
  7.72261074E+00  7.72261074E+00 -1.54452215E+01  7.72261074E+00  7.72261074E+00
 -1.54452215E+01  7.72261074E+00  7.72261074E+00 -1.54452215E+01  7.72261074E+00
  7.72261074E+00 -1.54452215E+01  7.72261074E+00  7.72261074E+00 -1.54452215E+01
  7.72261074E+00  7.72261074E+00 -1.54452215E+01  7.72261074E+00  7.72261074E+00
 -1.54452215E+01  7.72261074E+00  7.72261074E+00 -1.54452215E+01  7.72261074E+00
  7.72261074E+00 -1.54452215E+01  7.72261074E+00  7.72261074E+00 -1.54452215E+01
  7.72261074E+00  7.72261074E+00 -1.54452215E+01  7.72261074E+00  7.72261074E+00
 -1.54452215E+01  7.72261074E+00  7.72261074E+00 -1.54452215E+01  7.72261074E+00
  7.72261074E+00 -1.54452215E+01  7.72261074E+00  7.72261074E+00 -1.54452215E+01
  7.72261074E+00  7.72261074E+00 -1.54452215E+01  7.72261074E+00  7.72261074E+00
 -1.54452215E+01  7.72261074E+00  7.72261074E+00 -1.54452215E+01  7.72261074E+00
  7.72261074E+00 -1.54452215E+01  7.72261074E+00  7.72261074E+00 -1.54452215E+01
  7.72261074E+00  7.72261074E+00 -1.54452215E+01  7.72261074E+00  7.72261074E+00
 -1.54452215E+01  7.72261074E+00  7.72261074E+00 -1.54452215E+01  7.72261074E+00
  7.72261074E+00 -1.54452215E+01  7.72261074E+00  7.72261074E+00 -1.54452215E+01
  7.72261074E+00  7.72261074E+00 -1.54452215E+01  7.72261074E+00  7.72261074E+00
 -1.54452215E+01  7.72261074E+00  7.72261074E+00 -1.54452215E+01  7.72261074E+00
  7.72261074E+00 -1.54452215E+01  7.72261074E+00  7.72261074E+00 -1.54452215E+01
  7.72261074E+00  7.72261074E+00 -1.54452215E+01  7.72261074E+00  7.72261074E+00
 -1.54452215E+01  7.72261074E+00  7.72261074E+00 -1.54452215E+01  7.72261074E+00
  7.72261074E+00 -1.54452215E+01  7.72261074E+00  7.72261074E+00 -1.54452215E+01
  7.72261074E+00  7.72261074E+00 -1.54452215E+01  7.72261074E+00  7.72261074E+00
 -1.54452215E+01  7.72261074E+00  7.72261074E+00 -1.54452215E+01  7.72261074E+00
  7.72261074E+00 -1.54452215E+01  7.72261074E+00  7.72261074E+00 -1.54452215E+01
  7.72261074E+00  7.72261074E+00 -1.54452215E+01  7.72261074E+00  7.72261074E+00
 -1.54452215E+01  7.72261074E+00  7.72261074E+00 -1.54452215E+01  7.72261074E+00
  7.72261074E+00 -1.54452215E+01  7.72261074E+00  7.72261074E+00 -1.54452215E+01
  7.72261074E+00  7.72261074E+00 -1.54452215E+01  7.72261074E+00  7.72261074E+00
 -1.54452215E+01  7.72261074E+00  7.72261074E+00 -1.54452215E+01  7.72261074E+00
  7.72261074E+00 -1.54452215E+01  7.72261074E+00  7.72261074E+00 -1.54452215E+01
  7.72261074E+00  7.72261074E+00 -1.54452215E+01  7.72261074E+00  7.72261074E+00
 -1.54452215E+01  7.72261074E+00  7.72261074E+00 -1.54452215E+01  7.72261074E+00
  7.72261074E+00 -1.54452215E+01  7.72261074E+00  7.72261074E+00 -1.54452215E+01
  7.72261074E+00  7.72261074E+00 -1.54452215E+01  7.72261074E+00  7.72261074E+00
 -1.54452215E+01  7.72261074E+00  7.72261074E+00 -1.54452215E+01  7.72261074E+00
  7.72261074E+00 -1.54452215E+01  7.72261074E+00  7.72261074E+00 -1.54452215E+01
  7.72261074E+00  7.72261074E+00 -1.54452215E+01  7.72261074E+00  7.72261074E+00
 -1.54452215E+01  7.72261074E+00  7.72261074E+00 -1.54452215E+01  7.72261074E+00
  7.72261074E+00 -1.54452215E+01  7.72261074E+00  7.72261074E+00 -1.54452215E+01
  7.72261074E+00  7.72261074E+00 -1.54452215E+01  7.72261074E+00  7.72261074E+00
 -1.54452215E+01  7.72261074E+00  7.72261074E+00 -1.54452215E+01  7.72261074E+00
  7.72261074E+00 -1.54452215E+01  7.72261074E+00  7.72261074E+00 -1.54452215E+01
  7.72261074E+00  7.72261074E+00 -1.54452215E+01  7.72261074E+00  7.72261074E+00
 -1.54452215E+01  7.72261074E+00  7.72261074E+00 -1.54452215E+01  7.72261074E+00
  7.72261074E+00 -1.54452215E+01  7.72261074E+00  7.72261074E+00 -1.54452215E+01
  7.72261074E+00  7.72261074E+00 -1.54452215E+01  7.72261074E+00  7.72261074E+00
 -1.54452215E+01  7.72261074E+00  7.72261074E+00 -1.54452215E+01  7.72261074E+00
  7.72261074E+00 -1.54452215E+01  7.72261074E+00  7.72261074E+00 -1.54452215E+01
  7.72261074E+00  7.72261074E+00 -1.54452215E+01  7.72261074E+00  7.72261074E+00
 -1.54452215E+01  7.72261074E+00  7.72261074E+00 -1.54452215E+01  7.72261074E+00
  7.72261074E+00 -1.54452215E+01  7.72261074E+00  7.72261074E+00 -1.54452215E+01
  7.72261074E+00  7.72261074E+00 -1.54452215E+01  7.72261074E+00  7.72261074E+00
 -1.54452215E+01  7.72261074E+00  7.72261074E+00 -1.54452215E+01  7.72261074E+00
  7.72261074E+00 -1.54452215E+01  7.72261074E+00  7.72261074E+00 -1.54452215E+01
  7.72261074E+00  7.72261074E+00 -1.54452215E+01  7.72261074E+00  7.72261074E+00
 -1.54452215E+01  7.72261074E+00  7.72261074E+00 -1.54452215E+01  7.72261074E+00
  7.72261074E+00 -1.54452215E+01  7.72261074E+00  7.72261074E+00 -1.54452215E+01
  7.72261074E+00  7.72261074E+00 -1.54452215E+01  7.72261074E+00  7.72261074E+00
 -1.54452215E+01  7.72261074E+00  7.72261074E+00 -1.54452215E+01  7.72261074E+00
  7.72261074E+00 -1.54452215E+01  7.72261074E+00  7.72261074E+00 -1.54452215E+01
  7.72261074E+00  7.72261074E+00 -1.54452215E+01  7.72261074E+00  7.72261074E+00
 -1.54452215E+01  7.72261074E+00  7.72261074E+00 -1.54452215E+01  7.72261074E+00
  7.72261074E+00 -1.54452215E+01  7.72261074E+00  7.72261074E+00 -1.54452215E+01
  7.72261074E+00  7.72261074E+00 -1.54452215E+01  7.72261074E+00  7.72261074E+00
 -1.54452215E+01  7.72261074E+00  7.72261074E+00 -1.54452215E+01  7.72261074E+00
  7.72261074E+00 -1.54452215E+01  7.72261074E+00  7.72261074E+00 -1.54452215E+01
  7.72261074E+00  7.72261074E+00 -1.54452215E+01  7.72261074E+00  7.72261074E+00
 -1.54452215E+01  7.72261074E+00  7.72261074E+00 -1.54452215E+01  7.72261074E+00
  7.72261074E+00 -1.54452215E+01  7.72261074E+00  7.72261074E+00 -1.54452215E+01
  7.72261074E+00  7.72261074E+00 -1.54452215E+01  7.72261074E+00  7.72261074E+00
 -1.54452215E+01  7.72261074E+00  7.72261074E+00 -1.54452215E+01  7.72261074E+00
  7.72261074E+00 -1.54452215E+01  7.72261074E+00  7.72261074E+00 -1.54452215E+01
  7.72261074E+00  7.72261074E+00 -1.54452215E+01  7.72261074E+00  7.72261074E+00
 -1.54452215E+01  7.72261074E+00  7.72261074E+00 -1.54452215E+01  7.72261074E+00
  7.72261074E+00 -1.54452215E+01  7.72261074E+00  7.72261074E+00 -1.54452215E+01
  7.72261074E+00  7.72261074E+00 -1.54452215E+01  7.72261074E+00  7.72261074E+00
 -1.54452215E+01  7.72261074E+00  7.72261074E+00 -1.54452215E+01  7.72261074E+00
  7.72261074E+00 -1.54452215E+01  7.72261074E+00  7.72261074E+00 -1.54452215E+01
  7.72261074E+00  7.72261074E+00 -1.54452215E+01  7.72261074E+00  7.72261074E+00
 -1.54452215E+01  7.72261074E+00  7.72261074E+00 -1.54452215E+01  7.72261074E+00
  7.72261074E+00 -1.54452215E+01  7.72261074E+00  7.72261074E+00 -1.54452215E+01
  7.72261074E+00  7.72261074E+00 -1.54452215E+01  7.72261074E+00  7.72261074E+00
 -1.54452215E+01  7.72261074E+00  7.72261074E+00 -1.54452215E+01  7.72261074E+00
  7.72261074E+00 -1.54452215E+01  7.72261074E+00  7.72261074E+00 -1.54452215E+01
  7.72261074E+00  7.72261074E+00 -1.54452215E+01  7.72261074E+00  7.72261074E+00
 -1.54452215E+01  7.72261074E+00  7.72261074E+00 -1.54452215E+01  7.72261074E+00
  7.72261074E+00 -1.54452215E+01  7.72261074E+00  7.72261074E+00 -1.54452215E+01
  7.72261074E+00  7.72261074E+00 -1.54452215E+01  7.72261074E+00  7.72261074E+00
 -1.54452215E+01  7.72261074E+00  7.72261074E+00 -1.54452215E+01  7.72261074E+00
  7.72261074E+00 -1.54452215E+01  7.72261074E+00  7.72261074E+00 -1.54452215E+01
  7.72261074E+00  7.72261074E+00 -1.54452215E+01  7.72261074E+00  7.72261074E+00
 -1.54452215E+01  7.72261074E+00  7.72261074E+00 -1.54452215E+01  7.72261074E+00
  7.72261074E+00 -1.54452215E+01  7.72261074E+00  7.72261074E+00 -1.54452215E+01
  7.72261074E+00  7.72261074E+00 -1.54452215E+01  7.72261074E+00  7.72261074E+00
 -1.54452215E+01  7.72261074E+00  7.72261074E+00 -1.54452215E+01  7.72261074E+00
  7.72261074E+00 -1.54452215E+01  7.72261074E+00  7.72261074E+00 -1.54452215E+01
  7.72261074E+00  7.72261074E+00 -1.54452215E+01  7.72261074E+00  7.72261074E+00
 -1.54452215E+01  7.72261074E+00  7.72261074E+00 -1.54452215E+01  7.72261074E+00
  7.72261074E+00 -1.54452215E+01  7.72261074E+00  7.72261074E+00 -1.54452215E+01
  7.72261074E+00  7.72261074E+00 -1.54452215E+01  7.72261074E+00  7.72261074E+00
 -1.54452215E+01  7.72261074E+00  7.72261074E+00 -1.54452215E+01  7.72261074E+00
  7.72261074E+00 -1.54452215E+01  7.72261074E+00  7.72261074E+00 -1.54452215E+01
  7.72261074E+00  7.72261074E+00 -1.54452215E+01  7.72261074E+00  7.72261074E+00
 -1.54452215E+01  7.72261074E+00  7.72261074E+00 -1.54452215E+01  7.72261074E+00
  7.72261074E+00 -1.54452215E+01  7.72261074E+00  7.72261074E+00 -1.54452215E+01
  7.72261074E+00  7.72261074E+00 -1.54452215E+01  7.72261074E+00  7.72261074E+00
 -1.54452215E+01  7.72261074E+00  7.72261074E+00 -1.54452215E+01  7.72261074E+00
  7.72261074E+00 -1.54452215E+01  7.72261074E+00  7.72261074E+00 -1.54452215E+01
  7.72261074E+00  7.72261074E+00 -1.54452215E+01  7.72261074E+00  7.72261074E+00
 -1.54452215E+01  7.72261074E+00  7.72261074E+00 -1.54452215E+01  7.72261074E+00
  7.72261074E+00 -1.54452215E+01  7.72261074E+00  7.72261074E+00 -1.54452215E+01
  7.72261074E+00  7.72261074E+00 -1.54452215E+01  7.72261074E+00  7.72261074E+00
 -1.54452215E+01  7.72261074E+00  7.72261074E+00 -1.54452215E+01  7.72261074E+00
  7.72261074E+00 -1.54452215E+01  7.72261074E+00  7.72261074E+00 -1.54452215E+01
  7.72261074E+00  7.72261074E+00 -1.54452215E+01  7.72261074E+00  7.72261074E+00
 -1.54452215E+01  7.72261074E+00  7.72261074E+00 -1.54452215E+01  7.72261074E+00
  7.72261074E+00 -1.54452215E+01  7.72261074E+00  7.72261074E+00 -1.54452215E+01
  7.72261074E+00  7.72261074E+00 -1.54452215E+01  7.72261074E+00  7.72261074E+00
 -1.54452215E+01  7.72261074E+00  7.72261074E+00 -1.54452215E+01  7.72261074E+00
  7.72261074E+00 -1.54452215E+01  7.72261074E+00  7.72261074E+00 -1.54452215E+01
  7.72261074E+00  7.72261074E+00 -1.54452215E+01  7.72261074E+00  7.72261074E+00
 -1.54452215E+01  7.72261074E+00  7.72261074E+00 -1.54452215E+01  7.72261074E+00
  7.72261074E+00 -1.54452215E+01  7.72261074E+00  7.72261074E+00 -1.54452215E+01
  7.72261074E+00  7.72261074E+00 -1.54452215E+01  7.72261074E+00  7.72261074E+00
 -1.54452215E+01  7.72261074E+00  7.72261074E+00 -1.54452215E+01  7.72261074E+00
  7.72261074E+00 -1.54452215E+01  7.72261074E+00  7.72261074E+00 -1.54452215E+01
  7.72261074E+00  7.72261074E+00 -1.54452215E+01  7.72261074E+00  7.72261074E+00
 -1.54452215E+01  7.72261074E+00  7.72261074E+00 -1.54452215E+01  7.72261074E+00
  7.72261074E+00 -1.54452215E+01  7.72261074E+00  7.72261074E+00 -1.54452215E+01
  7.72261074E+00  7.72261074E+00 -1.54452215E+01  7.72261074E+00  7.72261074E+00
 -1.54452215E+01  7.72261074E+00  7.72261074E+00 -1.54452215E+01  7.72261074E+00
  7.72261074E+00 -1.54452215E+01  7.72261074E+00  7.72261074E+00 -1.54452215E+01
  7.72261074E+00  7.72261074E+00 -1.54452215E+01  7.72261074E+00  7.72261074E+00
 -1.54452215E+01  7.72261074E+00  7.72261074E+00 -1.54452215E+01  7.72261074E+00
  7.72261074E+00 -1.54452215E+01  7.72261074E+00  7.72261074E+00 -1.54452215E+01
  7.72261074E+00  7.72261074E+00 -1.54452215E+01  7.72261074E+00  7.72261074E+00
 -1.54452215E+01  7.72261074E+00  7.72261074E+00 -1.54452215E+01  7.72261074E+00
  7.72261074E+00 -1.54452215E+01  7.72261074E+00  7.72261074E+00 -1.54452215E+01
  7.72261074E+00  7.72261074E+00 -1.54452215E+01  7.72261074E+00  7.72261074E+00
 -1.54452215E+01  7.72261074E+00  7.72261074E+00 -1.54452215E+01  7.72261074E+00
  7.72261074E+00 -1.54452215E+01  7.72261074E+00  7.72261074E+00 -1.54452215E+01
  7.72261074E+00  7.72261074E+00 -1.54452215E+01  7.72261074E+00  7.72261074E+00
 -1.54452215E+01  7.72261074E+00  7.72261074E+00 -1.54452215E+01  7.72261074E+00
  7.72261074E+00 -1.54452215E+01  7.72261074E+00  7.72261074E+00 -1.54452215E+01
  7.72261074E+00  7.72261074E+00 -1.54452215E+01  7.72261074E+00  7.72261074E+00
 -1.54452215E+01  7.72261074E+00  7.72261074E+00 -1.54452215E+01  7.72261074E+00
  7.72261074E+00 -1.54452215E+01  7.72261074E+00  7.72261074E+00 -1.54452215E+01
  7.72261074E+00  7.72261074E+00 -1.54452215E+01  7.72261074E+00  7.72261074E+00
 -1.54452215E+01  7.72261074E+00  7.72261074E+00 -1.54452215E+01  7.72261074E+00
  7.72261074E+00 -1.54452215E+01  7.72261074E+00  7.72261074E+00 -1.54452215E+01
  7.72261074E+00  7.72261074E+00 -1.54452215E+01  7.72261074E+00  7.72261074E+00
 -1.54452215E+01  7.72261074E+00  7.72261074E+00 -1.54452215E+01  7.72261074E+00
  7.72261074E+00 -1.54452215E+01  7.72261074E+00  7.72261074E+00 -1.54452215E+01
  7.72261074E+00  7.72261074E+00 -1.54452215E+01  7.72261074E+00  7.72261074E+00
 -1.54452215E+01  7.72261074E+00  7.72261074E+00 -1.54452215E+01  7.72261074E+00
  7.72261074E+00 -1.54452215E+01  7.72261074E+00  7.72261074E+00 -1.54452215E+01
  7.72261074E+00  7.72261074E+00 -1.54452215E+01  7.72261074E+00  7.72261074E+00
 -1.54452215E+01  7.72261074E+00  7.72261074E+00 -1.54452215E+01  7.72261074E+00
  7.72261074E+00 -1.54452215E+01  7.72261074E+00  7.72261074E+00 -1.54452215E+01
  7.72261074E+00  7.72261074E+00 -1.54452215E+01  7.72261074E+00  7.72261074E+00
 -1.54452215E+01  7.72261074E+00  7.72261074E+00 -1.54452215E+01  7.72261074E+00
  7.72261074E+00 -1.54452215E+01  7.72261074E+00  7.72261074E+00 -1.54452215E+01
  7.72261074E+00  7.72261074E+00 -1.54452215E+01  7.72261074E+00  7.72261074E+00
 -1.54452215E+01  7.72261074E+00  7.72261074E+00 -1.54452215E+01  7.72261074E+00
  7.72261074E+00 -1.54452215E+01  7.72261074E+00  7.72261074E+00 -1.54452215E+01
  7.72261074E+00  7.72261074E+00 -1.54452215E+01  7.72261074E+00  7.72261074E+00
 -1.54452215E+01  7.72261074E+00  7.72261074E+00 -1.54452215E+01  7.72261074E+00
  7.72261074E+00 -1.54452215E+01  7.72261074E+00  7.72261074E+00 -1.54452215E+01
  7.72261074E+00  7.72261074E+00 -1.54452215E+01  7.72261074E+00  7.72261074E+00
 -1.54452215E+01  7.72261074E+00  7.72261074E+00 -1.54452215E+01  7.72261074E+00
  7.72261074E+00 -1.54452215E+01  7.72261074E+00  7.72261074E+00 -1.54452215E+01
  7.72261074E+00  7.72261074E+00 -1.54452215E+01  7.72261074E+00  7.72261074E+00
 -1.54452215E+01  7.72261074E+00  7.72261074E+00 -1.54452215E+01  7.72261074E+00
  7.72261074E+00 -1.54452215E+01  7.72261074E+00  7.72261074E+00 -1.54452215E+01
  7.72261074E+00  7.72261074E+00 -1.54452215E+01  7.72261074E+00  7.72261074E+00
 -1.54452215E+01  7.72261074E+00  7.72261074E+00 -1.54452215E+01  7.72261074E+00
  7.72261074E+00 -1.54452215E+01  7.72261074E+00  7.72261074E+00 -1.54452215E+01
  7.72261074E+00  7.72261074E+00 -1.54452215E+01  7.72261074E+00  7.72261074E+00
 -1.54452215E+01  7.72261074E+00  7.72261074E+00 -1.54452215E+01  7.72261074E+00
  7.72261074E+00 -1.54452215E+01  7.72261074E+00  7.72261074E+00 -1.54452215E+01
  7.72261074E+00  7.72261074E+00 -1.54452215E+01  7.72261074E+00  7.72261074E+00
 -1.54452215E+01  7.72261074E+00  7.72261074E+00 -1.54452215E+01  7.72261074E+00
  7.72261074E+00 -1.54452215E+01  7.72261074E+00  7.72261074E+00 -1.54452215E+01
  7.72261074E+00  7.72261074E+00 -1.54452215E+01  7.72261074E+00  7.72261074E+00
 -1.54452215E+01  7.72261074E+00  7.72261074E+00 -1.54452215E+01  7.72261074E+00
  7.72261074E+00 -1.54452215E+01  7.72261074E+00  7.72261074E+00 -1.54452215E+01
  7.72261074E+00  7.72261074E+00 -1.54452215E+01  7.72261074E+00  7.72261074E+00
 -1.54452215E+01  7.72261074E+00  7.72261074E+00 -1.54452215E+01  7.72261074E+00
  7.72261074E+00 -1.54452215E+01  7.72261074E+00  7.72261074E+00 -1.54452215E+01
  7.72261074E+00  7.72261074E+00 -1.54452215E+01  7.72261074E+00  7.72261074E+00
 -1.54452215E+01  7.72261074E+00  7.72261074E+00 -1.54452215E+01  7.72261074E+00
  7.72261074E+00 -1.54452215E+01  7.72261074E+00  7.72261074E+00 -1.54452215E+01
  7.72261074E+00  7.72261074E+00 -1.54452215E+01  7.72261074E+00  7.72261074E+00
 -1.54452215E+01  7.72261074E+00  7.72261074E+00 -1.54452215E+01  7.72261074E+00
  7.72261074E+00 -1.54452215E+01  7.72261074E+00  7.72261074E+00 -1.54452215E+01
  7.72261074E+00  7.72261074E+00 -1.54452215E+01  7.72261074E+00  7.72261074E+00
 -1.54452215E+01  7.72261074E+00  7.72261074E+00 -1.54452215E+01  7.72261074E+00
  7.72261074E+00 -1.54452215E+01  7.72261074E+00  7.72261074E+00 -1.54452215E+01
  7.72261074E+00  7.72261074E+00 -1.54452215E+01  7.72261074E+00  7.72261074E+00
 -1.54452215E+01  7.72261074E+00  7.72261074E+00 -1.54452215E+01  7.72261074E+00
  7.72261074E+00 -1.54452215E+01  7.72261074E+00  7.72261074E+00 -1.54452215E+01
  7.72261074E+00  7.72261074E+00 -1.54452215E+01  7.72261074E+00  7.72261074E+00
 -1.54452215E+01  7.72261074E+00  7.72261074E+00 -1.54452215E+01  7.72261074E+00
  7.72261074E+00 -1.54452215E+01  7.72261074E+00  7.72261074E+00 -1.54452215E+01
  7.72261074E+00  7.72261074E+00 -1.54452215E+01  7.72261074E+00  7.72261074E+00
 -1.54452215E+01  7.72261074E+00  7.72261074E+00 -1.54452215E+01  7.72261074E+00
  7.72261074E+00 -1.54452215E+01  7.72261074E+00  7.72261074E+00 -1.54452215E+01
  7.72261074E+00  7.72261074E+00 -1.54452215E+01  7.72261074E+00  7.72261074E+00
 -1.54452215E+01  7.72261074E+00  7.72261074E+00 -1.54452215E+01  7.72261074E+00
  7.72261074E+00 -1.54452215E+01  7.72261074E+00  7.72261074E+00 -1.54452215E+01
  7.72261074E+00  7.72261074E+00 -1.54452215E+01  7.72261074E+00  7.72261074E+00
 -1.54452215E+01  7.72261074E+00  7.72261074E+00 -1.54452215E+01  7.72261074E+00
  7.72261074E+00 -1.54452215E+01  7.72261074E+00  7.72261074E+00 -1.54452215E+01
  7.72261074E+00  7.72261074E+00 -1.54452215E+01  7.72261074E+00  7.72261074E+00
 -1.54452215E+01  7.72261074E+00  7.72261074E+00 -1.54452215E+01  7.72261074E+00
  7.72261074E+00 -1.54452215E+01  7.72261074E+00  7.72261074E+00 -1.54452215E+01
  7.72261074E+00  7.72261074E+00 -1.54452215E+01  7.72261074E+00  7.72261074E+00
 -1.54452215E+01  7.72261074E+00  7.72261074E+00 -1.54452215E+01  7.72261074E+00
  7.72261074E+00 -1.54452215E+01  7.72261074E+00  7.72261074E+00 -1.54452215E+01
  7.72261074E+00  7.72261074E+00 -1.54452215E+01  7.72261074E+00  7.72261074E+00
 -1.54452215E+01  7.72261074E+00  7.72261074E+00 -1.54452215E+01  7.72261074E+00
  7.72261074E+00 -1.54452215E+01  7.72261074E+00  7.72261074E+00 -1.54452215E+01
  7.72261074E+00  7.72261074E+00 -1.54452215E+01  7.72261074E+00  7.72261074E+00
 -1.54452215E+01  7.72261074E+00  7.72261074E+00 -1.54452215E+01  7.72261074E+00
  7.72261074E+00 -1.54452215E+01  7.72261074E+00  7.72261074E+00 -1.54452215E+01
  7.72261074E+00  7.72261074E+00 -1.54452215E+01  7.72261074E+00  7.72261074E+00
 -1.54452215E+01  7.72261074E+00  7.72261074E+00 -1.54452215E+01  7.72261074E+00
  7.72261074E+00 -1.54452215E+01  7.72261074E+00  7.72261074E+00 -1.54452215E+01
  7.72261074E+00  7.72261074E+00 -1.54452215E+01  7.72261074E+00  7.72261074E+00
 -1.54452215E+01  7.72261074E+00  7.72261074E+00 -1.54452215E+01  7.72261074E+00
  7.72261074E+00 -1.54452215E+01  7.72261074E+00  7.72261074E+00 -1.54452215E+01
  7.72261074E+00  7.72261074E+00 -1.54452215E+01  7.72261074E+00  7.72261074E+00
 -1.54452215E+01  7.72261074E+00  7.72261074E+00 -1.54452215E+01  7.72261074E+00
  7.72261074E+00 -1.54452215E+01  7.72261074E+00  7.72261074E+00 -1.54452215E+01
  7.72261074E+00  7.72261074E+00 -1.54452215E+01  7.72261074E+00  7.72261074E+00
 -1.54452215E+01  7.72261074E+00  7.72261074E+00 -1.54452215E+01  7.72261074E+00
  7.72261074E+00 -1.54452215E+01  7.72261074E+00  7.72261074E+00 -1.54452215E+01
  7.72261074E+00  7.72261074E+00 -1.54452215E+01  7.72261074E+00  7.72261074E+00
 -1.54452215E+01  7.72261074E+00  7.72261074E+00 -1.54452215E+01  7.72261074E+00
  7.72261074E+00 -1.54452215E+01  7.72261074E+00  7.72261074E+00 -1.54452215E+01
  7.72261074E+00  7.72261074E+00 -1.54452215E+01  7.72261074E+00  7.72261074E+00
 -1.54452215E+01  7.72261074E+00  7.72261074E+00 -1.54452215E+01  7.72261074E+00
  7.72261074E+00 -1.54452215E+01  7.72261074E+00  7.72261074E+00 -1.54452215E+01
  7.72261074E+00  7.72261074E+00 -1.54452215E+01  7.72261074E+00  7.72261074E+00
 -1.54452215E+01  7.72261074E+00  7.72261074E+00 -1.54452215E+01  7.72261074E+00
  7.72261074E+00 -1.54452215E+01  7.72261074E+00  7.72261074E+00 -1.54452215E+01
  7.72261074E+00  7.72261074E+00 -1.54452215E+01  7.72261074E+00  7.72261074E+00
 -1.54452215E+01  7.72261074E+00  7.72261074E+00 -1.54452215E+01  7.72261074E+00
  7.72261074E+00 -1.54452215E+01  7.72261074E+00  7.72261074E+00 -1.54452215E+01
  7.72261074E+00  7.72261074E+00 -1.54452215E+01  7.72261074E+00  7.72261074E+00
 -1.54452215E+01  7.72261074E+00  7.72261074E+00 -1.54452215E+01  7.72261074E+00
  7.72261074E+00 -1.54452215E+01  7.72261074E+00  7.72261074E+00 -1.54452215E+01
  7.72261074E+00  7.72261074E+00 -1.54452215E+01  7.72261074E+00  7.72261074E+00
 -1.54452215E+01  7.72261074E+00  7.72261074E+00 -1.54452215E+01  7.72261074E+00
  7.72261074E+00 -1.54452215E+01  7.72261074E+00  7.72261074E+00 -1.54452215E+01
  7.72261074E+00  7.72261074E+00 -1.54452215E+01  7.72261074E+00  7.72261074E+00
 -1.54452215E+01  7.72261074E+00  7.72261074E+00 -1.54452215E+01  7.72261074E+00
  7.72261074E+00 -1.54452215E+01  7.72261074E+00  7.72261074E+00 -1.54452215E+01
  7.72261074E+00  7.72261074E+00 -1.54452215E+01  7.72261074E+00  7.72261074E+00
 -1.54452215E+01  7.72261074E+00  7.72261074E+00 -1.54452215E+01  7.72261074E+00
  7.72261074E+00 -1.54452215E+01  7.72261074E+00  7.72261074E+00 -1.54452215E+01
  7.72261074E+00  7.72261074E+00 -1.54452215E+01  7.72261074E+00  7.72261074E+00
 -1.54452215E+01  7.72261074E+00  7.72261074E+00 -1.54452215E+01  7.72261074E+00
  7.72261074E+00 -1.54452215E+01  7.72261074E+00  7.72261074E+00 -1.54452215E+01
  7.72261074E+00  7.72261074E+00 -1.54452215E+01  7.72261074E+00  7.72261074E+00
 -1.54452215E+01  7.72261074E+00  7.72261074E+00 -1.54452215E+01  7.72261074E+00
  7.72261074E+00 -1.54452215E+01  7.72261074E+00  7.72261074E+00 -1.54452215E+01
  7.72261074E+00  7.72261074E+00 -1.54452215E+01  7.72261074E+00  7.72261074E+00
 -1.54452215E+01  7.72261074E+00  7.72261074E+00 -1.54452215E+01  7.72261074E+00
  7.72261074E+00 -1.54452215E+01  7.72261074E+00  7.72261074E+00 -1.54452215E+01
  7.72261074E+00  7.72261074E+00 -1.54452215E+01  7.72261074E+00  7.72261074E+00
 -1.54452215E+01  7.72261074E+00  7.72261074E+00 -1.54452215E+01  7.72261074E+00
  7.72261074E+00 -1.54452215E+01  7.72261074E+00  7.72261074E+00 -1.54452215E+01
  7.72261074E+00  7.72261074E+00 -1.54452215E+01  7.72261074E+00  7.72261074E+00
 -1.54452215E+01  7.72261074E+00  7.72261074E+00 -1.54452215E+01  7.72261074E+00
  7.72261074E+00 -1.54452215E+01  7.72261074E+00  7.72261074E+00 -1.54452215E+01
  7.72261074E+00  7.72261074E+00 -1.54452215E+01  7.72261074E+00  7.72261074E+00
 -1.54452215E+01  7.72261074E+00  7.72261074E+00 -1.54452215E+01  7.72261074E+00
  7.72261074E+00 -1.54452215E+01  7.72261074E+00  7.72261074E+00 -1.54452215E+01
  7.72261074E+00  7.72261074E+00 -1.54452215E+01  7.72261074E+00  7.72261074E+00
 -1.54452215E+01  7.72261074E+00  7.72261074E+00 -1.54452215E+01  7.72261074E+00
  7.72261074E+00 -1.54452215E+01  7.72261074E+00  7.72261074E+00 -1.54452215E+01
  7.72261074E+00  7.72261074E+00 -1.54452215E+01  7.72261074E+00  7.72261074E+00
 -1.54452215E+01  7.72261074E+00  7.72261074E+00 -1.54452215E+01  7.72261074E+00
  7.72261074E+00 -1.54452215E+01  7.72261074E+00  7.72261074E+00 -1.54452215E+01
  7.72261074E+00  7.72261074E+00 -1.54452215E+01  7.72261074E+00  7.72261074E+00
 -1.54452215E+01  7.72261074E+00  7.72261074E+00 -1.54452215E+01  7.72261074E+00
  7.72261074E+00 -1.54452215E+01  7.72261074E+00  7.72261074E+00 -1.54452215E+01
  7.72261074E+00  7.72261074E+00 -1.54452215E+01  7.72261074E+00  7.72261074E+00
 -1.54452215E+01  7.72261074E+00  7.72261074E+00 -1.54452215E+01  7.72261074E+00
  7.72261074E+00 -1.54452215E+01  7.72261074E+00  7.72261074E+00 -1.54452215E+01
  7.72261074E+00  7.72261074E+00 -1.54452215E+01  7.72261074E+00  7.72261074E+00
 -1.54452215E+01  7.72261074E+00  7.72261074E+00 -1.54452215E+01  7.72261074E+00
  7.72261074E+00 -1.54452215E+01  7.72261074E+00  7.72261074E+00 -1.54452215E+01
  7.72261074E+00  7.72261074E+00 -1.54452215E+01  7.72261074E+00  7.72261074E+00
 -1.54452215E+01  7.72261074E+00  7.72261074E+00 -1.54452215E+01  7.72261074E+00
  7.72261074E+00 -1.54452215E+01  7.72261074E+00  7.72261074E+00 -1.54452215E+01
  7.72261074E+00  7.72261074E+00 -1.54452215E+01  7.72261074E+00  7.72261074E+00
 -1.54452215E+01  7.72261074E+00  7.72261074E+00 -1.54452215E+01  7.72261074E+00
  7.72261074E+00 -1.54452215E+01  7.72261074E+00  7.72261074E+00 -1.54452215E+01
  7.72261074E+00  7.72261074E+00 -1.54452215E+01  7.72261074E+00  7.72261074E+00
 -1.54452215E+01  7.72261074E+00  7.72261074E+00 -1.54452215E+01  7.72261074E+00
  7.72261074E+00 -1.54452215E+01  7.72261074E+00  7.72261074E+00 -1.54452215E+01
  7.72261074E+00  7.72261074E+00 -1.54452215E+01  7.72261074E+00  7.72261074E+00
 -1.54452215E+01  7.72261074E+00  7.72261074E+00 -1.54452215E+01  7.72261074E+00
  7.72261074E+00 -1.54452215E+01  7.72261074E+00  7.72261074E+00 -1.54452215E+01
  7.72261074E+00  7.72261074E+00 -1.54452215E+01  7.72261074E+00  7.72261074E+00
 -1.54452215E+01  7.72261074E+00  7.72261074E+00 -1.54452215E+01  7.72261074E+00
  7.72261074E+00 -1.54452215E+01  7.72261074E+00  7.72261074E+00 -1.54452215E+01
  7.72261074E+00  7.72261074E+00 -1.54452215E+01  7.72261074E+00  7.72261074E+00
 -1.54452215E+01  7.72261074E+00  7.72261074E+00 -1.54452215E+01  7.72261074E+00
  7.72261074E+00 -1.54452215E+01  7.72261074E+00  7.72261074E+00 -1.54452215E+01
  7.72261074E+00  7.72261074E+00 -1.54452215E+01  7.72261074E+00  7.72261074E+00
 -1.54452215E+01  7.72261074E+00  7.72261074E+00 -1.54452215E+01  7.72261074E+00
  7.72261074E+00 -1.54452215E+01  7.72261074E+00  7.72261074E+00 -1.54452215E+01
  7.72261074E+00  7.72261074E+00 -1.54452215E+01  7.72261074E+00  7.72261074E+00
 -1.54452215E+01  7.72261074E+00  7.72261074E+00 -1.54452215E+01  7.72261074E+00
  7.72261074E+00 -1.54452215E+01  7.72261074E+00  7.72261074E+00 -1.54452215E+01
  7.72261074E+00  7.72261074E+00 -1.54452215E+01  7.72261074E+00  7.72261074E+00
 -1.54452215E+01  7.72261074E+00  7.72261074E+00 -1.54452215E+01  7.72261074E+00
  7.72261074E+00 -1.54452215E+01  7.72261074E+00  7.72261074E+00 -1.54452215E+01
  7.72261074E+00  7.72261074E+00 -1.54452215E+01  7.72261074E+00  7.72261074E+00
 -1.54452215E+01  7.72261074E+00  7.72261074E+00 -1.54452215E+01  7.72261074E+00
  7.72261074E+00 -1.54452215E+01  7.72261074E+00  7.72261074E+00 -1.54452215E+01
  7.72261074E+00  7.72261074E+00 -1.54452215E+01  7.72261074E+00  7.72261074E+00
 -1.54452215E+01  7.72261074E+00  7.72261074E+00 -1.54452215E+01  7.72261074E+00
  7.72261074E+00 -1.54452215E+01  7.72261074E+00  7.72261074E+00 -1.54452215E+01
  7.72261074E+00  7.72261074E+00 -1.54452215E+01  7.72261074E+00  7.72261074E+00
 -1.54452215E+01  7.72261074E+00  7.72261074E+00 -1.54452215E+01  7.72261074E+00
  7.72261074E+00 -1.54452215E+01  7.72261074E+00  7.72261074E+00 -1.54452215E+01
  7.72261074E+00  7.72261074E+00 -1.54452215E+01  7.72261074E+00  7.72261074E+00
 -1.54452215E+01  7.72261074E+00  7.72261074E+00 -1.54452215E+01  7.72261074E+00
  7.72261074E+00 -1.54452215E+01  7.72261074E+00  7.72261074E+00 -1.54452215E+01
  7.72261074E+00  7.72261074E+00 -1.54452215E+01  7.72261074E+00  7.72261074E+00
 -1.54452215E+01  7.72261074E+00  7.72261074E+00 -1.54452215E+01  7.72261074E+00
  7.72261074E+00 -1.54452215E+01  7.72261074E+00  7.72261074E+00 -1.54452215E+01
  7.72261074E+00  7.72261074E+00 -1.54452215E+01  7.72261074E+00  7.72261074E+00
 -1.54452215E+01  7.72261074E+00  7.72261074E+00 -1.54452215E+01  7.72261074E+00
  7.72261074E+00 -1.54452215E+01  7.72261074E+00  7.72261074E+00 -1.54452215E+01
  7.72261074E+00  7.72261074E+00 -1.54452215E+01  7.72261074E+00  7.72261074E+00
 -1.54452215E+01  7.72261074E+00  7.72261074E+00 -1.54452215E+01  7.72261074E+00
  7.72261074E+00 -1.54452215E+01  7.72261074E+00  7.72261074E+00 -1.54452215E+01
  7.72261074E+00  7.72261074E+00 -1.54452215E+01  7.72261074E+00  7.72261074E+00
 -1.54452215E+01  7.72261074E+00  7.72261074E+00 -1.54452215E+01  7.72261074E+00
  7.72261074E+00 -1.54452215E+01  7.72261074E+00  7.72261074E+00 -1.54452215E+01
  7.72261074E+00  7.72261074E+00 -1.54452215E+01  7.72261074E+00  7.72261074E+00
 -1.54452215E+01  7.72261074E+00  7.72261074E+00 -1.54452215E+01  7.72261074E+00
  7.72261074E+00 -1.54452215E+01  7.72261074E+00  7.72261074E+00 -1.54452215E+01
  7.72261074E+00  7.72261074E+00 -1.54452215E+01  7.72261074E+00  7.72261074E+00
 -1.54452215E+01  7.72261074E+00  7.72261074E+00 -1.54452215E+01  7.72261074E+00
  7.72261074E+00 -1.54452215E+01  7.72261074E+00  7.72261074E+00 -1.54452215E+01
  7.72261074E+00  7.72261074E+00 -1.54452215E+01  7.72261074E+00  7.72261074E+00
 -1.54452215E+01  7.72261074E+00  7.72261074E+00 -1.54452215E+01  7.72261074E+00
  7.72261074E+00 -1.54452215E+01  7.72261074E+00  7.72261074E+00 -1.54452215E+01
  7.72261074E+00  7.72261074E+00 -1.54452215E+01  7.72261074E+00  7.72261074E+00
 -1.54452215E+01  7.72261074E+00  7.72261074E+00 -1.54452215E+01  7.72261074E+00
  7.72261074E+00 -1.54452215E+01  7.72261074E+00  7.72261074E+00 -1.54452215E+01
  7.72261074E+00  7.72261074E+00 -1.54452215E+01  7.72261074E+00  7.72261074E+00
 -1.54452215E+01  7.72261074E+00  7.72261074E+00 -1.54452215E+01  7.72261074E+00
  7.72261074E+00 -1.54452215E+01  7.72261074E+00  7.72261074E+00 -1.54452215E+01
  7.72261074E+00  7.72261074E+00 -1.54452215E+01  7.72261074E+00  7.72261074E+00
 -1.54452215E+01  7.72261074E+00  7.72261074E+00 -1.54452215E+01  7.72261074E+00
  7.72261074E+00 -1.54452215E+01  7.72261074E+00  7.72261074E+00 -1.54452215E+01
  7.72261074E+00  7.72261074E+00 -1.54452215E+01  7.72261074E+00  7.72261074E+00
 -1.54452215E+01  7.72261074E+00  7.72261074E+00 -1.54452215E+01  7.72261074E+00
  7.72261074E+00 -1.54452215E+01  7.72261074E+00  7.72261074E+00 -1.54452215E+01
  7.72261074E+00  7.72261074E+00 -1.54452215E+01  7.72261074E+00  7.72261074E+00
 -1.54452215E+01  7.72261074E+00  7.72261074E+00 -1.54452215E+01  7.72261074E+00
  7.72261074E+00 -1.54452215E+01  7.72261074E+00  7.72261074E+00 -1.54452215E+01
  7.72261074E+00  7.72261074E+00 -1.54452215E+01  7.72261074E+00  7.72261074E+00
 -1.54452215E+01  7.72261074E+00  7.72261074E+00 -1.54452215E+01  7.72261074E+00
  7.72261074E+00 -1.54452215E+01  7.72261074E+00  7.72261074E+00 -1.54452215E+01
  7.72261074E+00  7.72261074E+00 -1.54452215E+01  7.72261074E+00  7.72261074E+00
 -1.54452215E+01  7.72261074E+00  7.72261074E+00 -1.54452215E+01  7.72261074E+00
  7.72261074E+00 -1.54452215E+01  7.72261074E+00  7.72261074E+00 -1.54452215E+01
  7.72261074E+00  7.72261074E+00 -1.54452215E+01  7.72261074E+00  7.72261074E+00
 -1.54452215E+01  7.72261074E+00  7.72261074E+00 -1.54452215E+01  7.72261074E+00
  7.72261074E+00 -1.54452215E+01  7.72261074E+00  7.72261074E+00 -1.54452215E+01
  7.72261074E+00  7.72261074E+00 -1.54452215E+01  7.72261074E+00  7.72261074E+00
 -1.54452215E+01  7.72261074E+00  7.72261074E+00 -1.54452215E+01  7.72261074E+00
  7.72261074E+00 -1.54452215E+01  7.72261074E+00  7.72261074E+00 -1.54452215E+01
  7.72261074E+00  7.72261074E+00 -1.54452215E+01  7.72261074E+00  7.72261074E+00
 -1.54452215E+01  7.72261074E+00  7.72261074E+00 -1.54452215E+01  7.72261074E+00
  7.72261074E+00 -1.54452215E+01  7.72261074E+00  7.72261074E+00 -1.54452215E+01
  7.72261074E+00  7.72261074E+00 -1.54452215E+01  7.72261074E+00  7.72261074E+00
 -1.54452215E+01  7.72261074E+00  7.72261074E+00 -1.54452215E+01  7.72261074E+00
  7.72261074E+00 -1.54452215E+01  7.72261074E+00  7.72261074E+00 -1.54452215E+01
  7.72261074E+00  7.72261074E+00 -1.54452215E+01  7.72261074E+00  7.72261074E+00
 -1.54452215E+01  7.72261074E+00  7.72261074E+00 -1.54452215E+01  7.72261074E+00
  7.72261074E+00 -1.54452215E+01  7.72261074E+00  7.72261074E+00 -1.54452215E+01
  7.72261074E+00  7.72261074E+00 -1.54452215E+01  7.72261074E+00  7.72261074E+00
 -1.54452215E+01  7.72261074E+00  7.72261074E+00 -1.54452215E+01  7.72261074E+00
  7.72261074E+00 -1.54452215E+01  7.72261074E+00  7.72261074E+00 -1.54452215E+01
  7.72261074E+00  7.72261074E+00 -1.54452215E+01  7.72261074E+00  7.72261074E+00
 -1.54452215E+01  7.72261074E+00  7.72261074E+00 -1.54452215E+01  7.72261074E+00
  7.72261074E+00 -1.54452215E+01  7.72261074E+00  7.72261074E+00 -1.54452215E+01
  7.72261074E+00  7.72261074E+00 -1.54452215E+01  7.72261074E+00  7.72261074E+00
 -1.54452215E+01  7.72261074E+00  7.72261074E+00 -1.54452215E+01  7.72261074E+00
  7.72261074E+00 -1.54452215E+01  7.72261074E+00  7.72261074E+00 -1.54452215E+01
  7.72261074E+00  7.72261074E+00 -1.54452215E+01  7.72261074E+00  7.72261074E+00
 -1.54452215E+01  7.72261074E+00  7.72261074E+00 -1.54452215E+01  7.72261074E+00
  7.72261074E+00 -1.54452215E+01  7.72261074E+00  7.72261074E+00 -1.54452215E+01
  7.72261074E+00  7.72261074E+00 -1.54452215E+01  7.72261074E+00  7.72261074E+00
 -1.54452215E+01  7.72261074E+00  7.72261074E+00 -1.54452215E+01  7.72261074E+00
  7.72261074E+00 -1.54452215E+01  7.72261074E+00  7.72261074E+00 -1.54452215E+01
  7.72261074E+00  7.72261074E+00 -1.54452215E+01  7.72261074E+00  7.72261074E+00
 -1.54452215E+01  7.72261074E+00  7.72261074E+00 -1.54452215E+01  7.72261074E+00
  7.72261074E+00 -1.54452215E+01  7.72261074E+00  7.72261074E+00 -1.54452215E+01
  7.72261074E+00  7.72261074E+00 -1.54452215E+01  7.72261074E+00  7.72261074E+00
 -1.54452215E+01  7.72261074E+00  7.72261074E+00 -1.54452215E+01  7.72261074E+00
  7.72261074E+00 -1.54452215E+01  7.72261074E+00  7.72261074E+00 -1.54452215E+01
  7.72261074E+00  7.72261074E+00 -1.54452215E+01  7.72261074E+00  7.72261074E+00
 -1.54452215E+01  7.72261074E+00  7.72261074E+00 -1.54452215E+01  7.72261074E+00
  7.72261074E+00 -1.54452215E+01  7.72261074E+00  7.72261074E+00 -1.54452215E+01
  7.72261074E+00  7.72261074E+00 -1.54452215E+01  7.72261074E+00  7.72261074E+00
 -1.54452215E+01  7.72261074E+00  7.72261074E+00 -1.54452215E+01  7.72261074E+00
  7.72261074E+00 -1.54452215E+01  7.72261074E+00  7.72261074E+00 -1.54452215E+01
  7.72261074E+00  7.72261074E+00 -1.54452215E+01  7.72261074E+00  7.72261074E+00
 -1.54452215E+01  7.72261074E+00  7.72261074E+00 -1.54452215E+01  7.72261074E+00
  7.72261074E+00 -1.54452215E+01  7.72261074E+00  7.72261074E+00 -1.54452215E+01
  7.72261074E+00  7.72261074E+00 -1.54452215E+01  7.72261074E+00  7.72261074E+00
 -1.54452215E+01  7.72261074E+00  7.72261074E+00 -1.54452215E+01  7.72261074E+00
  7.72261074E+00 -1.54452215E+01  7.72261074E+00  7.72261074E+00 -1.54452215E+01
  7.72261074E+00  7.72261074E+00 -1.54452215E+01  7.72261074E+00  7.72261074E+00
 -1.54452215E+01  7.72261074E+00  7.72261074E+00 -1.54452215E+01  7.72261074E+00
  7.72261074E+00 -1.54452215E+01  7.72261074E+00  7.72261074E+00 -1.54452215E+01
  7.72261074E+00  7.72261074E+00 -1.54452215E+01  7.72261074E+00  7.72261074E+00
 -1.54452215E+01  7.72261074E+00  7.72261074E+00 -1.54452215E+01  7.72261074E+00
  7.72261074E+00 -1.54452215E+01  7.72261074E+00  7.72261074E+00 -1.54452215E+01
  7.72261074E+00  7.72261074E+00 -1.54452215E+01  7.72261074E+00  7.72261074E+00
 -1.54452215E+01  7.72261074E+00  7.72261074E+00 -1.54452215E+01  7.72261074E+00
  7.72261074E+00 -1.54452215E+01  7.72261074E+00  7.72261074E+00 -1.54452215E+01
  7.72261074E+00  7.72261074E+00 -1.54452215E+01  7.72261074E+00  7.72261074E+00
 -1.54452215E+01  7.72261074E+00  7.72261074E+00 -1.54452215E+01  7.72261074E+00
  7.72261074E+00 -1.54452215E+01  7.72261074E+00  7.72261074E+00 -1.54452215E+01
  7.72261074E+00  7.72261074E+00 -1.54452215E+01  7.72261074E+00  7.72261074E+00
 -1.54452215E+01  7.72261074E+00  7.72261074E+00 -1.54452215E+01  7.72261074E+00
  7.72261074E+00 -1.54452215E+01  7.72261074E+00  7.72261074E+00 -1.54452215E+01
  7.72261074E+00  7.72261074E+00 -1.54452215E+01  7.72261074E+00  7.72261074E+00
 -1.54452215E+01  7.72261074E+00  7.72261074E+00 -1.54452215E+01  7.72261074E+00
  7.72261074E+00 -1.54452215E+01  7.72261074E+00  7.72261074E+00 -1.54452215E+01
  7.72261074E+00  7.72261074E+00 -1.54452215E+01  7.72261074E+00  7.72261074E+00
 -1.54452215E+01  7.72261074E+00  7.72261074E+00 -1.54452215E+01  7.72261074E+00
  7.72261074E+00 -1.54452215E+01  7.72261074E+00  7.72261074E+00 -1.54452215E+01
  7.72261074E+00  7.72261074E+00 -1.54452215E+01  7.72261074E+00  7.72261074E+00
 -1.54452215E+01  7.72261074E+00  7.72261074E+00 -1.54452215E+01  7.72261074E+00
  7.72261074E+00 -1.54452215E+01  7.72261074E+00  7.72261074E+00 -1.54452215E+01
  7.72261074E+00  7.72261074E+00 -1.54452215E+01  7.72261074E+00  7.72261074E+00
 -1.54452215E+01  7.72261074E+00  7.72261074E+00 -1.54452215E+01  7.72261074E+00
  7.72261074E+00 -1.54452215E+01  7.72261074E+00  7.72261074E+00 -1.54452215E+01
  7.72261074E+00  7.72261074E+00 -1.54452215E+01  7.72261074E+00  7.72261074E+00
 -1.54452215E+01  7.72261074E+00  7.72261074E+00 -1.54452215E+01  7.72261074E+00
  7.72261074E+00 -1.54452215E+01  7.72261074E+00  7.72261074E+00 -1.54452215E+01
  7.72261074E+00  7.72261074E+00 -1.54452215E+01  7.72261074E+00  7.72261074E+00
 -1.54452215E+01  7.72261074E+00  7.72261074E+00 -1.54452215E+01  7.72261074E+00
  7.72261074E+00 -1.54452215E+01  7.72261074E+00  7.72261074E+00 -1.54452215E+01
  7.72261074E+00  7.72261074E+00 -1.54452215E+01  7.72261074E+00  7.72261074E+00
 -1.54452215E+01  7.72261074E+00  7.72261074E+00 -1.54452215E+01  7.72261074E+00
  7.72261074E+00 -1.54452215E+01  7.72261074E+00  7.72261074E+00 -1.54452215E+01
  7.72261074E+00  7.72261074E+00 -1.54452215E+01  7.72261074E+00  7.72261074E+00
 -1.54452215E+01  7.72261074E+00  7.72261074E+00 -1.54452215E+01  7.72261074E+00
  7.72261074E+00 -1.54452215E+01  7.72261074E+00  7.72261074E+00 -1.54452215E+01
  7.72261074E+00  7.72261074E+00 -1.54452215E+01  7.72261074E+00  7.72261074E+00
 -1.54452215E+01  7.72261074E+00  7.72261074E+00 -1.54452215E+01  7.72261074E+00
  7.72261074E+00 -1.54452215E+01  7.72261074E+00  7.72261074E+00 -1.54452215E+01
  7.72261074E+00  7.72261074E+00 -1.54452215E+01  7.72261074E+00  7.72261074E+00
 -1.54452215E+01  7.72261074E+00  7.72261074E+00 -1.54452215E+01  7.72261074E+00
  7.72261074E+00 -1.54452215E+01  7.72261074E+00  7.72261074E+00 -1.54452215E+01
  7.72261074E+00  7.72261074E+00 -1.54452215E+01  7.72261074E+00  7.72261074E+00
 -1.54452215E+01  7.72261074E+00  7.72261074E+00 -1.54452215E+01  7.72261074E+00
  7.72261074E+00 -1.54452215E+01  7.72261074E+00  7.72261074E+00 -1.54452215E+01
  7.72261074E+00  7.72261074E+00 -1.54452215E+01  7.72261074E+00  7.72261074E+00
 -1.54452215E+01  7.72261074E+00  7.72261074E+00 -1.54452215E+01  7.72261074E+00
  7.72261074E+00 -1.54452215E+01  7.72261074E+00  7.72261074E+00 -1.54452215E+01
  7.72261074E+00  7.72261074E+00 -1.54452215E+01  7.72261074E+00  7.72261074E+00
 -1.54452215E+01  7.72261074E+00  7.72261074E+00 -1.54452215E+01  7.72261074E+00
  7.72261074E+00 -1.54452215E+01  7.72261074E+00  7.72261074E+00 -1.54452215E+01
  7.72261074E+00  7.72261074E+00 -1.54452215E+01  7.72261074E+00  7.72261074E+00
 -1.54452215E+01  7.72261074E+00  7.72261074E+00 -1.54452215E+01  7.72261074E+00
  7.72261074E+00 -1.54452215E+01  7.72261074E+00  7.72261074E+00 -1.54452215E+01
  7.72261074E+00  7.72261074E+00 -1.54452215E+01  7.72261074E+00  7.72261074E+00
 -1.54452215E+01  7.72261074E+00  7.72261074E+00 -1.54452215E+01  7.72261074E+00
  7.72261074E+00 -1.54452215E+01  7.72261074E+00  7.72261074E+00 -1.54452215E+01
  7.72261074E+00  7.72261074E+00 -1.54452215E+01  7.72261074E+00  7.72261074E+00
 -1.54452215E+01  7.72261074E+00  7.72261074E+00 -1.54452215E+01  7.72261074E+00
  7.72261074E+00 -1.54452215E+01  7.72261074E+00  7.72261074E+00 -1.54452215E+01
  7.72261074E+00  7.72261074E+00 -1.54452215E+01  7.72261074E+00  7.72261074E+00
 -1.54452215E+01  7.72261074E+00  7.72261074E+00 -1.54452215E+01  7.72261074E+00
  7.72261074E+00 -1.54452215E+01  7.72261074E+00  7.72261074E+00 -1.54452215E+01
  7.72261074E+00  7.72261074E+00 -1.54452215E+01  7.72261074E+00  7.72261074E+00
 -1.54452215E+01  7.72261074E+00  7.72261074E+00 -1.54452215E+01  7.72261074E+00
  7.72261074E+00 -1.54452215E+01  7.72261074E+00  7.72261074E+00 -1.54452215E+01
  7.72261074E+00  7.72261074E+00 -1.54452215E+01  7.72261074E+00  7.72261074E+00
 -1.54452215E+01  7.72261074E+00  7.72261074E+00 -1.54452215E+01  7.72261074E+00
  7.72261074E+00 -1.54452215E+01  7.72261074E+00  7.72261074E+00 -1.54452215E+01
  7.72261074E+00  7.72261074E+00 -1.54452215E+01  7.72261074E+00  7.72261074E+00
 -1.54452215E+01  7.72261074E+00  7.72261074E+00 -1.54452215E+01  7.72261074E+00
  7.72261074E+00 -1.54452215E+01  7.72261074E+00  7.72261074E+00 -1.54452215E+01
  7.72261074E+00  7.72261074E+00 -1.54452215E+01  7.72261074E+00  7.72261074E+00
 -1.54452215E+01  7.72261074E+00  7.72261074E+00 -1.54452215E+01  7.72261074E+00
  7.72261074E+00 -1.54452215E+01  7.72261074E+00  7.72261074E+00 -1.54452215E+01
  7.72261074E+00  7.72261074E+00 -1.54452215E+01  7.72261074E+00  7.72261074E+00
 -1.54452215E+01  7.72261074E+00  7.72261074E+00 -1.54452215E+01  7.72261074E+00
  7.72261074E+00 -1.54452215E+01  7.72261074E+00  7.72261074E+00 -1.54452215E+01
  7.72261074E+00  7.72261074E+00 -1.54452215E+01  7.72261074E+00  7.72261074E+00
 -1.54452215E+01  7.72261074E+00  7.72261074E+00 -1.54452215E+01  7.72261074E+00
  7.72261074E+00 -1.54452215E+01  7.72261074E+00  7.72261074E+00 -1.54452215E+01
  7.72261074E+00  7.72261074E+00 -1.54452215E+01  7.72261074E+00  7.72261074E+00
 -1.54452215E+01  7.72261074E+00  7.72261074E+00 -1.54452215E+01  7.72261074E+00
  7.72261074E+00 -1.54452215E+01  7.72261074E+00  7.72261074E+00 -1.54452215E+01
  7.72261074E+00  7.72261074E+00 -1.54452215E+01  7.72261074E+00  7.72261074E+00
 -1.54452215E+01  7.72261074E+00  7.72261074E+00 -1.54452215E+01  7.72261074E+00
  7.72261074E+00 -1.54452215E+01  7.72261074E+00  7.72261074E+00 -1.54452215E+01
  7.72261074E+00  7.72261074E+00 -1.54452215E+01  7.72261074E+00  7.72261074E+00
 -1.54452215E+01  7.72261074E+00  7.72261074E+00 -1.54452215E+01  7.72261074E+00
  7.72261074E+00 -1.54452215E+01  7.72261074E+00  7.72261074E+00 -1.54452215E+01
  7.72261074E+00  7.72261074E+00 -1.54452215E+01  7.72261074E+00  7.72261074E+00
 -1.54452215E+01  7.72261074E+00  7.72261074E+00 -1.54452215E+01  7.72261074E+00
  7.72261074E+00 -1.54452215E+01  7.72261074E+00  7.72261074E+00 -1.54452215E+01
  7.72261074E+00  7.72261074E+00 -1.54452215E+01  7.72261074E+00  7.72261074E+00
 -1.54452215E+01  7.72261074E+00  7.72261074E+00 -1.54452215E+01  7.72261074E+00
  7.72261074E+00 -1.54452215E+01  7.72261074E+00  7.72261074E+00 -1.54452215E+01
  7.72261074E+00  7.72261074E+00 -1.54452215E+01  7.72261074E+00  7.72261074E+00
 -1.54452215E+01  7.72261074E+00  7.72261074E+00 -1.54452215E+01  7.72261074E+00
  7.72261074E+00 -1.54452215E+01  7.72261074E+00  7.72261074E+00 -1.54452215E+01
  7.72261074E+00  7.72261074E+00 -1.54452215E+01  7.72261074E+00  7.72261074E+00
 -1.54452215E+01  7.72261074E+00  7.72261074E+00 -1.54452215E+01  7.72261074E+00
  7.72261074E+00 -1.54452215E+01  7.72261074E+00  7.72261074E+00 -1.54452215E+01
  7.72261074E+00  7.72261074E+00 -1.54452215E+01  7.72261074E+00  7.72261074E+00
 -1.54452215E+01  7.72261074E+00  7.72261074E+00 -1.54452215E+01  7.72261074E+00
  7.72261074E+00 -1.54452215E+01  7.72261074E+00  7.72261074E+00 -1.54452215E+01
  7.72261074E+00  7.72261074E+00 -1.54452215E+01  7.72261074E+00  7.72261074E+00
 -1.54452215E+01  7.72261074E+00  7.72261074E+00 -1.54452215E+01  7.72261074E+00
  7.72261074E+00 -1.54452215E+01  7.72261074E+00  7.72261074E+00 -1.54452215E+01
  7.72261074E+00  7.72261074E+00 -1.54452215E+01  7.72261074E+00  7.72261074E+00
 -1.54452215E+01  7.72261074E+00  7.72261074E+00 -1.54452215E+01  7.72261074E+00
  7.72261074E+00 -1.54452215E+01  7.72261074E+00  7.72261074E+00 -1.54452215E+01
  7.72261074E+00  7.72261074E+00 -1.54452215E+01  7.72261074E+00  7.72261074E+00
 -1.54452215E+01  7.72261074E+00  7.72261074E+00 -1.54452215E+01  7.72261074E+00
  7.72261074E+00 -1.54452215E+01  7.72261074E+00  7.72261074E+00 -1.54452215E+01
  7.72261074E+00  7.72261074E+00 -1.54452215E+01  7.72261074E+00  7.72261074E+00
 -1.54452215E+01  7.72261074E+00  7.72261074E+00 -1.54452215E+01  7.72261074E+00
  7.72261074E+00 -1.54452215E+01  7.72261074E+00  7.72261074E+00 -1.54452215E+01
  7.72261074E+00  7.72261074E+00 -1.54452215E+01  7.72261074E+00  7.72261074E+00
 -1.54452215E+01  7.72261074E+00  7.72261074E+00 -1.54452215E+01  7.72261074E+00
  7.72261074E+00 -1.54452215E+01  7.72261074E+00  7.72261074E+00 -1.54452215E+01
  7.72261074E+00  7.72261074E+00 -1.54452215E+01  7.72261074E+00  7.72261074E+00
 -1.54452215E+01  7.72261074E+00  7.72261074E+00 -1.54452215E+01  7.72261074E+00
  7.72261074E+00 -1.54452215E+01  7.72261074E+00  7.72261074E+00 -1.54452215E+01
  7.72261074E+00  7.72261074E+00 -1.54452215E+01  7.72261074E+00  7.72261074E+00
 -1.54452215E+01  7.72261074E+00  7.72261074E+00 -1.54452215E+01  7.72261074E+00
  7.72261074E+00 -1.54452215E+01  7.72261074E+00  7.72261074E+00 -1.54452215E+01
  7.72261074E+00  7.72261074E+00 -1.54452215E+01  7.72261074E+00  7.72261074E+00
 -1.54452215E+01  7.72261074E+00  7.72261074E+00 -1.54452215E+01  7.72261074E+00
  7.72261074E+00 -1.54452215E+01  7.72261074E+00  7.72261074E+00 -1.54452215E+01
  7.72261074E+00  7.72261074E+00 -1.54452215E+01  7.72261074E+00  7.72261074E+00
 -1.54452215E+01  7.72261074E+00  7.72261074E+00 -1.54452215E+01  7.72261074E+00
  7.72261074E+00 -1.54452215E+01  7.72261074E+00  7.72261074E+00 -1.54452215E+01
  7.72261074E+00  7.72261074E+00 -1.54452215E+01  7.72261074E+00  7.72261074E+00
 -1.54452215E+01  7.72261074E+00  7.72261074E+00 -1.54452215E+01  7.72261074E+00
  7.72261074E+00 -1.54452215E+01  7.72261074E+00  7.72261074E+00 -1.54452215E+01
  7.72261074E+00  7.72261074E+00 -1.54452215E+01  7.72261074E+00  7.72261074E+00
 -1.54452215E+01  7.72261074E+00  7.72261074E+00 -1.54452215E+01  7.72261074E+00
  7.72261074E+00 -1.54452215E+01  7.72261074E+00  7.72261074E+00 -1.54452215E+01
  7.72261074E+00  7.72261074E+00 -1.54452215E+01  7.72261074E+00  7.72261074E+00
 -1.54452215E+01  7.72261074E+00  7.72261074E+00 -1.54452215E+01  7.72261074E+00
  7.72261074E+00 -1.54452215E+01  7.72261074E+00  7.72261074E+00 -1.54452215E+01
  7.72261074E+00  7.72261074E+00 -1.54452215E+01  7.72261074E+00  7.72261074E+00
 -1.54452215E+01  7.72261074E+00  7.72261074E+00 -1.54452215E+01  7.72261074E+00
  7.72261074E+00 -1.54452215E+01  7.72261074E+00  7.72261074E+00 -1.54452215E+01
  7.72261074E+00  7.72261074E+00 -1.54452215E+01  7.72261074E+00  7.72261074E+00
 -1.54452215E+01  7.72261074E+00  7.72261074E+00 -1.54452215E+01  7.72261074E+00
  7.72261074E+00 -1.54452215E+01  7.72261074E+00  7.72261074E+00 -1.54452215E+01
  7.72261074E+00  7.72261074E+00 -1.54452215E+01  7.72261074E+00  7.72261074E+00
 -1.54452215E+01  7.72261074E+00  7.72261074E+00 -1.54452215E+01  7.72261074E+00
  7.72261074E+00 -1.54452215E+01  7.72261074E+00  7.72261074E+00 -1.54452215E+01
  7.72261074E+00  7.72261074E+00 -1.54452215E+01  7.72261074E+00  7.72261074E+00
 -1.54452215E+01  7.72261074E+00  7.72261074E+00 -1.54452215E+01  7.72261074E+00
  7.72261074E+00 -1.54452215E+01  7.72261074E+00  7.72261074E+00 -1.54452215E+01
  7.72261074E+00  7.72261074E+00 -1.54452215E+01  7.72261074E+00  7.72261074E+00
 -1.54452215E+01  7.72261074E+00  7.72261074E+00 -1.54452215E+01  7.72261074E+00
  7.72261074E+00 -1.54452215E+01  7.72261074E+00  7.72261074E+00 -1.54452215E+01
  7.72261074E+00  7.72261074E+00 -1.54452215E+01  7.72261074E+00  7.72261074E+00
 -1.54452215E+01  7.72261074E+00  7.72261074E+00 -1.54452215E+01  7.72261074E+00
  7.72261074E+00 -1.54452215E+01  7.72261074E+00  7.72261074E+00 -1.54452215E+01
  7.72261074E+00  7.72261074E+00 -1.54452215E+01  7.72261074E+00  7.72261074E+00
 -1.54452215E+01  7.72261074E+00  7.72261074E+00 -1.54452215E+01  7.72261074E+00
  7.72261074E+00 -1.54452215E+01  7.72261074E+00  7.72261074E+00 -1.54452215E+01
  7.72261074E+00  7.72261074E+00 -1.54452215E+01  7.72261074E+00  7.72261074E+00
 -1.54452215E+01  7.72261074E+00  7.72261074E+00 -1.54452215E+01  7.72261074E+00
  7.72261074E+00 -1.54452215E+01  7.72261074E+00  7.72261074E+00 -1.54452215E+01
  7.72261074E+00  7.72261074E+00 -1.54452215E+01  7.72261074E+00  7.72261074E+00
 -1.54452215E+01  7.72261074E+00  7.72261074E+00 -1.54452215E+01  7.72261074E+00
  7.72261074E+00 -1.54452215E+01  7.72261074E+00  7.72261074E+00 -1.54452215E+01
  7.72261074E+00  7.72261074E+00 -1.54452215E+01  7.72261074E+00  7.72261074E+00
 -1.54452215E+01  7.72261074E+00  7.72261074E+00 -1.54452215E+01  7.72261074E+00
  7.72261074E+00 -1.54452215E+01  7.72261074E+00  7.72261074E+00 -1.54452215E+01
  7.72261074E+00  7.72261074E+00 -1.54452215E+01  7.72261074E+00  7.72261074E+00
 -1.54452215E+01  7.72261074E+00  7.72261074E+00 -1.54452215E+01  7.72261074E+00
  7.72261074E+00 -1.54452215E+01  7.72261074E+00  7.72261074E+00 -1.54452215E+01
  7.72261074E+00  7.72261074E+00 -1.54452215E+01  7.72261074E+00  7.72261074E+00
 -1.54452215E+01  7.72261074E+00  7.72261074E+00 -1.54452215E+01  7.72261074E+00
  7.72261074E+00 -1.54452215E+01  7.72261074E+00  7.72261074E+00 -1.54452215E+01
  7.72261074E+00  7.72261074E+00 -1.54452215E+01  7.72261074E+00  7.72261074E+00
 -1.54452215E+01  7.72261074E+00  7.72261074E+00 -1.54452215E+01  7.72261074E+00
  7.72261074E+00 -1.54452215E+01  7.72261074E+00  7.72261074E+00 -1.54452215E+01
  7.72261074E+00  7.72261074E+00 -1.54452215E+01  7.72261074E+00  7.72261074E+00
 -1.54452215E+01  7.72261074E+00  7.72261074E+00 -1.54452215E+01  7.72261074E+00
  7.72261074E+00 -1.54452215E+01  7.72261074E+00  7.72261074E+00 -1.54452215E+01
  7.72261074E+00  7.72261074E+00 -1.54452215E+01  7.72261074E+00  7.72261074E+00
 -1.54452215E+01  7.72261074E+00  7.72261074E+00 -1.54452215E+01  7.72261074E+00
  7.72261074E+00 -1.54452215E+01  7.72261074E+00  7.72261074E+00 -1.54452215E+01
  7.72261074E+00  7.72261074E+00 -1.54452215E+01  7.72261074E+00  7.72261074E+00
 -1.54452215E+01  7.72261074E+00  7.72261074E+00 -1.54452215E+01  7.72261074E+00
  7.72261074E+00 -1.54452215E+01  7.72261074E+00  7.72261074E+00 -1.54452215E+01
  7.72261074E+00  7.72261074E+00 -1.54452215E+01  7.72261074E+00  7.72261074E+00
 -1.54452215E+01  7.72261074E+00  7.72261074E+00 -1.54452215E+01  7.72261074E+00
  7.72261074E+00 -1.54452215E+01  7.72261074E+00  7.72261074E+00 -1.54452215E+01
  7.72261074E+00  7.72261074E+00 -1.54452215E+01  7.72261074E+00  7.72261074E+00
 -1.54452215E+01  7.72261074E+00  7.72261074E+00 -1.54452215E+01  7.72261074E+00
  7.72261074E+00 -1.54452215E+01  7.72261074E+00  7.72261074E+00 -1.54452215E+01
  7.72261074E+00  7.72261074E+00 -1.54452215E+01  7.72261074E+00  7.72261074E+00
 -1.54452215E+01  7.72261074E+00  7.72261074E+00 -1.54452215E+01  7.72261074E+00
  7.72261074E+00 -1.54452215E+01  7.72261074E+00  7.72261074E+00 -1.54452215E+01
  7.72261074E+00  7.72261074E+00 -1.54452215E+01  7.72261074E+00  7.72261074E+00
 -1.54452215E+01  7.72261074E+00  7.72261074E+00 -1.54452215E+01  7.72261074E+00
  7.72261074E+00 -1.54452215E+01  7.72261074E+00  7.72261074E+00 -1.54452215E+01
  7.72261074E+00  7.72261074E+00 -1.54452215E+01  7.72261074E+00  7.72261074E+00
 -1.54452215E+01  7.72261074E+00  7.72261074E+00 -1.54452215E+01  7.72261074E+00
  7.72261074E+00 -1.54452215E+01  7.72261074E+00  7.72261074E+00 -1.54452215E+01
  7.72261074E+00  7.72261074E+00 -1.54452215E+01  7.72261074E+00  7.72261074E+00
 -1.54452215E+01  7.72261074E+00  7.72261074E+00 -1.54452215E+01  7.72261074E+00
  7.72261074E+00 -1.54452215E+01  7.72261074E+00  7.72261074E+00 -1.54452215E+01
  7.72261074E+00  7.72261074E+00 -1.54452215E+01  7.72261074E+00  7.72261074E+00
 -1.54452215E+01  7.72261074E+00  7.72261074E+00 -1.54452215E+01  7.72261074E+00
  7.72261074E+00 -1.54452215E+01  7.72261074E+00  7.72261074E+00 -1.54452215E+01
  7.72261074E+00  7.72261074E+00 -1.54452215E+01  7.72261074E+00  7.72261074E+00
 -1.54452215E+01  7.72261074E+00  7.72261074E+00 -1.54452215E+01  7.72261074E+00
  7.72261074E+00 -1.54452215E+01  7.72261074E+00  7.72261074E+00 -1.54452215E+01
  7.72261074E+00  7.72261074E+00 -1.54452215E+01  7.72261074E+00  7.72261074E+00
 -1.54452215E+01  7.72261074E+00  7.72261074E+00 -1.54452215E+01  7.72261074E+00
  7.72261074E+00 -1.54452215E+01  7.72261074E+00  7.72261074E+00 -1.54452215E+01
  7.72261074E+00  7.72261074E+00 -1.54452215E+01  7.72261074E+00  7.72261074E+00
 -1.54452215E+01  7.72261074E+00  7.72261074E+00 -1.54452215E+01  7.72261074E+00
  7.72261074E+00 -1.54452215E+01  7.72261074E+00  7.72261074E+00 -1.54452215E+01
  7.72261074E+00  7.72261074E+00 -1.54452215E+01  7.72261074E+00  7.72261074E+00
 -1.54452215E+01  7.72261074E+00  7.72261074E+00 -1.54452215E+01  7.72261074E+00
  7.72261074E+00 -1.54452215E+01  7.72261074E+00  7.72261074E+00 -1.54452215E+01
  7.72261074E+00  7.72261074E+00 -1.54452215E+01  7.72261074E+00  7.72261074E+00
 -1.54452215E+01  7.72261074E+00  7.72261074E+00 -1.54452215E+01  7.72261074E+00
  7.72261074E+00 -1.54452215E+01  7.72261074E+00  7.72261074E+00 -1.54452215E+01
  7.72261074E+00  7.72261074E+00 -1.54452215E+01  7.72261074E+00  7.72261074E+00
 -1.54452215E+01  7.72261074E+00  7.72261074E+00 -1.54452215E+01  7.72261074E+00
  7.72261074E+00 -1.54452215E+01  7.72261074E+00  7.72261074E+00 -1.54452215E+01
  7.72261074E+00  7.72261074E+00 -1.54452215E+01  7.72261074E+00  7.72261074E+00
 -1.54452215E+01  7.72261074E+00  7.72261074E+00 -1.54452215E+01  7.72261074E+00
  7.72261074E+00 -1.54452215E+01  7.72261074E+00  7.72261074E+00 -1.54452215E+01
  7.72261074E+00  7.72261074E+00 -1.54452215E+01  7.72261074E+00  7.72261074E+00
 -1.54452215E+01  7.72261074E+00  7.72261074E+00 -1.54452215E+01  7.72261074E+00
  7.72261074E+00 -1.54452215E+01  7.72261074E+00  7.72261074E+00 -1.54452215E+01
  7.72261074E+00  7.72261074E+00 -1.54452215E+01  7.72261074E+00  7.72261074E+00
 -1.54452215E+01  7.72261074E+00  7.72261074E+00 -1.54452215E+01  7.72261074E+00
  7.72261074E+00 -1.54452215E+01  7.72261074E+00  7.72261074E+00 -1.54452215E+01
  7.72261074E+00  7.72261074E+00 -1.54452215E+01  7.72261074E+00  7.72261074E+00
 -1.54452215E+01  7.72261074E+00  7.72261074E+00 -1.54452215E+01  7.72261074E+00
  7.72261074E+00 -1.54452215E+01  7.72261074E+00  7.72261074E+00 -1.54452215E+01
  7.72261074E+00  7.72261074E+00 -1.54452215E+01  7.72261074E+00  7.72261074E+00
 -1.54452215E+01  7.72261074E+00  7.72261074E+00 -1.54452215E+01  7.72261074E+00
  7.72261074E+00 -1.54452215E+01  7.72261074E+00  7.72261074E+00 -1.54452215E+01
  7.72261074E+00  7.72261074E+00 -1.54452215E+01  7.72261074E+00  7.72261074E+00
 -1.54452215E+01  7.72261074E+00  7.72261074E+00 -1.54452215E+01  7.72261074E+00
  7.72261074E+00 -1.54452215E+01  7.72261074E+00  7.72261074E+00 -1.54452215E+01
  7.72261074E+00  7.72261074E+00 -1.54452215E+01  7.72261074E+00  7.72261074E+00
 -1.54452215E+01  7.72261074E+00  7.72261074E+00 -1.54452215E+01  7.72261074E+00
  7.72261074E+00 -1.54452215E+01  7.72261074E+00  7.72261074E+00 -1.54452215E+01
  7.72261074E+00  7.72261074E+00 -1.54452215E+01  7.72261074E+00  7.72261074E+00
 -1.54452215E+01  7.72261074E+00  7.72261074E+00 -1.54452215E+01  7.72261074E+00
  7.72261074E+00 -1.54452215E+01  7.72261074E+00  7.72261074E+00 -1.54452215E+01
  7.72261074E+00  7.72261074E+00 -1.54452215E+01  7.72261074E+00  7.72261074E+00
 -1.54452215E+01  7.72261074E+00  7.72261074E+00 -1.54452215E+01  7.72261074E+00
  7.72261074E+00 -1.54452215E+01  7.72261074E+00  7.72261074E+00 -1.54452215E+01
  7.72261074E+00  7.72261074E+00 -1.54452215E+01  7.72261074E+00  7.72261074E+00
 -1.54452215E+01  7.72261074E+00  7.72261074E+00 -1.54452215E+01  7.72261074E+00
  7.72261074E+00 -1.54452215E+01  7.72261074E+00  7.72261074E+00 -1.54452215E+01
  7.72261074E+00  7.72261074E+00 -1.54452215E+01  7.72261074E+00  7.72261074E+00
 -1.54452215E+01  7.72261074E+00  7.72261074E+00 -1.54452215E+01  7.72261074E+00
  7.72261074E+00 -1.54452215E+01  7.72261074E+00  7.72261074E+00 -1.54452215E+01
  7.72261074E+00  7.72261074E+00 -1.54452215E+01  7.72261074E+00  7.72261074E+00
 -1.54452215E+01  7.72261074E+00  7.72261074E+00 -1.54452215E+01  7.72261074E+00
  7.72261074E+00 -1.54452215E+01  7.72261074E+00  7.72261074E+00 -1.54452215E+01
  7.72261074E+00  7.72261074E+00 -1.54452215E+01  7.72261074E+00  7.72261074E+00
 -1.54452215E+01  7.72261074E+00  7.72261074E+00 -1.54452215E+01  7.72261074E+00
  7.72261074E+00 -1.54452215E+01  7.72261074E+00  7.72261074E+00 -1.54452215E+01
  7.72261074E+00  7.72261074E+00 -1.54452215E+01  7.72261074E+00  7.72261074E+00
 -1.54452215E+01  7.72261074E+00  7.72261074E+00 -1.54452215E+01  7.72261074E+00
  7.72261074E+00 -1.54452215E+01  7.72261074E+00  7.72261074E+00 -1.54452215E+01
  7.72261074E+00  7.72261074E+00 -1.54452215E+01  7.72261074E+00  7.72261074E+00
 -1.54452215E+01  7.72261074E+00  7.72261074E+00 -1.54452215E+01  7.72261074E+00
  7.72261074E+00 -1.54452215E+01  7.72261074E+00  7.72261074E+00 -1.54452215E+01
  7.72261074E+00  7.72261074E+00 -1.54452215E+01  7.72261074E+00  7.72261074E+00
 -1.54452215E+01  7.72261074E+00  7.72261074E+00 -1.54452215E+01  7.72261074E+00
  7.72261074E+00 -1.54452215E+01  7.72261074E+00  7.72261074E+00 -1.54452215E+01
  7.72261074E+00  7.72261074E+00 -1.54452215E+01  7.72261074E+00  7.72261074E+00
 -1.54452215E+01  7.72261074E+00  7.72261074E+00 -1.54452215E+01  7.72261074E+00
  7.72261074E+00 -1.54452215E+01  7.72261074E+00  7.72261074E+00 -1.54452215E+01
  7.72261074E+00  7.72261074E+00 -1.54452215E+01  7.72261074E+00  7.72261074E+00
 -1.54452215E+01  7.72261074E+00  7.72261074E+00 -1.54452215E+01  7.72261074E+00
  7.72261074E+00 -1.54452215E+01  7.72261074E+00  7.72261074E+00 -1.54452215E+01
  7.72261074E+00  7.72261074E+00 -1.54452215E+01  7.72261074E+00  7.72261074E+00
 -1.54452215E+01  7.72261074E+00  7.72261074E+00 -1.54452215E+01  7.72261074E+00
  7.72261074E+00 -1.54452215E+01  7.72261074E+00  7.72261074E+00 -1.54452215E+01
  7.72261074E+00  7.72261074E+00 -1.54452215E+01  7.72261074E+00  7.72261074E+00
 -1.54452215E+01  7.72261074E+00  7.72261074E+00 -1.54452215E+01  7.72261074E+00
  7.72261074E+00 -1.54452215E+01  7.72261074E+00  7.72261074E+00 -1.54452215E+01
  7.72261074E+00  7.72261074E+00 -1.54452215E+01  7.72261074E+00  7.72261074E+00
 -1.54452215E+01  7.72261074E+00  7.72261074E+00 -1.54452215E+01  7.72261074E+00
  7.72261074E+00 -1.54452215E+01  7.72261074E+00  7.72261074E+00 -1.54452215E+01
  7.72261074E+00  7.72261074E+00 -1.54452215E+01  7.72261074E+00  7.72261074E+00
 -1.54452215E+01  7.72261074E+00  7.72261074E+00 -1.54452215E+01  7.72261074E+00
  7.72261074E+00 -1.54452215E+01  7.72261074E+00  7.72261074E+00 -1.54452215E+01
  7.72261074E+00  7.72261074E+00 -1.54452215E+01  7.72261074E+00  7.72261074E+00
 -1.54452215E+01  7.72261074E+00  7.72261074E+00 -1.54452215E+01  7.72261074E+00
  7.72261074E+00 -1.54452215E+01  7.72261074E+00  7.72261074E+00 -1.54452215E+01
  7.72261074E+00  7.72261074E+00 -1.54452215E+01  7.72261074E+00  7.72261074E+00
 -1.54452215E+01  7.72261074E+00  7.72261074E+00 -1.54452215E+01  7.72261074E+00
  7.72261074E+00 -1.54452215E+01  7.72261074E+00  7.72261074E+00 -1.54452215E+01
  7.72261074E+00  7.72261074E+00 -1.54452215E+01  7.72261074E+00  7.72261074E+00
 -1.54452215E+01  7.72261074E+00  7.72261074E+00 -1.54452215E+01  7.72261074E+00
  7.72261074E+00 -1.54452215E+01  7.72261074E+00  7.72261074E+00 -1.54452215E+01
  7.72261074E+00  7.72261074E+00 -1.54452215E+01  7.72261074E+00  7.72261074E+00
 -1.54452215E+01  7.72261074E+00  7.72261074E+00 -1.54452215E+01  7.72261074E+00
  7.72261074E+00 -1.54452215E+01  7.72261074E+00  7.72261074E+00 -1.54452215E+01
  7.72261074E+00  7.72261074E+00 -1.54452215E+01  7.72261074E+00  7.72261074E+00
 -1.54452215E+01  7.72261074E+00  7.72261074E+00 -1.54452215E+01  7.72261074E+00
  7.72261074E+00 -1.54452215E+01  7.72261074E+00  7.72261074E+00 -1.54452215E+01
  7.72261074E+00  7.72261074E+00 -1.54452215E+01  7.72261074E+00  7.72261074E+00
 -1.54452215E+01  7.72261074E+00  7.72261074E+00 -1.54452215E+01  7.72261074E+00
  7.72261074E+00 -1.54452215E+01  7.72261074E+00  7.72261074E+00 -1.54452215E+01
  7.72261074E+00  7.72261074E+00 -1.54452215E+01  7.72261074E+00  7.72261074E+00
 -1.54452215E+01  7.72261074E+00  7.72261074E+00 -1.54452215E+01  7.72261074E+00
  7.72261074E+00 -1.54452215E+01  7.72261074E+00  7.72261074E+00 -1.54452215E+01
  7.72261074E+00  7.72261074E+00 -1.54452215E+01  7.72261074E+00  7.72261074E+00
 -1.54452215E+01  7.72261074E+00  7.72261074E+00 -1.54452215E+01  7.72261074E+00
  7.72261074E+00 -1.54452215E+01  7.72261074E+00  7.72261074E+00 -1.54452215E+01
  7.72261074E+00  7.72261074E+00 -1.54452215E+01  7.72261074E+00  7.72261074E+00
 -1.54452215E+01  7.72261074E+00  7.72261074E+00 -1.54452215E+01  7.72261074E+00
  7.72261074E+00 -1.54452215E+01  7.72261074E+00  7.72261074E+00 -1.54452215E+01
  7.72261074E+00  7.72261074E+00 -1.54452215E+01  7.72261074E+00  7.72261074E+00
 -1.54452215E+01  7.72261074E+00  7.72261074E+00 -1.54452215E+01  7.72261074E+00
  7.72261074E+00 -1.54452215E+01  7.72261074E+00  7.72261074E+00 -1.54452215E+01
  7.72261074E+00  7.72261074E+00 -1.54452215E+01  7.72261074E+00  7.72261074E+00
 -1.54452215E+01  7.72261074E+00  7.72261074E+00 -1.54452215E+01  7.72261074E+00
  7.72261074E+00 -1.54452215E+01  7.72261074E+00  7.72261074E+00 -1.54452215E+01
  7.72261074E+00  7.72261074E+00 -1.54452215E+01  7.72261074E+00  7.72261074E+00
 -1.54452215E+01  7.72261074E+00  7.72261074E+00 -1.54452215E+01  7.72261074E+00
  7.72261074E+00 -1.54452215E+01  7.72261074E+00  7.72261074E+00 -1.54452215E+01
  7.72261074E+00  7.72261074E+00 -1.54452215E+01  7.72261074E+00  7.72261074E+00
 -1.54452215E+01  7.72261074E+00  7.72261074E+00 -1.54452215E+01  7.72261074E+00
  7.72261074E+00 -1.54452215E+01  7.72261074E+00  7.72261074E+00 -1.54452215E+01
  7.72261074E+00  7.72261074E+00 -1.54452215E+01  7.72261074E+00  7.72261074E+00
 -1.54452215E+01  7.72261074E+00  7.72261074E+00 -1.54452215E+01  7.72261074E+00
  7.72261074E+00 -1.54452215E+01  7.72261074E+00  7.72261074E+00 -1.54452215E+01
  7.72261074E+00  7.72261074E+00 -1.54452215E+01  7.72261074E+00  7.72261074E+00
 -1.54452215E+01  7.72261074E+00  7.72261074E+00 -1.54452215E+01  7.72261074E+00
  7.72261074E+00 -1.54452215E+01  7.72261074E+00  7.72261074E+00 -1.54452215E+01
  7.72261074E+00  7.72261074E+00 -1.54452215E+01  7.72261074E+00  7.72261074E+00
 -1.54452215E+01  7.72261074E+00  7.72261074E+00 -1.54452215E+01  7.72261074E+00
  7.72261074E+00 -1.54452215E+01  7.72261074E+00  7.72261074E+00 -1.54452215E+01
  7.72261074E+00  7.72261074E+00 -1.54452215E+01  7.72261074E+00  7.72261074E+00
 -1.54452215E+01  7.72261074E+00  7.72261074E+00 -1.54452215E+01  7.72261074E+00
  7.72261074E+00 -1.54452215E+01  7.72261074E+00  7.72261074E+00 -1.54452215E+01
  7.72261074E+00  7.72261074E+00 -1.54452215E+01  7.72261074E+00  7.72261074E+00
 -1.54452215E+01  7.72261074E+00  7.72261074E+00 -1.54452215E+01  7.72261074E+00
  7.72261074E+00 -1.54452215E+01  7.72261074E+00  7.72261074E+00 -1.54452215E+01
  7.72261074E+00  7.72261074E+00 -1.54452215E+01  7.72261074E+00  7.72261074E+00
 -1.54452215E+01  7.72261074E+00  7.72261074E+00 -1.54452215E+01  7.72261074E+00
  7.72261074E+00 -1.54452215E+01  7.72261074E+00  7.72261074E+00 -1.54452215E+01
  7.72261074E+00  7.72261074E+00 -1.54452215E+01  7.72261074E+00  7.72261074E+00
 -1.54452215E+01  7.72261074E+00  7.72261074E+00 -1.54452215E+01  7.72261074E+00
  7.72261074E+00 -1.54452215E+01  7.72261074E+00  7.72261074E+00 -1.54452215E+01
  7.72261074E+00  7.72261074E+00 -1.54452215E+01  7.72261074E+00  7.72261074E+00
 -1.54452215E+01  7.72261074E+00  7.72261074E+00 -1.54452215E+01  7.72261074E+00
  7.72261074E+00 -1.54452215E+01  7.72261074E+00  7.72261074E+00 -1.54452215E+01
  7.72261074E+00  7.72261074E+00 -1.54452215E+01  7.72261074E+00  7.72261074E+00
 -1.54452215E+01  7.72261074E+00  7.72261074E+00 -1.54452215E+01  7.72261074E+00
  7.72261074E+00 -1.54452215E+01  7.72261074E+00  7.72261074E+00 -1.54452215E+01
  7.72261074E+00  7.72261074E+00 -1.54452215E+01  7.72261074E+00  7.72261074E+00
 -1.54452215E+01  7.72261074E+00  7.72261074E+00 -1.54452215E+01  7.72261074E+00
  7.72261074E+00 -1.54452215E+01  7.72261074E+00  7.72261074E+00 -1.54452215E+01
  7.72261074E+00  7.72261074E+00 -1.54452215E+01  7.72261074E+00  7.72261074E+00
 -1.54452215E+01  7.72261074E+00  7.72261074E+00 -1.54452215E+01  7.72261074E+00
  7.72261074E+00 -1.54452215E+01  7.72261074E+00  7.72261074E+00 -1.54452215E+01
  7.72261074E+00  7.72261074E+00 -1.54452215E+01  7.72261074E+00  7.72261074E+00
 -1.54452215E+01  7.72261074E+00  7.72261074E+00 -1.54452215E+01  7.72261074E+00
  7.72261074E+00 -1.54452215E+01  7.72261074E+00  7.72261074E+00 -1.54452215E+01
  7.72261074E+00  7.72261074E+00 -1.54452215E+01  7.72261074E+00  7.72261074E+00
 -1.54452215E+01  7.72261074E+00  7.72261074E+00 -1.54452215E+01  7.72261074E+00
  7.72261074E+00 -1.54452215E+01  7.72261074E+00  7.72261074E+00 -1.54452215E+01
  7.72261074E+00  7.72261074E+00 -1.54452215E+01  7.72261074E+00  7.72261074E+00
 -1.54452215E+01  7.72261074E+00  7.72261074E+00 -1.54452215E+01  7.72261074E+00
  7.72261074E+00 -1.54452215E+01  7.72261074E+00  7.72261074E+00 -1.54452215E+01
  7.72261074E+00  7.72261074E+00 -1.54452215E+01  7.72261074E+00  7.72261074E+00
 -1.54452215E+01  7.72261074E+00  7.72261074E+00 -1.54452215E+01  7.72261074E+00
  7.72261074E+00 -1.54452215E+01  7.72261074E+00  7.72261074E+00 -1.54452215E+01
  7.72261074E+00  7.72261074E+00 -1.54452215E+01  7.72261074E+00  7.72261074E+00
 -1.54452215E+01  7.72261074E+00  7.72261074E+00 -1.54452215E+01  7.72261074E+00
  7.72261074E+00 -1.54452215E+01  7.72261074E+00  7.72261074E+00 -1.54452215E+01
  7.72261074E+00  7.72261074E+00 -1.54452215E+01  7.72261074E+00  7.72261074E+00
 -1.54452215E+01  7.72261074E+00  7.72261074E+00 -1.54452215E+01  7.72261074E+00
  7.72261074E+00 -1.54452215E+01  7.72261074E+00  7.72261074E+00 -1.54452215E+01
  7.72261074E+00  7.72261074E+00 -1.54452215E+01  7.72261074E+00  7.72261074E+00
 -1.54452215E+01  7.72261074E+00  7.72261074E+00 -1.54452215E+01  7.72261074E+00
  7.72261074E+00 -1.54452215E+01  7.72261074E+00  7.72261074E+00 -1.54452215E+01
  7.72261074E+00  7.72261074E+00 -1.54452215E+01  7.72261074E+00  7.72261074E+00
 -1.54452215E+01  7.72261074E+00  7.72261074E+00 -1.54452215E+01  7.72261074E+00
  7.72261074E+00 -1.54452215E+01  7.72261074E+00  7.72261074E+00 -1.54452215E+01
  7.72261074E+00  7.72261074E+00 -1.54452215E+01  7.72261074E+00  7.72261074E+00
 -1.54452215E+01  7.72261074E+00  7.72261074E+00 -1.54452215E+01  7.72261074E+00
  7.72261074E+00 -1.54452215E+01  7.72261074E+00  7.72261074E+00 -1.54452215E+01
  7.72261074E+00  7.72261074E+00 -1.54452215E+01  7.72261074E+00  7.72261074E+00
 -1.54452215E+01  7.72261074E+00  7.72261074E+00 -1.54452215E+01  7.72261074E+00
  7.72261074E+00 -1.54452215E+01  7.72261074E+00  7.72261074E+00 -1.54452215E+01
  7.72261074E+00  7.72261074E+00 -1.54452215E+01  7.72261074E+00  7.72261074E+00
 -1.54452215E+01  7.72261074E+00  7.72261074E+00 -1.54452215E+01  7.72261074E+00
  7.72261074E+00 -1.54452215E+01  7.72261074E+00  7.72261074E+00 -1.54452215E+01
  7.72261074E+00  7.72261074E+00 -1.54452215E+01  7.72261074E+00  7.72261074E+00
 -1.54452215E+01  7.72261074E+00  7.72261074E+00 -1.54452215E+01  7.72261074E+00
  7.72261074E+00 -1.54452215E+01  7.72261074E+00  7.72261074E+00 -1.54452215E+01
  7.72261074E+00  7.72261074E+00 -1.54452215E+01  7.72261074E+00  7.72261074E+00
 -1.54452215E+01  7.72261074E+00  7.72261074E+00 -1.54452215E+01  7.72261074E+00
  7.72261074E+00 -1.54452215E+01  7.72261074E+00  7.72261074E+00 -1.54452215E+01
  7.72261074E+00  7.72261074E+00 -1.54452215E+01  7.72261074E+00  7.72261074E+00
 -1.54452215E+01  7.72261074E+00  7.72261074E+00 -1.54452215E+01  7.72261074E+00
  7.72261074E+00 -1.54452215E+01  7.72261074E+00  7.72261074E+00 -1.54452215E+01
  7.72261074E+00  7.72261074E+00 -1.54452215E+01  7.72261074E+00  7.72261074E+00
 -1.54452215E+01  7.72261074E+00  7.72261074E+00 -1.54452215E+01  7.72261074E+00
  7.72261074E+00 -1.54452215E+01  7.72261074E+00  7.72261074E+00 -1.54452215E+01
  7.72261074E+00  7.72261074E+00 -1.54452215E+01  7.72261074E+00  7.72261074E+00
 -1.54452215E+01  7.72261074E+00  7.72261074E+00 -1.54452215E+01  7.72261074E+00
  7.72261074E+00 -1.54452215E+01  7.72261074E+00  7.72261074E+00 -1.54452215E+01
  7.72261074E+00  7.72261074E+00 -1.54452215E+01  7.72261074E+00  7.72261074E+00
 -1.54452215E+01  7.72261074E+00  7.72261074E+00 -1.54452215E+01  7.72261074E+00
  7.72261074E+00 -1.54452215E+01  7.72261074E+00  7.72261074E+00 -1.54452215E+01
  7.72261074E+00  7.72261074E+00 -1.54452215E+01  7.72261074E+00  7.72261074E+00
 -1.54452215E+01  7.72261074E+00  7.72261074E+00 -1.54452215E+01  7.72261074E+00
  7.72261074E+00 -1.54452215E+01  7.72261074E+00  7.72261074E+00 -1.54452215E+01
  7.72261074E+00  7.72261074E+00 -1.54452215E+01  7.72261074E+00  7.72261074E+00
 -1.54452215E+01  7.72261074E+00  7.72261074E+00 -1.54452215E+01  7.72261074E+00
  7.72261074E+00 -1.54452215E+01  7.72261074E+00  7.72261074E+00 -1.54452215E+01
  7.72261074E+00  7.72261074E+00 -1.54452215E+01  7.72261074E+00  7.72261074E+00
 -1.54452215E+01  7.72261074E+00  7.72261074E+00 -1.54452215E+01  7.72261074E+00
  7.72261074E+00 -1.54452215E+01  7.72261074E+00  7.72261074E+00 -1.54452215E+01
  7.72261074E+00  7.72261074E+00 -1.54452215E+01  7.72261074E+00  7.72261074E+00
 -1.54452215E+01  7.72261074E+00  7.72261074E+00 -1.54452215E+01  7.72261074E+00
  7.72261074E+00 -1.54452215E+01  7.72261074E+00  7.72261074E+00 -1.54452215E+01
  7.72261074E+00  7.72261074E+00 -1.54452215E+01  7.72261074E+00  7.72261074E+00
 -1.54452215E+01  7.72261074E+00  7.72261074E+00 -1.54452215E+01  7.72261074E+00
  7.72261074E+00 -1.54452215E+01  7.72261074E+00  7.72261074E+00 -1.54452215E+01
  7.72261074E+00  7.72261074E+00 -1.54452215E+01  7.72261074E+00  7.72261074E+00
 -1.54452215E+01  7.72261074E+00  7.72261074E+00 -1.54452215E+01  7.72261074E+00
  7.72261074E+00 -1.54452215E+01  7.72261074E+00  7.72261074E+00 -1.54452215E+01
  7.72261074E+00  7.72261074E+00 -1.54452215E+01  7.72261074E+00  7.72261074E+00
 -1.54452215E+01  7.72261074E+00  7.72261074E+00 -1.54452215E+01  7.72261074E+00
  7.72261074E+00 -1.54452215E+01  7.72261074E+00  7.72261074E+00 -1.54452215E+01
  7.72261074E+00  7.72261074E+00 -1.54452215E+01  7.72261074E+00  7.72261074E+00
 -1.54452215E+01  7.72261074E+00  7.72261074E+00 -1.54452215E+01  7.72261074E+00
  7.72261074E+00 -1.54452215E+01  7.72261074E+00  7.72261074E+00 -1.54452215E+01
  7.72261074E+00  7.72261074E+00 -1.54452215E+01  7.72261074E+00  7.72261074E+00
 -1.54452215E+01  7.72261074E+00  7.72261074E+00 -1.54452215E+01  7.72261074E+00
  7.72261074E+00 -1.54452215E+01  7.72261074E+00  7.72261074E+00 -1.54452215E+01
  7.72261074E+00  7.72261074E+00 -1.54452215E+01  7.72261074E+00  7.72261074E+00
 -1.54452215E+01  7.72261074E+00  7.72261074E+00 -1.54452215E+01  7.72261074E+00
  7.72261074E+00 -1.54452215E+01  7.72261074E+00  7.72261074E+00 -1.54452215E+01
  7.72261074E+00  7.72261074E+00 -1.54452215E+01  7.72261074E+00  7.72261074E+00
 -1.54452215E+01  7.72261074E+00  7.72261074E+00 -1.54452215E+01  7.72261074E+00
  7.72261074E+00 -1.54452215E+01  7.72261074E+00  7.72261074E+00 -1.54452215E+01
  7.72261074E+00  7.72261074E+00 -1.54452215E+01  7.72261074E+00  7.72261074E+00
 -1.54452215E+01  7.72261074E+00  7.72261074E+00 -1.54452215E+01  7.72261074E+00
  7.72261074E+00 -1.54452215E+01  7.72261074E+00  7.72261074E+00 -1.54452215E+01
  7.72261074E+00  7.72261074E+00 -1.54452215E+01  7.72261074E+00  7.72261074E+00
 -1.54452215E+01  7.72261074E+00  7.72261074E+00 -1.54452215E+01  7.72261074E+00
  7.72261074E+00 -1.54452215E+01  7.72261074E+00  7.72261074E+00 -1.54452215E+01
  7.72261074E+00  7.72261074E+00 -1.54452215E+01  7.72261074E+00  7.72261074E+00
 -1.54452215E+01  7.72261074E+00  7.72261074E+00 -1.54452215E+01  7.72261074E+00
  7.72261074E+00 -1.54452215E+01  7.72261074E+00  7.72261074E+00 -1.54452215E+01
  7.72261074E+00  7.72261074E+00 -1.54452215E+01  7.72261074E+00  7.72261074E+00
 -1.54452215E+01  7.72261074E+00  7.72261074E+00 -1.54452215E+01  7.72261074E+00
  7.72261074E+00 -1.54452215E+01  7.72261074E+00  7.72261074E+00 -1.54452215E+01
  7.72261074E+00  7.72261074E+00 -1.54452215E+01  7.72261074E+00  7.72261074E+00
 -1.54452215E+01  7.72261074E+00  7.72261074E+00 -1.54452215E+01  7.72261074E+00
  7.72261074E+00 -1.54452215E+01  7.72261074E+00  7.72261074E+00 -1.54452215E+01
  7.72261074E+00  7.72261074E+00 -1.54452215E+01  7.72261074E+00  7.72261074E+00
 -1.54452215E+01  7.72261074E+00  7.72261074E+00 -1.54452215E+01  7.72261074E+00
  7.72261074E+00 -1.54452215E+01  7.72261074E+00  7.72261074E+00 -1.54452215E+01
  7.72261074E+00  7.72261074E+00 -1.54452215E+01  7.72261074E+00  7.72261074E+00
 -1.54452215E+01  7.72261074E+00  7.72261074E+00 -1.54452215E+01  7.72261074E+00
  7.72261074E+00 -1.54452215E+01  7.72261074E+00  7.72261074E+00 -1.54452215E+01
  7.72261074E+00  7.72261074E+00 -1.54452215E+01  7.72261074E+00  7.72261074E+00
 -1.54452215E+01  7.72261074E+00  7.72261074E+00 -1.54452215E+01  7.72261074E+00
  7.72261074E+00 -1.54452215E+01  7.72261074E+00  7.72261074E+00 -1.54452215E+01
  7.72261074E+00  7.72261074E+00 -1.54452215E+01  7.72261074E+00  7.72261074E+00
 -1.54452215E+01  7.72261074E+00  7.72261074E+00 -1.54452215E+01  7.72261074E+00
  7.72261074E+00 -1.54452215E+01  7.72261074E+00  7.72261074E+00 -1.54452215E+01
  7.72261074E+00  7.72261074E+00 -1.54452215E+01  7.72261074E+00  7.72261074E+00
 -1.54452215E+01  7.72261074E+00  7.72261074E+00 -1.54452215E+01  7.72261074E+00
  7.72261074E+00 -1.54452215E+01  7.72261074E+00  7.72261074E+00 -1.54452215E+01
  7.72261074E+00  7.72261074E+00 -1.54452215E+01  7.72261074E+00  7.72261074E+00
 -1.54452215E+01  7.72261074E+00  7.72261074E+00 -1.54452215E+01  7.72261074E+00
  7.72261074E+00 -1.54452215E+01  7.72261074E+00  7.72261074E+00 -1.54452215E+01
  7.72261074E+00  7.72261074E+00 -1.54452215E+01  7.72261074E+00  7.72261074E+00
 -1.54452215E+01  7.72261074E+00  7.72261074E+00 -1.54452215E+01  7.72261074E+00
  7.72261074E+00 -1.54452215E+01  7.72261074E+00  7.72261074E+00 -1.54452215E+01
  7.72261074E+00  7.72261074E+00 -1.54452215E+01  7.72261074E+00  7.72261074E+00
 -1.54452215E+01  7.72261074E+00  7.72261074E+00 -1.54452215E+01  7.72261074E+00
  7.72261074E+00 -1.54452215E+01  7.72261074E+00  7.72261074E+00 -1.54452215E+01
  7.72261074E+00  7.72261074E+00 -1.54452215E+01  7.72261074E+00  7.72261074E+00
 -1.54452215E+01  7.72261074E+00  7.72261074E+00 -1.54452215E+01  7.72261074E+00
  7.72261074E+00 -1.54452215E+01  7.72261074E+00  7.72261074E+00 -1.54452215E+01
  7.72261074E+00  7.72261074E+00 -1.54452215E+01  7.72261074E+00  7.72261074E+00
 -1.54452215E+01  7.72261074E+00  7.72261074E+00 -1.54452215E+01  7.72261074E+00
  7.72261074E+00 -1.54452215E+01  7.72261074E+00  7.72261074E+00 -1.54452215E+01
  7.72261074E+00  7.72261074E+00 -1.54452215E+01  7.72261074E+00  7.72261074E+00
 -1.54452215E+01  7.72261074E+00  7.72261074E+00 -1.54452215E+01  7.72261074E+00
  7.72261074E+00 -1.54452215E+01  7.72261074E+00  7.72261074E+00 -1.54452215E+01
  7.72261074E+00  7.72261074E+00 -1.54452215E+01  7.72261074E+00  7.72261074E+00
 -1.54452215E+01  7.72261074E+00  7.72261074E+00 -1.54452215E+01  7.72261074E+00
  7.72261074E+00 -1.54452215E+01  7.72261074E+00  7.72261074E+00 -1.54452215E+01
  7.72261074E+00  7.72261074E+00 -1.54452215E+01  7.72261074E+00  7.72261074E+00
 -1.54452215E+01  7.72261074E+00  7.72261074E+00 -1.54452215E+01  7.72261074E+00
  7.72261074E+00 -1.54452215E+01  7.72261074E+00  7.72261074E+00 -1.54452215E+01
  7.72261074E+00  7.72261074E+00 -1.54452215E+01  7.72261074E+00  7.72261074E+00
 -1.54452215E+01  7.72261074E+00  7.72261074E+00 -1.54452215E+01  7.72261074E+00
  7.72261074E+00 -1.54452215E+01  7.72261074E+00  7.72261074E+00 -1.54452215E+01
  7.72261074E+00  7.72261074E+00 -1.54452215E+01  7.72261074E+00  7.72261074E+00
 -1.54452215E+01  7.72261074E+00  7.72261074E+00 -1.54452215E+01  7.72261074E+00
  7.72261074E+00 -1.54452215E+01  7.72261074E+00  7.72261074E+00 -1.54452215E+01
  7.72261074E+00  7.72261074E+00 -1.54452215E+01  7.72261074E+00  7.72261074E+00
 -1.54452215E+01  7.72261074E+00  7.72261074E+00 -1.54452215E+01  7.72261074E+00
  7.72261074E+00 -1.54452215E+01  7.72261074E+00  7.72261074E+00 -1.54452215E+01
  7.72261074E+00  7.72261074E+00 -1.54452215E+01  7.72261074E+00  7.72261074E+00
 -1.54452215E+01  7.72261074E+00  7.72261074E+00 -1.54452215E+01  7.72261074E+00
  7.72261074E+00 -1.54452215E+01  7.72261074E+00  7.72261074E+00 -1.54452215E+01
  7.72261074E+00  7.72261074E+00 -1.54452215E+01  7.72261074E+00  7.72261074E+00
 -1.54452215E+01  7.72261074E+00  7.72261074E+00 -1.54452215E+01  7.72261074E+00
  7.72261074E+00 -1.54452215E+01  7.72261074E+00  7.72261074E+00 -1.54452215E+01
  7.72261074E+00  7.72261074E+00 -1.54452215E+01  7.72261074E+00  7.72261074E+00
 -1.54452215E+01  7.72261074E+00  7.72261074E+00 -1.54452215E+01  7.72261074E+00
  7.72261074E+00 -1.54452215E+01  7.72261074E+00  7.72261074E+00 -1.54452215E+01
  7.72261074E+00  7.72261074E+00 -1.54452215E+01  7.72261074E+00  7.72261074E+00
 -1.54452215E+01  7.72261074E+00  7.72261074E+00 -1.54452215E+01  7.72261074E+00
  7.72261074E+00 -1.54452215E+01  7.72261074E+00  7.72261074E+00 -1.54452215E+01
  7.72261074E+00  7.72261074E+00 -1.54452215E+01  7.72261074E+00  7.72261074E+00
 -1.54452215E+01  7.72261074E+00  7.72261074E+00 -1.54452215E+01  7.72261074E+00
  7.72261074E+00 -1.54452215E+01  7.72261074E+00  7.72261074E+00 -1.54452215E+01
  7.72261074E+00  7.72261074E+00 -1.54452215E+01  7.72261074E+00  7.72261074E+00
 -1.54452215E+01  7.72261074E+00  7.72261074E+00 -1.54452215E+01  7.72261074E+00
  7.72261074E+00 -1.54452215E+01  7.72261074E+00  7.72261074E+00 -1.54452215E+01
  7.72261074E+00  7.72261074E+00 -1.54452215E+01  7.72261074E+00  7.72261074E+00
 -1.54452215E+01  7.72261074E+00  7.72261074E+00 -1.54452215E+01  7.72261074E+00
  7.72261074E+00 -1.54452215E+01  7.72261074E+00  7.72261074E+00 -1.54452215E+01
  7.72261074E+00  7.72261074E+00 -1.54452215E+01  7.72261074E+00  7.72261074E+00
 -1.54452215E+01  7.72261074E+00  7.72261074E+00 -1.54452215E+01  7.72261074E+00
  7.72261074E+00 -1.54452215E+01  7.72261074E+00  7.72261074E+00 -1.54452215E+01
  7.72261074E+00  7.72261074E+00 -1.54452215E+01  7.72261074E+00  7.72261074E+00
 -1.54452215E+01  7.72261074E+00  7.72261074E+00 -1.54452215E+01  7.72261074E+00
  7.72261074E+00 -1.54452215E+01  7.72261074E+00  7.72261074E+00 -1.54452215E+01
  7.72261074E+00  7.72261074E+00 -1.54452215E+01  7.72261074E+00  7.72261074E+00
 -1.54452215E+01  7.72261074E+00  7.72261074E+00 -1.54452215E+01  7.72261074E+00
  7.72261074E+00 -1.54452215E+01  7.72261074E+00  7.72261074E+00 -1.54452215E+01
  7.72261074E+00  7.72261074E+00 -1.54452215E+01  7.72261074E+00  7.72261074E+00
 -1.54452215E+01  7.72261074E+00  7.72261074E+00 -1.54452215E+01  7.72261074E+00
  7.72261074E+00 -1.54452215E+01  7.72261074E+00  7.72261074E+00 -1.54452215E+01
  7.72261074E+00  7.72261074E+00 -1.54452215E+01  7.72261074E+00  7.72261074E+00
 -1.54452215E+01  7.72261074E+00  7.72261074E+00 -1.54452215E+01  7.72261074E+00
  7.72261074E+00 -1.54452215E+01  7.72261074E+00  7.72261074E+00 -1.54452215E+01
  7.72261074E+00  7.72261074E+00 -1.54452215E+01  7.72261074E+00  7.72261074E+00
 -1.54452215E+01  7.72261074E+00  7.72261074E+00 -1.54452215E+01  7.72261074E+00
  7.72261074E+00 -1.54452215E+01  7.72261074E+00  7.72261074E+00 -1.54452215E+01
  7.72261074E+00  7.72261074E+00 -1.54452215E+01  7.72261074E+00  7.72261074E+00
 -1.54452215E+01  7.72261074E+00  7.72261074E+00 -1.54452215E+01  7.72261074E+00
  7.72261074E+00 -1.54452215E+01  7.72261074E+00  7.72261074E+00 -1.54452215E+01
  7.72261074E+00  7.72261074E+00 -1.54452215E+01  7.72261074E+00  7.72261074E+00
 -1.54452215E+01  7.72261074E+00  7.72261074E+00 -1.54452215E+01  7.72261074E+00
  7.72261074E+00 -1.54452215E+01  7.72261074E+00  7.72261074E+00 -1.54452215E+01
  7.72261074E+00  7.72261074E+00 -1.54452215E+01  7.72261074E+00  7.72261074E+00
 -1.54452215E+01  7.72261074E+00  7.72261074E+00 -1.54452215E+01  7.72261074E+00
  7.72261074E+00 -1.54452215E+01  7.72261074E+00  7.72261074E+00 -1.54452215E+01
  7.72261074E+00  7.72261074E+00 -1.54452215E+01  7.72261074E+00  7.72261074E+00
 -1.54452215E+01  7.72261074E+00  7.72261074E+00 -1.54452215E+01  7.72261074E+00
  7.72261074E+00 -1.54452215E+01  7.72261074E+00  7.72261074E+00 -1.54452215E+01
  7.72261074E+00  7.72261074E+00 -1.54452215E+01  7.72261074E+00  7.72261074E+00
 -1.54452215E+01  7.72261074E+00  7.72261074E+00 -1.54452215E+01  7.72261074E+00
  7.72261074E+00 -1.54452215E+01  7.72261074E+00  7.72261074E+00 -1.54452215E+01
  7.72261074E+00  7.72261074E+00 -1.54452215E+01  7.72261074E+00  7.72261074E+00
 -1.54452215E+01  7.72261074E+00  7.72261074E+00 -1.54452215E+01  7.72261074E+00
  7.72261074E+00 -1.54452215E+01  7.72261074E+00  7.72261074E+00 -1.54452215E+01
  7.72261074E+00  7.72261074E+00 -1.54452215E+01  7.72261074E+00  7.72261074E+00
 -1.54452215E+01  7.72261074E+00  7.72261074E+00 -1.54452215E+01  7.72261074E+00
  7.72261074E+00 -1.54452215E+01  7.72261074E+00  7.72261074E+00 -1.54452215E+01
  7.72261074E+00  7.72261074E+00 -1.54452215E+01  7.72261074E+00  7.72261074E+00
 -1.54452215E+01  7.72261074E+00  7.72261074E+00 -1.54452215E+01  7.72261074E+00
  7.72261074E+00 -1.54452215E+01  7.72261074E+00  7.72261074E+00 -1.54452215E+01
  7.72261074E+00  7.72261074E+00 -1.54452215E+01  7.72261074E+00  7.72261074E+00
 -1.54452215E+01  7.72261074E+00  7.72261074E+00 -1.54452215E+01  7.72261074E+00
  7.72261074E+00 -1.54452215E+01  7.72261074E+00  7.72261074E+00 -1.54452215E+01
  7.72261074E+00  7.72261074E+00 -1.54452215E+01  7.72261074E+00  7.72261074E+00
 -1.54452215E+01  7.72261074E+00  7.72261074E+00 -1.54452215E+01  7.72261074E+00
  7.72261074E+00 -1.54452215E+01  7.72261074E+00  7.72261074E+00 -1.54452215E+01
  7.72261074E+00  7.72261074E+00 -1.54452215E+01  7.72261074E+00  7.72261074E+00
 -1.54452215E+01  7.72261074E+00  7.72261074E+00 -1.54452215E+01  7.72261074E+00
  7.72261074E+00 -1.54452215E+01  7.72261074E+00  7.72261074E+00 -1.54452215E+01
  7.72261074E+00  7.72261074E+00 -1.54452215E+01  7.72261074E+00  7.72261074E+00
 -1.54452215E+01  7.72261074E+00  7.72261074E+00 -1.54452215E+01  7.72261074E+00
  7.72261074E+00 -1.54452215E+01  7.72261074E+00  7.72261074E+00 -1.54452215E+01
  7.72261074E+00  7.72261074E+00 -1.54452215E+01  7.72261074E+00  7.72261074E+00
 -1.54452215E+01  7.72261074E+00  7.72261074E+00 -1.54452215E+01  7.72261074E+00
  7.72261074E+00 -1.54452215E+01  7.72261074E+00  7.72261074E+00 -1.54452215E+01
  7.72261074E+00  7.72261074E+00 -1.54452215E+01  7.72261074E+00  7.72261074E+00
 -1.54452215E+01  7.72261074E+00  7.72261074E+00 -1.54452215E+01  7.72261074E+00
  7.72261074E+00 -1.54452215E+01  7.72261074E+00  7.72261074E+00 -1.54452215E+01
  7.72261074E+00  7.72261074E+00 -1.54452215E+01  7.72261074E+00  7.72261074E+00
 -1.54452215E+01  7.72261074E+00  7.72261074E+00 -1.54452215E+01  7.72261074E+00
  7.72261074E+00 -1.54452215E+01  7.72261074E+00  7.72261074E+00 -1.54452215E+01
  7.72261074E+00  7.72261074E+00 -1.54452215E+01  7.72261074E+00  7.72261074E+00
 -1.54452215E+01  7.72261074E+00  7.72261074E+00 -1.54452215E+01  7.72261074E+00
  7.72261074E+00 -1.54452215E+01  7.72261074E+00  7.72261074E+00 -1.54452215E+01
  7.72261074E+00  7.72261074E+00 -1.54452215E+01  7.72261074E+00  7.72261074E+00
 -1.54452215E+01  7.72261074E+00  7.72261074E+00 -1.54452215E+01  7.72261074E+00
  7.72261074E+00 -1.54452215E+01  7.72261074E+00  7.72261074E+00 -1.54452215E+01
  7.72261074E+00  7.72261074E+00 -1.54452215E+01  7.72261074E+00  7.72261074E+00
 -1.54452215E+01  7.72261074E+00  7.72261074E+00 -1.54452215E+01  7.72261074E+00
  7.72261074E+00 -1.54452215E+01  7.72261074E+00  7.72261074E+00 -1.54452215E+01
  7.72261074E+00  7.72261074E+00 -1.54452215E+01  7.72261074E+00  7.72261074E+00
 -1.54452215E+01  7.72261074E+00  7.72261074E+00 -1.54452215E+01  7.72261074E+00
  7.72261074E+00 -1.54452215E+01  7.72261074E+00  7.72261074E+00 -1.54452215E+01
  7.72261074E+00  7.72261074E+00 -1.54452215E+01  7.72261074E+00  7.72261074E+00
 -1.54452215E+01  7.72261074E+00  7.72261074E+00 -1.54452215E+01  7.72261074E+00
  7.72261074E+00 -1.54452215E+01  7.72261074E+00  7.72261074E+00 -1.54452215E+01
  7.72261074E+00  7.72261074E+00 -1.54452215E+01  7.72261074E+00  7.72261074E+00
 -1.54452215E+01  7.72261074E+00  7.72261074E+00 -1.54452215E+01  7.72261074E+00
  7.72261074E+00 -1.54452215E+01  7.72261074E+00  7.72261074E+00 -1.54452215E+01
  7.72261074E+00  7.72261074E+00 -1.54452215E+01  7.72261074E+00  7.72261074E+00
 -1.54452215E+01  7.72261074E+00  7.72261074E+00 -1.54452215E+01  7.72261074E+00
  7.72261074E+00 -1.54452215E+01  7.72261074E+00  7.72261074E+00 -1.54452215E+01
  7.72261074E+00  7.72261074E+00 -1.54452215E+01  7.72261074E+00  7.72261074E+00
 -1.54452215E+01  7.72261074E+00  7.72261074E+00 -1.54452215E+01  7.72261074E+00
  7.72261074E+00 -1.54452215E+01  7.72261074E+00  7.72261074E+00 -1.54452215E+01
  7.72261074E+00  7.72261074E+00 -1.54452215E+01  7.72261074E+00  7.72261074E+00
 -1.54452215E+01  7.72261074E+00  7.72261074E+00 -1.54452215E+01  7.72261074E+00
  7.72261074E+00 -1.54452215E+01  7.72261074E+00  7.72261074E+00 -1.54452215E+01
  7.72261074E+00  7.72261074E+00 -1.54452215E+01  7.72261074E+00  7.72261074E+00
 -1.54452215E+01  7.72261074E+00  7.72261074E+00 -1.54452215E+01  7.72261074E+00
  7.72261074E+00 -1.54452215E+01  7.72261074E+00  7.72261074E+00 -1.54452215E+01
  7.72261074E+00  7.72261074E+00 -1.54452215E+01  7.72261074E+00  7.72261074E+00
 -1.54452215E+01  7.72261074E+00  7.72261074E+00 -1.54452215E+01  7.72261074E+00
  7.72261074E+00 -1.54452215E+01  7.72261074E+00  7.72261074E+00 -1.54452215E+01
  7.72261074E+00  7.72261074E+00 -1.54452215E+01  7.72261074E+00  7.72261074E+00
 -1.54452215E+01  7.72261074E+00  7.72261074E+00 -1.54452215E+01  7.72261074E+00
  7.72261074E+00 -1.54452215E+01  7.72261074E+00  7.72261074E+00 -1.54452215E+01
  7.72261074E+00  7.72261074E+00 -1.54452215E+01  7.72261074E+00  7.72261074E+00
 -1.54452215E+01  7.72261074E+00  7.72261074E+00 -1.54452215E+01  7.72261074E+00
  7.72261074E+00 -1.54452215E+01  7.72261074E+00  7.72261074E+00 -1.54452215E+01
  7.72261074E+00  7.72261074E+00 -1.54452215E+01  7.72261074E+00  7.72261074E+00
 -1.54452215E+01  7.72261074E+00  7.72261074E+00 -1.54452215E+01  7.72261074E+00
  7.72261074E+00 -1.54452215E+01  7.72261074E+00  7.72261074E+00 -1.54452215E+01
  7.72261074E+00  7.72261074E+00 -1.54452215E+01  7.72261074E+00  7.72261074E+00
 -1.54452215E+01  7.72261074E+00  7.72261074E+00 -1.54452215E+01  7.72261074E+00
  7.72261074E+00 -1.54452215E+01  7.72261074E+00  7.72261074E+00 -1.54452215E+01
  7.72261074E+00  7.72261074E+00 -1.54452215E+01  7.72261074E+00  7.72261074E+00
 -1.54452215E+01  7.72261074E+00  7.72261074E+00 -1.54452215E+01  7.72261074E+00
  7.72261074E+00 -1.54452215E+01  7.72261074E+00  7.72261074E+00 -1.54452215E+01
  7.72261074E+00  7.72261074E+00 -1.54452215E+01  7.72261074E+00  7.72261074E+00
 -1.54452215E+01  7.72261074E+00  7.72261074E+00 -1.54452215E+01  7.72261074E+00
  7.72261074E+00 -1.54452215E+01  7.72261074E+00  7.72261074E+00 -1.54452215E+01
  7.72261074E+00  7.72261074E+00 -1.54452215E+01  7.72261074E+00  7.72261074E+00
 -1.54452215E+01  7.72261074E+00  7.72261074E+00 -1.54452215E+01  7.72261074E+00
  7.72261074E+00 -1.54452215E+01  7.72261074E+00  7.72261074E+00 -1.54452215E+01
  7.72261074E+00  7.72261074E+00 -1.54452215E+01  7.72261074E+00  7.72261074E+00
 -1.54452215E+01  7.72261074E+00  7.72261074E+00 -1.54452215E+01  7.72261074E+00
  7.72261074E+00 -1.54452215E+01  7.72261074E+00  7.72261074E+00 -1.54452215E+01
  7.72261074E+00  7.72261074E+00 -1.54452215E+01  7.72261074E+00  7.72261074E+00
 -1.54452215E+01  7.72261074E+00  7.72261074E+00 -1.54452215E+01  7.72261074E+00
  7.72261074E+00 -1.54452215E+01  7.72261074E+00  7.72261074E+00 -1.54452215E+01
  7.72261074E+00  7.72261074E+00 -1.54452215E+01  7.72261074E+00  7.72261074E+00
 -1.54452215E+01  7.72261074E+00  7.72261074E+00 -1.54452215E+01  7.72261074E+00
  7.72261074E+00 -1.54452215E+01  7.72261074E+00  7.72261074E+00 -1.54452215E+01
  7.72261074E+00  7.72261074E+00 -1.54452215E+01  7.72261074E+00  7.72261074E+00
 -1.54452215E+01  7.72261074E+00  7.72261074E+00 -1.54452215E+01  7.72261074E+00
  7.72261074E+00 -1.54452215E+01  7.72261074E+00  7.72261074E+00 -1.54452215E+01
  7.72261074E+00  7.72261074E+00
%FLAG ATOMIC_NUMBER                                                             
%FORMAT(10I8)                                                                   
       7       6       8       6       7       8       6       7       8       6
       8       6       8       6       8       6       6       6       6       6
       6       1       1       1       1       1       1       1       1       1
       1       1       1       1       1       1       1       1       1      30
      11       8       1       1       8       1       1       8       1       1
       8       1       1       8       1       1       8       1       1       8
       1       1       8       1       1       8       1       1       8       1
       1       8       1       1       8       1       1       8       1       1
       8       1       1       8       1       1       8       1       1       8
       1       1       8       1       1       8       1       1       8       1
       1       8       1       1       8       1       1       8       1       1
       8       1       1       8       1       1       8       1       1       8
       1       1       8       1       1       8       1       1       8       1
       1       8       1       1       8       1       1       8       1       1
       8       1       1       8       1       1       8       1       1       8
       1       1       8       1       1       8       1       1       8       1
       1       8       1       1       8       1       1       8       1       1
       8       1       1       8       1       1       8       1       1       8
       1       1       8       1       1       8       1       1       8       1
       1       8       1       1       8       1       1       8       1       1
       8       1       1       8       1       1       8       1       1       8
       1       1       8       1       1       8       1       1       8       1
       1       8       1       1       8       1       1       8       1       1
       8       1       1       8       1       1       8       1       1       8
       1       1       8       1       1       8       1       1       8       1
       1       8       1       1       8       1       1       8       1       1
       8       1       1       8       1       1       8       1       1       8
       1       1       8       1       1       8       1       1       8       1
       1       8       1       1       8       1       1       8       1       1
       8       1       1       8       1       1       8       1       1       8
       1       1       8       1       1       8       1       1       8       1
       1       8       1       1       8       1       1       8       1       1
       8       1       1       8       1       1       8       1       1       8
       1       1       8       1       1       8       1       1       8       1
       1       8       1       1       8       1       1       8       1       1
       8       1       1       8       1       1       8       1       1       8
       1       1       8       1       1       8       1       1       8       1
       1       8       1       1       8       1       1       8       1       1
       8       1       1       8       1       1       8       1       1       8
       1       1       8       1       1       8       1       1       8       1
       1       8       1       1       8       1       1       8       1       1
       8       1       1       8       1       1       8       1       1       8
       1       1       8       1       1       8       1       1       8       1
       1       8       1       1       8       1       1       8       1       1
       8       1       1       8       1       1       8       1       1       8
       1       1       8       1       1       8       1       1       8       1
       1       8       1       1       8       1       1       8       1       1
       8       1       1       8       1       1       8       1       1       8
       1       1       8       1       1       8       1       1       8       1
       1       8       1       1       8       1       1       8       1       1
       8       1       1       8       1       1       8       1       1       8
       1       1       8       1       1       8       1       1       8       1
       1       8       1       1       8       1       1       8       1       1
       8       1       1       8       1       1       8       1       1       8
       1       1       8       1       1       8       1       1       8       1
       1       8       1       1       8       1       1       8       1       1
       8       1       1       8       1       1       8       1       1       8
       1       1       8       1       1       8       1       1       8       1
       1       8       1       1       8       1       1       8       1       1
       8       1       1       8       1       1       8       1       1       8
       1       1       8       1       1       8       1       1       8       1
       1       8       1       1       8       1       1       8       1       1
       8       1       1       8       1       1       8       1       1       8
       1       1       8       1       1       8       1       1       8       1
       1       8       1       1       8       1       1       8       1       1
       8       1       1       8       1       1       8       1       1       8
       1       1       8       1       1       8       1       1       8       1
       1       8       1       1       8       1       1       8       1       1
       8       1       1       8       1       1       8       1       1       8
       1       1       8       1       1       8       1       1       8       1
       1       8       1       1       8       1       1       8       1       1
       8       1       1       8       1       1       8       1       1       8
       1       1       8       1       1       8       1       1       8       1
       1       8       1       1       8       1       1       8       1       1
       8       1       1       8       1       1       8       1       1       8
       1       1       8       1       1       8       1       1       8       1
       1       8       1       1       8       1       1       8       1       1
       8       1       1       8       1       1       8       1       1       8
       1       1       8       1       1       8       1       1       8       1
       1       8       1       1       8       1       1       8       1       1
       8       1       1       8       1       1       8       1       1       8
       1       1       8       1       1       8       1       1       8       1
       1       8       1       1       8       1       1       8       1       1
       8       1       1       8       1       1       8       1       1       8
       1       1       8       1       1       8       1       1       8       1
       1       8       1       1       8       1       1       8       1       1
       8       1       1       8       1       1       8       1       1       8
       1       1       8       1       1       8       1       1       8       1
       1       8       1       1       8       1       1       8       1       1
       8       1       1       8       1       1       8       1       1       8
       1       1       8       1       1       8       1       1       8       1
       1       8       1       1       8       1       1       8       1       1
       8       1       1       8       1       1       8       1       1       8
       1       1       8       1       1       8       1       1       8       1
       1       8       1       1       8       1       1       8       1       1
       8       1       1       8       1       1       8       1       1       8
       1       1       8       1       1       8       1       1       8       1
       1       8       1       1       8       1       1       8       1       1
       8       1       1       8       1       1       8       1       1       8
       1       1       8       1       1       8       1       1       8       1
       1       8       1       1       8       1       1       8       1       1
       8       1       1       8       1       1       8       1       1       8
       1       1       8       1       1       8       1       1       8       1
       1       8       1       1       8       1       1       8       1       1
       8       1       1       8       1       1       8       1       1       8
       1       1       8       1       1       8       1       1       8       1
       1       8       1       1       8       1       1       8       1       1
       8       1       1       8       1       1       8       1       1       8
       1       1       8       1       1       8       1       1       8       1
       1       8       1       1       8       1       1       8       1       1
       8       1       1       8       1       1       8       1       1       8
       1       1       8       1       1       8       1       1       8       1
       1       8       1       1       8       1       1       8       1       1
       8       1       1       8       1       1       8       1       1       8
       1       1       8       1       1       8       1       1       8       1
       1       8       1       1       8       1       1       8       1       1
       8       1       1       8       1       1       8       1       1       8
       1       1       8       1       1       8       1       1       8       1
       1       8       1       1       8       1       1       8       1       1
       8       1       1       8       1       1       8       1       1       8
       1       1       8       1       1       8       1       1       8       1
       1       8       1       1       8       1       1       8       1       1
       8       1       1       8       1       1       8       1       1       8
       1       1       8       1       1       8       1       1       8       1
       1       8       1       1       8       1       1       8       1       1
       8       1       1       8       1       1       8       1       1       8
       1       1       8       1       1       8       1       1       8       1
       1       8       1       1       8       1       1       8       1       1
       8       1       1       8       1       1       8       1       1       8
       1       1       8       1       1       8       1       1       8       1
       1       8       1       1       8       1       1       8       1       1
       8       1       1       8       1       1       8       1       1       8
       1       1       8       1       1       8       1       1       8       1
       1       8       1       1       8       1       1       8       1       1
       8       1       1       8       1       1       8       1       1       8
       1       1       8       1       1       8       1       1       8       1
       1       8       1       1       8       1       1       8       1       1
       8       1       1       8       1       1       8       1       1       8
       1       1       8       1       1       8       1       1       8       1
       1       8       1       1       8       1       1       8       1       1
       8       1       1       8       1       1       8       1       1       8
       1       1       8       1       1       8       1       1       8       1
       1       8       1       1       8       1       1       8       1       1
       8       1       1       8       1       1       8       1       1       8
       1       1       8       1       1       8       1       1       8       1
       1       8       1       1       8       1       1       8       1       1
       8       1       1       8       1       1       8       1       1       8
       1       1       8       1       1       8       1       1       8       1
       1       8       1       1       8       1       1       8       1       1
       8       1       1       8       1       1       8       1       1       8
       1       1       8       1       1       8       1       1       8       1
       1       8       1       1       8       1       1       8       1       1
       8       1       1       8       1       1       8       1       1       8
       1       1       8       1       1       8       1       1       8       1
       1       8       1       1       8       1       1       8       1       1
       8       1       1       8       1       1       8       1       1       8
       1       1       8       1       1       8       1       1       8       1
       1       8       1       1       8       1       1       8       1       1
       8       1       1       8       1       1       8       1       1       8
       1       1       8       1       1       8       1       1       8       1
       1       8       1       1       8       1       1       8       1       1
       8       1       1       8       1       1       8       1       1       8
       1       1       8       1       1       8       1       1       8       1
       1       8       1       1       8       1       1       8       1       1
       8       1       1       8       1       1       8       1       1       8
       1       1       8       1       1       8       1       1       8       1
       1       8       1       1       8       1       1       8       1       1
       8       1       1       8       1       1       8       1       1       8
       1       1       8       1       1       8       1       1       8       1
       1       8       1       1       8       1       1       8       1       1
       8       1       1       8       1       1       8       1       1       8
       1       1       8       1       1       8       1       1       8       1
       1       8       1       1       8       1       1       8       1       1
       8       1       1       8       1       1       8       1       1       8
       1       1       8       1       1       8       1       1       8       1
       1       8       1       1       8       1       1       8       1       1
       8       1       1       8       1       1       8       1       1       8
       1       1       8       1       1       8       1       1       8       1
       1       8       1       1       8       1       1       8       1       1
       8       1       1       8       1       1       8       1       1       8
       1       1       8       1       1       8       1       1       8       1
       1       8       1       1       8       1       1       8       1       1
       8       1       1       8       1       1       8       1       1       8
       1       1       8       1       1       8       1       1       8       1
       1       8       1       1       8       1       1       8       1       1
       8       1       1       8       1       1       8       1       1       8
       1       1       8       1       1       8       1       1       8       1
       1       8       1       1       8       1       1       8       1       1
       8       1       1       8       1       1       8       1       1       8
       1       1       8       1       1       8       1       1       8       1
       1       8       1       1       8       1       1       8       1       1
       8       1       1       8       1       1       8       1       1       8
       1       1       8       1       1       8       1       1       8       1
       1       8       1       1       8       1       1       8       1       1
       8       1       1       8       1       1       8       1       1       8
       1       1       8       1       1       8       1       1       8       1
       1       8       1       1       8       1       1       8       1       1
       8       1       1       8       1       1       8       1       1       8
       1       1       8       1       1       8       1       1       8       1
       1       8       1       1       8       1       1       8       1       1
       8       1       1       8       1       1       8       1       1       8
       1       1       8       1       1       8       1       1       8       1
       1       8       1       1       8       1       1       8       1       1
       8       1       1       8       1       1       8       1       1       8
       1       1       8       1       1       8       1       1       8       1
       1       8       1       1       8       1       1       8       1       1
       8       1       1       8       1       1       8       1       1       8
       1       1       8       1       1       8       1       1       8       1
       1       8       1       1       8       1       1       8       1       1
       8       1       1       8       1       1       8       1       1       8
       1       1       8       1       1       8       1       1       8       1
       1       8       1       1       8       1       1       8       1       1
       8       1       1       8       1       1       8       1       1       8
       1       1       8       1       1       8       1       1       8       1
       1       8       1       1       8       1       1       8       1       1
       8       1       1       8       1       1       8       1       1       8
       1       1       8       1       1       8       1       1       8       1
       1       8       1       1       8       1       1       8       1       1
       8       1       1       8       1       1       8       1       1       8
       1       1       8       1       1       8       1       1       8       1
       1       8       1       1       8       1       1       8       1       1
       8       1       1       8       1       1       8       1       1       8
       1       1       8       1       1       8       1       1       8       1
       1       8       1       1       8       1       1       8       1       1
       8       1       1       8       1       1       8       1       1       8
       1       1       8       1       1       8       1       1       8       1
       1       8       1       1       8       1       1       8       1       1
       8       1       1       8       1       1       8       1       1       8
       1       1       8       1       1       8       1       1       8       1
       1       8       1       1       8       1       1       8       1       1
       8       1       1       8       1       1       8       1       1       8
       1       1       8       1       1       8       1       1       8       1
       1       8       1       1       8       1       1       8       1       1
       8       1       1       8       1       1       8       1       1       8
       1       1       8       1       1       8       1       1       8       1
       1       8       1       1       8       1       1       8       1       1
       8       1       1       8       1       1       8       1       1       8
       1       1       8       1       1       8       1       1       8       1
       1       8       1       1       8       1       1       8       1       1
       8       1       1       8       1       1       8       1       1       8
       1       1       8       1       1       8       1       1       8       1
       1       8       1       1       8       1       1       8       1       1
       8       1       1       8       1       1       8       1       1       8
       1       1       8       1       1       8       1       1       8       1
       1       8       1       1       8       1       1       8       1       1
       8       1       1       8       1       1       8       1       1       8
       1       1       8       1       1       8       1       1       8       1
       1       8       1       1       8       1       1       8       1       1
       8       1       1       8       1       1       8       1       1       8
       1       1       8       1       1       8       1       1       8       1
       1       8       1       1       8       1       1       8       1       1
       8       1       1       8       1       1       8       1       1       8
       1       1       8       1       1       8       1       1       8       1
       1       8       1       1       8       1       1       8       1       1
       8       1       1       8       1       1       8       1       1       8
       1       1       8       1       1       8       1       1       8       1
       1       8       1       1       8       1       1       8       1       1
       8       1       1       8       1       1       8       1       1       8
       1       1       8       1       1       8       1       1       8       1
       1       8       1       1       8       1       1       8       1       1
       8       1       1       8       1       1       8       1       1       8
       1       1       8       1       1       8       1       1       8       1
       1       8       1       1       8       1       1       8       1       1
       8       1       1       8       1       1       8       1       1       8
       1       1       8       1       1       8       1       1       8       1
       1       8       1       1       8       1       1       8       1       1
       8       1       1       8       1       1       8       1       1       8
       1       1       8       1       1       8       1       1       8       1
       1       8       1       1       8       1       1       8       1       1
       8       1       1       8       1       1       8       1       1       8
       1       1       8       1       1       8       1       1       8       1
       1       8       1       1       8       1       1       8       1       1
       8       1       1       8       1       1       8       1       1       8
       1       1       8       1       1       8       1       1       8       1
       1       8       1       1       8       1       1       8       1       1
       8       1       1       8       1       1       8       1       1       8
       1       1       8       1       1       8       1       1       8       1
       1       8       1       1       8       1       1       8       1       1
       8       1       1       8       1       1       8       1       1       8
       1       1       8       1       1       8       1       1       8       1
       1       8       1       1       8       1       1       8       1       1
       8       1       1       8       1       1       8       1       1       8
       1       1       8       1       1       8       1       1       8       1
       1       8       1       1       8       1       1       8       1       1
       8       1       1       8       1       1       8       1       1       8
       1       1       8       1       1       8       1       1       8       1
       1       8       1       1       8       1       1       8       1       1
       8       1       1       8       1       1       8       1       1       8
       1       1       8       1       1       8       1       1       8       1
       1       8       1       1       8       1       1       8       1       1
       8       1       1       8       1       1       8       1       1       8
       1       1       8       1       1       8       1       1       8       1
       1       8       1       1       8       1       1       8       1       1
       8       1       1       8       1       1       8       1       1       8
       1       1       8       1       1       8       1       1       8       1
       1       8       1       1       8       1       1       8       1       1
       8       1       1       8       1       1       8       1       1       8
       1       1       8       1       1       8       1       1       8       1
       1       8       1       1       8       1       1       8       1       1
       8       1       1       8       1       1       8       1       1       8
       1       1       8       1       1       8       1       1       8       1
       1       8       1       1       8       1       1       8       1       1
       8       1       1       8       1       1       8       1       1       8
       1       1       8       1       1       8       1       1       8       1
       1       8       1       1       8       1       1       8       1       1
       8       1       1       8       1       1       8       1       1       8
       1       1       8       1       1       8       1       1       8       1
       1       8       1       1       8       1       1       8       1       1
       8       1       1       8       1       1       8       1       1       8
       1       1       8       1       1       8       1       1       8       1
       1       8       1       1       8       1       1       8       1       1
       8       1       1       8       1       1       8       1       1       8
       1       1       8       1       1       8       1       1       8       1
       1       8       1       1       8       1       1       8       1       1
       8       1       1       8       1       1       8       1       1       8
       1       1       8       1       1       8       1       1       8       1
       1       8       1       1       8       1       1       8       1       1
       8       1       1       8       1       1       8       1       1       8
       1       1       8       1       1       8       1       1       8       1
       1       8       1       1       8       1       1       8       1       1
       8       1       1       8       1       1       8       1       1       8
       1       1       8       1       1       8       1       1       8       1
       1       8       1       1       8       1       1       8       1       1
       8       1       1       8       1       1       8       1       1       8
       1       1       8       1       1       8       1       1       8       1
       1       8       1       1       8       1       1       8       1       1
       8       1       1       8       1       1       8       1       1       8
       1       1       8       1       1       8       1       1       8       1
       1       8       1       1       8       1       1       8       1       1
       8       1       1       8       1       1       8       1       1       8
       1       1       8       1       1       8       1       1       8       1
       1       8       1       1       8       1       1       8       1       1
       8       1       1       8       1       1       8       1       1       8
       1       1       8       1       1       8       1       1       8       1
       1       8       1       1       8       1       1       8       1       1
       8       1       1       8       1       1       8       1       1       8
       1       1       8       1       1       8       1       1       8       1
       1       8       1       1       8       1       1       8       1       1
       8       1       1       8       1       1       8       1       1       8
       1       1       8       1       1       8       1       1       8       1
       1       8       1       1       8       1       1       8       1       1
       8       1       1       8       1       1       8       1       1       8
       1       1       8       1       1       8       1       1       8       1
       1       8       1       1       8       1       1       8       1       1
       8       1       1       8       1       1       8       1       1       8
       1       1       8       1       1       8       1       1       8       1
       1       8       1       1       8       1       1       8       1       1
       8       1       1       8       1       1       8       1       1       8
       1       1       8       1       1       8       1       1       8       1
       1       8       1       1       8       1       1       8       1       1
       8       1       1       8       1       1       8       1       1       8
       1       1       8       1       1       8       1       1       8       1
       1       8       1       1       8       1       1       8       1       1
       8       1       1       8       1       1       8       1       1       8
       1       1       8       1       1       8       1       1       8       1
       1       8       1       1       8       1       1       8       1       1
       8       1       1       8       1       1       8       1       1       8
       1       1       8       1       1       8       1       1       8       1
       1       8       1       1       8       1       1       8       1       1
       8       1       1       8       1       1       8       1       1       8
       1       1       8       1       1       8       1       1       8       1
       1       8       1       1       8       1       1       8       1       1
       8       1       1       8       1       1       8       1       1       8
       1       1       8       1       1       8       1       1       8       1
       1       8       1       1       8       1       1       8       1       1
       8       1       1       8       1       1       8       1       1       8
       1       1       8       1       1       8       1       1       8       1
       1       8       1       1       8       1       1       8       1       1
       8       1       1       8       1       1       8       1       1       8
       1       1       8       1       1       8       1       1       8       1
       1       8       1       1       8       1       1       8       1       1
       8       1       1       8       1       1       8       1       1       8
       1       1       8       1       1       8       1       1       8       1
       1       8       1       1       8       1       1       8       1       1
       8       1       1       8       1       1       8       1       1       8
       1       1       8       1       1       8       1       1       8       1
       1       8       1       1       8       1       1       8       1       1
       8       1       1       8       1       1       8       1       1       8
       1       1       8       1       1       8       1       1       8       1
       1       8       1       1       8       1       1       8       1       1
       8       1       1       8       1       1       8       1       1       8
       1       1       8       1       1       8       1       1       8       1
       1       8       1       1       8       1       1       8       1       1
       8       1       1       8       1       1       8       1       1       8
       1       1       8       1       1       8       1       1       8       1
       1       8       1       1       8       1       1       8       1       1
       8       1       1       8       1       1       8       1       1       8
       1       1       8       1       1       8       1       1       8       1
       1       8       1       1       8       1       1       8       1       1
       8       1       1       8       1       1       8       1       1       8
       1       1       8       1       1       8       1       1       8       1
       1       8       1       1       8       1       1       8       1       1
       8       1       1       8       1       1       8       1       1       8
       1       1       8       1       1       8       1       1       8       1
       1       8       1       1       8       1       1       8       1       1
       8       1       1       8       1       1       8       1       1       8
       1       1       8       1       1       8       1       1       8       1
       1       8       1       1       8       1       1       8       1       1
       8       1       1       8       1       1       8       1       1       8
       1       1       8       1       1       8       1       1       8       1
       1       8       1       1       8       1       1       8       1       1
       8       1       1       8       1       1       8       1       1       8
       1       1       8       1       1       8       1       1       8       1
       1       8       1       1       8       1       1       8       1       1
       8       1       1       8       1       1       8       1       1       8
       1       1       8       1       1       8       1       1       8       1
       1       8       1       1       8       1       1       8       1       1
       8       1       1       8       1       1       8       1       1       8
       1       1       8       1       1       8       1       1       8       1
       1       8       1       1       8       1       1       8       1       1
       8       1       1       8       1       1       8       1       1       8
       1       1       8       1       1       8       1       1       8       1
       1       8       1       1       8       1       1       8       1       1
       8       1       1       8       1       1       8       1       1       8
       1       1       8       1       1       8       1       1       8       1
       1       8       1       1       8       1       1       8       1       1
       8       1       1       8       1       1       8       1       1       8
       1       1       8       1       1       8       1       1       8       1
       1       8       1       1       8       1       1       8       1       1
       8       1       1       8       1       1       8       1       1       8
       1       1       8       1       1       8       1       1       8       1
       1       8       1       1       8       1       1       8       1       1
       8       1       1       8       1       1       8       1       1       8
       1       1       8       1       1       8       1       1       8       1
       1       8       1       1       8       1       1       8       1       1
       8       1       1       8       1       1       8       1       1       8
       1       1       8       1       1       8       1       1       8       1
       1       8       1       1       8       1       1       8       1       1
       8       1       1       8       1       1       8       1       1       8
       1       1       8       1       1       8       1       1       8       1
       1       8       1       1       8       1       1       8       1       1
       8       1       1       8       1       1       8       1       1       8
       1       1       8       1       1       8       1       1       8       1
       1       8       1       1       8       1       1       8       1       1
       8       1       1       8       1       1       8       1       1       8
       1       1       8       1       1       8       1       1       8       1
       1       8       1       1       8       1       1       8       1       1
       8       1       1       8       1       1       8       1       1       8
       1       1       8       1       1       8       1       1       8       1
       1       8       1       1       8       1       1       8       1       1
       8       1       1       8       1       1       8       1       1       8
       1       1       8       1       1       8       1       1       8       1
       1       8       1       1       8       1       1       8       1       1
       8       1       1       8       1       1       8       1       1       8
       1       1       8       1       1       8       1       1       8       1
       1       8       1       1       8       1       1       8       1       1
       8       1       1       8       1       1       8       1       1       8
       1       1       8       1       1       8       1       1       8       1
       1       8       1       1       8       1       1       8       1       1
       8       1       1       8       1       1       8       1       1       8
       1       1       8       1       1       8       1       1       8       1
       1       8       1       1       8       1       1       8       1       1
       8       1       1       8       1       1       8       1       1       8
       1       1       8       1       1       8       1       1       8       1
       1       8       1       1       8       1       1       8       1       1
       8       1       1       8       1       1       8       1       1       8
       1       1       8       1       1       8       1       1       8       1
       1       8       1       1       8       1       1       8       1       1
       8       1       1       8       1       1       8       1       1       8
       1       1       8       1       1       8       1       1       8       1
       1       8       1       1       8       1       1       8       1       1
       8       1       1       8       1       1       8       1       1       8
       1       1       8       1       1       8       1       1       8       1
       1       8       1       1       8       1       1       8       1       1
       8       1       1       8       1       1       8       1       1       8
       1       1       8       1       1       8       1       1       8       1
       1       8       1       1       8       1       1       8       1       1
       8       1       1       8       1       1       8       1       1       8
       1       1       8       1       1       8       1       1       8       1
       1       8       1       1       8       1       1       8       1       1
       8       1       1       8       1       1       8       1       1       8
       1       1       8       1       1       8       1       1       8       1
       1       8       1       1       8       1       1       8       1       1
       8       1       1       8       1       1       8       1       1       8
       1       1       8       1       1       8       1       1       8       1
       1       8       1       1       8       1       1       8       1       1
       8       1       1       8       1       1       8       1       1       8
       1       1       8       1       1       8       1       1       8       1
       1       8       1       1       8       1       1       8       1       1
       8       1       1       8       1       1       8       1       1       8
       1       1       8       1       1       8       1       1       8       1
       1       8       1       1       8       1       1       8       1       1
       8       1       1       8       1       1       8       1       1       8
       1       1       8       1       1       8       1       1       8       1
       1       8       1       1       8       1       1       8       1       1
       8       1       1       8       1       1       8       1       1       8
       1       1       8       1       1       8       1       1       8       1
       1       8       1       1       8       1       1       8       1       1
       8       1       1       8       1       1       8       1       1       8
       1       1       8       1       1       8       1       1       8       1
       1       8       1       1       8       1       1       8       1       1
       8       1       1       8       1       1       8       1       1       8
       1       1       8       1       1       8       1       1       8       1
       1       8       1       1       8       1       1       8       1       1
       8       1       1       8       1       1       8       1       1       8
       1       1       8       1       1       8       1       1       8       1
       1       8       1       1       8       1       1       8       1       1
       8       1       1       8       1       1       8       1       1       8
       1       1       8       1       1       8       1       1       8       1
       1       8       1       1       8       1       1       8       1       1
       8       1       1       8       1       1       8       1       1       8
       1       1       8       1       1       8       1       1       8       1
       1       8       1       1       8       1       1       8       1       1
       8       1       1       8       1       1       8       1       1       8
       1       1       8       1       1       8       1       1       8       1
       1       8       1       1       8       1       1       8       1       1
       8       1       1       8       1       1       8       1       1       8
       1       1       8       1       1       8       1       1       8       1
       1       8       1       1       8       1       1       8       1       1
       8       1       1       8       1       1       8       1       1       8
       1       1       8       1       1       8       1       1       8       1
       1       8       1       1       8       1       1       8       1       1
       8       1       1       8       1       1       8       1       1       8
       1       1       8       1       1       8       1       1       8       1
       1       8       1       1       8       1       1       8       1       1
       8       1       1       8       1       1       8       1       1       8
       1       1       8       1       1       8       1       1       8       1
       1       8       1       1       8       1       1       8       1       1
       8       1       1       8       1       1       8       1       1       8
       1       1       8       1       1       8       1       1       8       1
       1       8       1       1       8       1       1       8       1       1
       8       1       1       8       1       1       8       1       1       8
       1       1       8       1       1       8       1       1       8       1
       1       8       1       1       8       1       1       8       1       1
       8       1       1       8       1       1       8       1       1       8
       1       1       8       1       1       8       1       1       8       1
       1       8       1       1       8       1       1       8       1       1
       8       1       1       8       1       1       8       1       1       8
       1       1       8       1       1       8       1       1       8       1
       1       8       1       1       8       1       1       8       1       1
       8       1       1       8       1       1       8       1       1       8
       1       1       8       1       1       8       1       1       8       1
       1       8       1       1       8       1       1       8       1       1
       8       1       1       8       1       1       8       1       1       8
       1       1       8       1       1       8       1       1       8       1
       1       8       1       1       8       1       1       8       1       1
       8       1       1       8       1       1       8       1       1       8
       1       1       8       1       1       8       1       1       8       1
       1       8       1       1       8       1       1       8       1       1
       8       1       1       8       1       1       8       1       1       8
       1       1       8       1       1       8       1       1       8       1
       1       8       1       1       8       1       1       8       1       1
       8       1       1       8       1       1       8       1       1       8
       1       1       8       1       1       8       1       1       8       1
       1       8       1       1       8       1       1       8       1       1
       8       1       1       8       1       1       8       1       1       8
       1       1       8       1       1       8       1       1       8       1
       1       8       1       1       8       1       1       8       1       1
       8       1       1       8       1       1       8       1       1       8
       1       1       8       1       1       8       1       1       8       1
       1       8       1       1       8       1       1       8       1       1
       8       1       1       8       1       1       8       1       1       8
       1       1       8       1       1       8       1       1       8       1
       1       8       1       1       8       1       1       8       1       1
       8       1       1       8       1       1       8       1       1       8
       1       1       8       1       1       8       1       1       8       1
       1       8       1       1       8       1       1       8       1       1
       8       1       1       8       1       1       8       1       1       8
       1       1       8       1       1       8       1       1       8       1
       1       8       1       1       8       1       1       8       1       1
       8       1       1       8       1       1       8       1       1       8
       1       1       8       1       1       8       1       1       8       1
       1       8       1       1       8       1       1       8       1       1
       8       1       1       8       1       1       8       1       1       8
       1       1       8       1       1       8       1       1       8       1
       1       8       1       1       8       1       1       8       1       1
       8       1       1       8       1       1       8       1       1       8
       1       1       8       1       1       8       1       1       8       1
       1       8       1       1       8       1       1       8       1       1
       8       1       1       8       1       1       8       1       1       8
       1       1       8       1       1       8       1       1       8       1
       1       8       1       1       8       1       1       8       1       1
       8       1       1       8       1       1       8       1       1       8
       1       1       8       1       1       8       1       1       8       1
       1       8       1       1       8       1       1       8       1       1
       8       1       1       8       1       1       8       1       1       8
       1       1       8       1       1       8       1       1       8       1
       1       8       1       1       8       1       1       8       1       1
       8       1       1       8       1       1       8       1       1       8
       1       1       8       1       1       8       1       1       8       1
       1       8       1       1       8       1       1       8       1       1
       8       1       1       8       1       1       8       1       1       8
       1       1       8       1       1       8       1       1       8       1
       1       8       1       1       8       1       1       8       1       1
       8       1       1       8       1       1       8       1       1       8
       1       1       8       1       1       8       1       1       8       1
       1       8       1       1       8       1       1       8       1       1
       8       1       1       8       1       1       8       1       1       8
       1       1       8       1       1       8       1       1       8       1
       1       8       1       1       8       1       1       8       1       1
       8       1       1       8       1       1       8       1       1       8
       1       1       8       1       1       8       1       1       8       1
       1       8       1       1       8       1       1       8       1       1
       8       1       1       8       1       1       8       1       1       8
       1       1       8       1       1       8       1       1       8       1
       1       8       1       1       8       1       1       8       1       1
       8       1       1       8       1       1       8       1       1       8
       1       1       8       1       1       8       1       1       8       1
       1       8       1       1       8       1       1       8       1       1
       8       1       1       8       1       1       8       1       1       8
       1       1       8       1       1       8       1       1       8       1
       1       8       1       1       8       1       1       8       1       1
       8       1       1       8       1       1       8       1       1       8
       1       1       8       1       1       8       1       1       8       1
       1       8       1       1       8       1       1       8       1       1
       8       1       1       8       1       1       8       1       1       8
       1       1       8       1       1       8       1       1       8       1
       1       8       1       1       8       1       1       8       1       1
       8       1       1       8       1       1       8       1       1       8
       1       1       8       1       1       8       1       1       8       1
       1       8       1       1       8       1       1       8       1       1
       8       1       1       8       1       1       8       1       1       8
       1       1       8       1       1       8       1       1       8       1
       1       8       1       1       8       1       1       8       1       1
       8       1       1       8       1       1       8       1       1       8
       1       1       8       1       1       8       1       1       8       1
       1       8       1       1       8       1       1       8       1       1
       8       1       1       8       1       1       8       1       1       8
       1       1       8       1       1       8       1       1       8       1
       1       8       1       1       8       1       1       8       1       1
       8       1       1       8       1       1       8       1       1       8
       1       1       8       1       1       8       1       1       8       1
       1       8       1       1       8       1       1       8       1       1
       8       1       1       8       1       1       8       1       1       8
       1       1       8       1       1       8       1       1       8       1
       1       8       1       1       8       1       1       8       1       1
       8       1       1       8       1       1       8       1       1       8
       1       1       8       1       1       8       1       1       8       1
       1       8       1       1       8       1       1       8       1       1
       8       1       1       8       1       1       8       1       1       8
       1       1       8       1       1       8       1       1       8       1
       1       8       1       1       8       1       1       8       1       1
       8       1       1       8       1       1       8       1       1       8
       1       1       8       1       1       8       1       1       8       1
       1       8       1       1       8       1       1       8       1       1
       8       1       1       8       1       1       8       1       1       8
       1       1       8       1       1       8       1       1       8       1
       1       8       1       1       8       1       1       8       1       1
       8       1       1       8       1       1       8       1       1       8
       1       1       8       1       1       8       1       1       8       1
       1       8       1       1       8       1       1       8       1       1
       8       1       1       8       1       1       8       1       1       8
       1       1       8       1       1       8       1       1       8       1
       1       8       1       1       8       1       1       8       1       1
       8       1       1       8       1       1       8       1       1       8
       1       1       8       1       1       8       1       1       8       1
       1       8       1       1       8       1       1       8       1       1
       8       1       1       8       1       1       8       1       1       8
       1       1       8       1       1       8       1       1       8       1
       1       8       1       1       8       1       1       8       1       1
       8       1       1       8       1       1       8       1       1       8
       1       1       8       1       1       8       1       1       8       1
       1       8       1       1       8       1       1       8       1       1
       8       1       1       8       1       1       8       1       1       8
       1       1       8       1       1       8       1       1       8       1
       1       8       1       1       8       1       1       8       1       1
       8       1       1       8       1       1       8       1       1       8
       1       1       8       1       1       8       1       1       8       1
       1       8       1       1       8       1       1       8       1       1
       8       1       1       8       1       1       8       1       1       8
       1       1       8       1       1       8       1       1       8       1
       1       8       1       1       8       1       1       8       1       1
       8       1       1       8       1       1       8       1       1       8
       1       1       8       1       1       8       1       1       8       1
       1       8       1       1       8       1       1       8       1       1
       8       1       1       8       1       1       8       1       1       8
       1       1       8       1       1       8       1       1       8       1
       1       8       1       1       8       1       1       8       1       1
       8       1       1       8       1       1       8       1       1       8
       1       1       8       1       1       8       1       1       8       1
       1       8       1       1       8       1       1       8       1       1
       8       1       1       8       1       1       8       1       1       8
       1       1       8       1       1       8       1       1       8       1
       1       8       1       1       8       1       1       8       1       1
       8       1       1       8       1       1       8       1       1       8
       1       1       8       1       1       8       1       1       8       1
       1       8       1       1       8       1       1       8       1       1
       8       1       1       8       1       1       8       1       1       8
       1       1       8       1       1       8       1       1       8       1
       1       8       1       1       8       1       1       8       1       1
       8       1       1       8       1       1       8       1       1       8
       1       1       8       1       1       8       1       1       8       1
       1       8       1       1       8       1       1       8       1       1
       8       1       1       8       1       1       8       1       1       8
       1       1       8       1       1       8       1       1       8       1
       1       8       1       1       8       1       1       8       1       1
       8       1       1       8       1       1       8       1       1       8
       1       1       8       1       1       8       1       1       8       1
       1       8       1       1       8       1       1       8       1       1
       8       1       1       8       1       1       8       1       1       8
       1       1       8       1       1       8       1       1       8       1
       1       8       1       1       8       1       1       8       1       1
       8       1       1       8       1       1       8       1       1       8
       1       1       8       1       1       8       1       1       8       1
       1       8       1       1       8       1       1       8       1       1
       8       1       1       8       1       1       8       1       1       8
       1       1       8       1       1       8       1       1       8       1
       1       8       1       1       8       1       1       8       1       1
       8       1       1       8       1       1       8       1       1       8
       1       1       8       1       1       8       1       1       8       1
       1       8       1       1       8       1       1       8       1       1
       8       1       1       8       1       1       8       1       1       8
       1       1       8       1       1       8       1       1       8       1
       1       8       1       1       8       1       1       8       1       1
       8       1       1       8       1       1       8       1       1       8
       1       1       8       1       1       8       1       1       8       1
       1       8       1       1       8       1       1       8       1       1
       8       1       1       8       1       1       8       1       1       8
       1       1       8       1       1       8       1       1       8       1
       1       8       1       1       8       1       1       8       1       1
       8       1       1       8       1       1       8       1       1       8
       1       1       8       1       1       8       1       1       8       1
       1       8       1       1       8       1       1       8       1       1
       8       1       1       8       1       1       8       1       1       8
       1       1       8       1       1       8       1       1       8       1
       1       8       1       1       8       1       1       8       1       1
       8       1       1       8       1       1       8       1       1       8
       1       1       8       1       1       8       1       1       8       1
       1       8       1       1       8       1       1       8       1       1
       8       1       1       8       1       1       8       1       1       8
       1       1       8       1       1       8       1       1       8       1
       1       8       1       1       8       1       1       8       1       1
       8       1       1       8       1       1       8       1       1       8
       1       1       8       1       1       8       1       1       8       1
       1       8       1       1       8       1       1       8       1       1
       8       1       1       8       1       1       8       1       1       8
       1       1       8       1       1       8       1       1       8       1
       1       8       1       1       8       1       1       8       1       1
       8       1       1       8       1       1       8       1       1       8
       1       1       8       1       1       8       1       1       8       1
       1       8       1       1       8       1       1       8       1       1
       8       1       1       8       1       1       8       1       1       8
       1       1       8       1       1       8       1       1       8       1
       1       8       1       1       8       1       1       8       1       1
       8       1       1       8       1       1       8       1       1       8
       1       1       8       1       1       8       1       1       8       1
       1       8       1       1       8       1       1       8       1       1
       8       1       1       8       1       1       8       1       1       8
       1       1       8       1       1       8       1       1       8       1
       1       8       1       1       8       1       1       8       1       1
       8       1       1       8       1       1       8       1       1       8
       1       1       8       1       1       8       1       1       8       1
       1       8       1       1       8       1       1       8       1       1
       8       1       1       8       1       1       8       1       1       8
       1       1       8       1       1       8       1       1       8       1
       1       8       1       1       8       1       1       8       1       1
       8       1       1       8       1       1       8       1       1       8
       1       1       8       1       1       8       1       1       8       1
       1       8       1       1       8       1       1       8       1       1
       8       1       1       8       1       1       8       1       1       8
       1       1       8       1       1       8       1       1       8       1
       1       8       1       1       8       1       1       8       1       1
       8       1       1       8       1       1       8       1       1       8
       1       1       8       1       1       8       1       1       8       1
       1       8       1       1       8       1       1       8       1       1
       8       1       1       8       1       1       8       1       1       8
       1       1       8       1       1       8       1       1       8       1
       1       8       1       1       8       1       1       8       1       1
       8       1       1       8       1       1       8       1       1       8
       1       1       8       1       1       8       1       1       8       1
       1       8       1       1       8       1       1       8       1       1
       8       1       1       8       1       1       8       1       1       8
       1       1       8       1       1       8       1       1       8       1
       1       8       1       1       8       1       1       8       1       1
       8       1       1       8       1       1       8       1       1       8
       1       1       8       1       1       8       1       1       8       1
       1       8       1       1       8       1       1       8       1       1
       8       1       1       8       1       1       8       1       1       8
       1       1       8       1       1       8       1       1       8       1
       1       8       1       1       8       1       1       8       1       1
       8       1       1       8       1       1       8       1       1       8
       1       1       8       1       1       8       1       1       8       1
       1       8       1       1       8       1       1       8       1       1
       8       1       1       8       1       1       8       1       1       8
       1       1       8       1       1       8       1       1       8       1
       1       8       1       1       8       1       1       8       1       1
       8       1       1       8       1       1       8       1       1       8
       1       1       8       1       1       8       1       1       8       1
       1       8       1       1       8       1       1       8       1       1
       8       1       1       8       1       1       8       1       1       8
       1       1       8       1       1       8       1       1       8       1
       1       8       1       1       8       1       1       8       1       1
       8       1       1       8       1       1       8       1       1       8
       1       1       8       1       1       8       1       1       8       1
       1       8       1       1       8       1       1       8       1       1
       8       1       1       8       1       1       8       1       1       8
       1       1       8       1       1       8       1       1       8       1
       1       8       1       1       8       1       1       8       1       1
       8       1       1       8       1       1       8       1       1       8
       1       1       8       1       1       8       1       1       8       1
       1       8       1       1       8       1       1       8       1       1
       8       1       1       8       1       1       8       1       1       8
       1       1       8       1       1       8       1       1       8       1
       1       8       1       1       8       1       1       8       1       1
       8       1       1       8       1       1       8       1       1       8
       1       1       8       1       1       8       1       1       8       1
       1       8       1       1       8       1       1       8       1       1
       8       1       1       8       1       1       8       1       1       8
       1       1       8       1       1       8       1       1       8       1
       1       8       1       1       8       1       1       8       1       1
       8       1       1       8       1       1       8       1       1       8
       1       1       8       1       1       8       1       1       8       1
       1       8       1       1       8       1       1       8       1       1
       8       1       1       8       1       1       8       1       1       8
       1       1       8       1       1       8       1       1       8       1
       1       8       1       1       8       1       1       8       1       1
       8       1       1       8       1       1       8       1       1       8
       1       1       8       1       1       8       1       1       8       1
       1       8       1       1       8       1       1       8       1       1
       8       1       1       8       1       1       8       1       1       8
       1       1       8       1       1       8       1       1       8       1
       1       8       1       1       8       1       1       8       1       1
       8       1       1       8       1       1       8       1       1       8
       1       1       8       1       1       8       1       1       8       1
       1       8       1       1       8       1       1       8       1       1
       8       1       1       8       1       1       8       1       1       8
       1       1       8       1       1       8       1       1       8       1
       1       8       1       1       8       1       1       8       1       1
       8       1       1       8       1       1       8       1       1       8
       1       1       8       1       1       8       1       1       8       1
       1       8       1       1       8       1       1       8       1       1
       8       1       1       8       1       1       8       1       1       8
       1       1       8       1       1       8       1       1       8       1
       1       8       1       1       8       1       1       8       1       1
       8       1       1       8       1       1       8       1       1       8
       1       1       8       1       1       8       1       1       8       1
       1       8       1       1       8       1       1       8       1       1
       8       1       1       8       1       1       8       1       1       8
       1       1       8       1       1       8       1       1       8       1
       1       8       1       1       8       1       1       8       1       1
       8       1       1       8       1       1       8       1       1       8
       1       1       8       1       1       8       1       1       8       1
       1       8       1       1       8       1       1       8       1       1
       8       1       1       8       1       1       8       1       1       8
       1       1       8       1       1       8       1       1       8       1
       1       8       1       1       8       1       1       8       1       1
       8       1       1       8       1       1       8       1       1       8
       1       1       8       1       1       8       1       1       8       1
       1       8       1       1       8       1       1       8       1       1
       8       1       1       8       1       1       8       1       1       8
       1       1       8       1       1       8       1       1       8       1
       1       8       1       1       8       1       1       8       1       1
       8       1       1       8       1       1       8       1       1       8
       1       1       8       1       1       8       1       1       8       1
       1       8       1       1       8       1       1       8       1       1
       8       1       1       8       1       1       8       1       1       8
       1       1       8       1       1       8       1       1       8       1
       1       8       1       1       8       1       1       8       1       1
       8       1       1       8       1       1       8       1       1       8
       1       1       8       1       1       8       1       1       8       1
       1       8       1       1       8       1       1       8       1       1
       8       1       1       8       1       1       8       1       1       8
       1       1       8       1       1       8       1       1       8       1
       1       8       1       1       8       1       1       8       1       1
       8       1       1       8       1       1       8       1       1       8
       1       1       8       1       1       8       1       1       8       1
       1       8       1       1       8       1       1       8       1       1
       8       1       1       8       1       1       8       1       1       8
       1       1       8       1       1       8       1       1       8       1
       1       8       1       1       8       1       1       8       1       1
       8       1       1       8       1       1       8       1       1       8
       1       1       8       1       1       8       1       1       8       1
       1       8       1       1       8       1       1       8       1       1
       8       1       1       8       1       1       8       1       1       8
       1       1       8       1       1       8       1       1       8       1
       1       8       1       1       8       1       1       8       1       1
       8       1       1       8       1       1       8       1       1       8
       1       1       8       1       1       8       1       1       8       1
       1       8       1       1       8       1       1       8       1       1
       8       1       1       8       1       1       8       1       1       8
       1       1       8       1       1       8       1       1       8       1
       1       8       1       1       8       1       1       8       1       1
       8       1       1       8       1       1       8       1       1       8
       1       1       8       1       1       8       1       1       8       1
       1       8       1       1       8       1       1       8       1       1
       8       1       1       8       1       1       8       1       1       8
       1       1       8       1       1       8       1       1       8       1
       1       8       1       1       8       1       1       8       1       1
       8       1       1       8       1       1       8       1       1       8
       1       1       8       1       1       8       1       1       8       1
       1       8       1       1       8       1       1       8       1       1
       8       1       1       8       1       1       8       1       1       8
       1       1       8       1       1       8       1       1       8       1
       1       8       1       1       8       1       1       8       1       1
       8       1       1       8       1       1       8       1       1       8
       1       1       8       1       1       8       1       1       8       1
       1       8       1       1       8       1       1       8       1       1
       8       1       1       8       1       1       8       1       1       8
       1       1       8       1       1       8       1       1       8       1
       1       8       1       1       8       1       1       8       1       1
       8       1       1       8       1       1       8       1       1       8
       1       1       8       1       1       8       1       1       8       1
       1       8       1       1       8       1       1       8       1       1
       8       1       1       8       1       1       8       1       1       8
       1       1       8       1       1       8       1       1       8       1
       1       8       1       1       8       1       1       8       1       1
       8       1       1       8       1       1       8       1       1       8
       1       1       8       1       1       8       1       1       8       1
       1       8       1       1       8       1       1       8       1       1
       8       1       1       8       1       1       8       1       1       8
       1       1       8       1       1       8       1       1       8       1
       1       8       1       1       8       1       1       8       1       1
       8       1       1       8       1       1       8       1       1       8
       1       1       8       1       1       8       1       1       8       1
       1       8       1       1       8       1       1       8       1       1
       8       1       1       8       1       1       8       1       1       8
       1       1       8       1       1       8       1       1       8       1
       1       8       1       1       8       1       1       8       1       1
       8       1       1       8       1       1       8       1       1       8
       1       1       8       1       1       8       1       1       8       1
       1       8       1       1       8       1       1       8       1       1
       8       1       1       8       1       1       8       1       1       8
       1       1       8       1       1       8       1       1       8       1
       1       8       1       1       8       1       1       8       1       1
       8       1       1       8       1       1       8       1       1       8
       1       1       8       1       1       8       1       1       8       1
       1       8       1       1       8       1       1       8       1       1
       8       1       1       8       1       1       8       1       1       8
       1       1       8       1       1       8       1       1       8       1
       1       8       1       1       8       1       1       8       1       1
       8       1       1       8       1       1       8       1       1       8
       1       1       8       1       1       8       1       1       8       1
       1       8       1       1       8       1       1       8       1       1
       8       1       1       8       1       1       8       1       1       8
       1       1       8       1       1       8       1       1       8       1
       1       8       1       1       8       1       1       8       1       1
       8       1       1       8       1       1       8       1       1       8
       1       1       8       1       1       8       1       1       8       1
       1       8       1       1       8       1       1       8       1       1
       8       1       1       8       1       1       8       1       1       8
       1       1       8       1       1       8       1       1       8       1
       1       8       1       1       8       1       1       8       1       1
       8       1       1       8       1       1       8       1       1       8
       1       1       8       1       1       8       1       1       8       1
       1       8       1       1       8       1       1       8       1       1
       8       1       1       8       1       1       8       1       1       8
       1       1       8       1       1       8       1       1       8       1
       1       8       1       1       8       1       1       8       1       1
       8       1       1       8       1       1       8       1       1       8
       1       1       8       1       1       8       1       1       8       1
       1       8       1       1       8       1       1       8       1       1
       8       1       1       8       1       1       8       1       1       8
       1       1       8       1       1       8       1       1       8       1
       1       8       1       1       8       1       1       8       1       1
       8       1       1       8       1       1       8       1       1       8
       1       1       8       1       1       8       1       1       8       1
       1       8       1       1       8       1       1       8       1       1
       8       1       1       8       1       1       8       1       1       8
       1       1       8       1       1       8       1       1       8       1
       1       8       1       1       8       1       1       8       1       1
       8       1       1       8       1       1       8       1       1       8
       1       1       8       1       1       8       1       1       8       1
       1       8       1       1       8       1       1       8       1       1
       8       1       1       8       1       1       8       1       1       8
       1       1       8       1       1       8       1       1       8       1
       1       8       1       1       8       1       1       8       1       1
       8       1       1       8       1       1       8       1       1       8
       1       1       8       1       1       8       1       1       8       1
       1       8       1       1       8       1       1       8       1       1
       8       1       1       8       1       1       8       1       1       8
       1       1       8       1       1       8       1       1       8       1
       1       8       1       1       8       1       1       8       1       1
       8       1       1       8       1       1       8       1       1       8
       1       1       8       1       1       8       1       1       8       1
       1       8       1       1       8       1       1       8       1       1
       8       1       1       8       1       1       8       1       1       8
       1       1       8       1       1       8       1       1       8       1
       1       8       1       1       8       1       1       8       1       1
       8       1       1       8       1       1       8       1       1       8
       1       1       8       1       1       8       1       1       8       1
       1       8       1       1       8       1       1       8       1       1
       8       1       1       8       1       1       8       1       1       8
       1       1       8       1       1       8       1       1       8       1
       1       8       1       1       8       1       1       8       1       1
       8       1       1       8       1       1       8       1       1       8
       1       1       8       1       1       8       1       1       8       1
       1       8       1       1       8       1       1       8       1       1
       8       1       1       8       1       1       8       1       1       8
       1       1       8       1       1       8       1       1       8       1
       1       8       1       1       8       1       1       8       1       1
       8       1       1       8       1       1       8       1       1       8
       1       1       8       1       1       8       1       1       8       1
       1       8       1       1       8       1       1       8       1       1
       8       1       1       8       1       1       8       1       1       8
       1       1       8       1       1       8       1       1       8       1
       1       8       1       1       8       1       1       8       1       1
       8       1       1       8       1       1       8       1       1       8
       1       1       8       1       1       8       1       1       8       1
       1       8       1       1       8       1       1       8       1       1
       8       1       1       8       1       1       8       1       1       8
       1       1       8       1       1       8       1       1       8       1
       1       8       1       1       8       1       1       8       1       1
       8       1       1       8       1       1       8       1       1       8
       1       1       8       1       1       8       1       1       8       1
       1       8       1       1       8       1       1       8       1       1
       8       1       1       8       1       1       8       1       1       8
       1       1       8       1       1       8       1       1       8       1
       1       8       1       1       8       1       1       8       1       1
       8       1       1       8       1       1       8       1       1       8
       1       1       8       1       1       8       1       1       8       1
       1       8       1       1       8       1       1       8       1       1
       8       1       1       8       1       1       8       1       1       8
       1       1       8       1       1       8       1       1       8       1
       1       8       1       1       8       1       1       8       1       1
       8       1       1       8       1       1       8       1       1       8
       1       1       8       1       1       8       1       1       8       1
       1       8       1       1       8       1       1       8       1       1
       8       1       1       8       1       1       8       1       1       8
       1       1       8       1       1       8       1       1       8       1
       1       8       1       1       8       1       1       8       1       1
       8       1       1       8       1       1       8       1       1       8
       1       1       8       1       1       8       1       1       8       1
       1       8       1       1       8       1       1       8       1       1
       8       1       1       8       1       1       8       1       1       8
       1       1       8       1       1       8       1       1       8       1
       1       8       1       1       8       1       1       8       1       1
       8       1       1       8       1       1       8       1       1       8
       1       1       8       1       1       8       1       1       8       1
       1       8       1       1       8       1       1       8       1       1
       8       1       1       8       1       1       8       1       1       8
       1       1       8       1       1       8       1       1       8       1
       1       8       1       1       8       1       1       8       1       1
       8       1       1       8       1       1       8       1       1       8
       1       1       8       1       1       8       1       1       8       1
       1       8       1       1       8       1       1       8       1       1
       8       1       1       8       1       1       8       1       1       8
       1       1       8       1       1       8       1       1       8       1
       1       8       1       1       8       1       1       8       1       1
       8       1       1       8       1       1       8       1       1       8
       1       1       8       1       1       8       1       1       8       1
       1       8       1       1       8       1       1       8       1       1
       8       1       1       8       1       1       8       1       1       8
       1       1       8       1       1       8       1       1       8       1
       1       8       1       1       8       1       1       8       1       1
       8       1       1       8       1       1       8       1       1       8
       1       1       8       1       1       8       1       1       8       1
       1       8       1       1       8       1       1       8       1       1
       8       1       1       8       1       1       8       1       1       8
       1       1       8       1       1       8       1       1       8       1
       1       8       1       1       8       1       1       8       1       1
       8       1       1       8       1       1       8       1       1       8
       1       1       8       1       1       8       1       1       8       1
       1       8       1       1       8       1       1       8       1       1
       8       1       1       8       1       1       8       1       1       8
       1       1       8       1       1       8       1       1       8       1
       1       8       1       1       8       1       1       8       1       1
       8       1       1       8       1       1       8       1       1       8
       1       1       8       1       1       8       1       1       8       1
       1       8       1       1       8       1       1       8       1       1
       8       1       1       8       1       1       8       1       1       8
       1       1       8       1       1       8       1       1       8       1
       1       8       1       1       8       1       1       8       1       1
       8       1       1       8       1       1       8       1       1       8
       1       1       8       1       1       8       1       1       8       1
       1       8       1       1       8       1       1       8       1       1
       8       1       1       8       1       1       8       1       1       8
       1       1       8       1       1       8       1       1       8       1
       1       8       1       1       8       1       1       8       1       1
       8       1       1       8       1       1       8       1       1       8
       1       1       8       1       1       8       1       1       8       1
       1       8       1       1       8       1       1       8       1       1
       8       1       1       8       1       1       8       1       1       8
       1       1       8       1       1       8       1       1       8       1
       1       8       1       1       8       1       1       8       1       1
       8       1       1       8       1       1       8       1       1       8
       1       1       8       1       1       8       1       1       8       1
       1       8       1       1       8       1       1       8       1       1
       8       1       1       8       1       1       8       1       1       8
       1       1       8       1       1       8       1       1       8       1
       1       8       1       1       8       1       1       8       1       1
       8       1       1       8       1       1       8       1       1       8
       1       1       8       1       1       8       1       1       8       1
       1       8       1       1       8       1       1       8       1       1
       8       1       1       8       1       1       8       1       1       8
       1       1       8       1       1       8       1       1       8       1
       1       8       1       1       8       1       1       8       1       1
       8       1       1       8       1       1       8       1       1       8
       1       1       8       1       1       8       1       1       8       1
       1       8       1       1       8       1       1       8       1       1
       8       1       1       8       1       1       8       1       1       8
       1       1       8       1       1       8       1       1       8       1
       1       8       1       1       8       1       1       8       1       1
       8       1       1       8       1       1       8       1       1       8
       1       1       8       1       1       8       1       1       8       1
       1       8       1       1       8       1       1       8       1       1
       8       1       1       8       1       1       8       1       1       8
       1       1       8       1       1       8       1       1       8       1
       1       8       1       1       8       1       1       8       1       1
       8       1       1       8       1       1       8       1       1       8
       1       1       8       1       1       8       1       1       8       1
       1       8       1       1       8       1       1       8       1       1
       8       1       1       8       1       1       8       1       1       8
       1       1       8       1       1       8       1       1       8       1
       1       8       1       1       8       1       1       8       1       1
       8       1       1       8       1       1       8       1       1       8
       1       1       8       1       1       8       1       1       8       1
       1       8       1       1       8       1       1       8       1       1
       8       1       1       8       1       1       8       1       1       8
       1       1       8       1       1       8       1       1       8       1
       1       8       1       1       8       1       1       8       1       1
       8       1       1       8       1       1       8       1       1       8
       1       1       8       1       1       8       1       1       8       1
       1       8       1       1       8       1       1       8       1       1
       8       1       1       8       1       1       8       1       1       8
       1       1       8       1       1       8       1       1       8       1
       1       8       1       1       8       1       1       8       1       1
       8       1       1       8       1       1       8       1       1       8
       1       1       8       1       1       8       1       1       8       1
       1       8       1       1       8       1       1       8       1       1
       8       1       1       8       1       1       8       1       1       8
       1       1       8       1       1       8       1       1       8       1
       1       8       1       1       8       1       1       8       1       1
       8       1       1       8       1       1       8       1       1       8
       1       1       8       1       1       8       1       1       8       1
       1       8       1       1       8       1       1       8       1       1
       8       1       1       8       1       1       8       1       1       8
       1       1       8       1       1       8       1       1       8       1
       1       8       1       1       8       1       1       8       1       1
       8       1       1       8       1       1       8       1       1       8
       1       1       8       1       1       8       1       1       8       1
       1       8       1       1       8       1       1       8       1       1
       8       1       1       8       1       1       8       1       1       8
       1       1       8       1       1       8       1       1       8       1
       1       8       1       1       8       1       1       8       1       1
       8       1       1       8       1       1       8       1       1       8
       1       1       8       1       1       8       1       1       8       1
       1       8       1       1       8       1       1       8       1       1
       8       1       1       8       1       1       8       1       1       8
       1       1       8       1       1       8       1       1       8       1
       1       8       1       1       8       1       1       8       1       1
       8       1       1       8       1       1       8       1       1       8
       1       1       8       1       1       8       1       1       8       1
       1       8       1       1       8       1       1       8       1       1
       8       1       1       8       1       1       8       1       1       8
       1       1       8       1       1       8       1       1       8       1
       1       8       1       1       8       1       1       8       1       1
       8       1       1       8       1       1       8       1       1       8
       1       1       8       1       1       8       1       1       8       1
       1       8       1       1       8       1       1       8       1       1
       8       1       1       8       1       1       8       1       1       8
       1       1       8       1       1       8       1       1       8       1
       1       8       1       1       8       1       1       8       1       1
       8       1       1       8       1       1       8       1       1       8
       1       1       8       1       1       8       1       1       8       1
       1       8       1       1       8       1       1       8       1       1
       8       1       1       8       1       1       8       1       1       8
       1       1       8       1       1       8       1       1       8       1
       1       8       1       1       8       1       1       8       1       1
       8       1       1       8       1       1       8       1       1       8
       1       1       8       1       1       8       1       1       8       1
       1       8       1       1       8       1       1       8       1       1
       8       1       1       8       1       1       8       1       1       8
       1       1       8       1       1       8       1       1       8       1
       1       8       1       1       8       1       1       8       1       1
       8       1       1       8       1       1       8       1       1       8
       1       1       8       1       1       8       1       1       8       1
       1       8       1       1       8       1       1       8       1       1
       8       1       1       8       1       1       8       1       1       8
       1       1       8       1       1       8       1       1       8       1
       1       8       1       1       8       1       1       8       1       1
       8       1       1       8       1       1       8       1       1       8
       1       1       8       1       1       8       1       1       8       1
       1       8       1       1       8       1       1       8       1       1
       8       1       1       8       1       1       8       1       1       8
       1       1       8       1       1       8       1       1       8       1
       1       8       1       1       8       1       1       8       1       1
       8       1       1       8       1       1       8       1       1       8
       1       1       8       1       1       8       1       1       8       1
       1       8       1       1       8       1       1       8       1       1
       8       1       1       8       1       1       8       1       1       8
       1       1       8       1       1       8       1       1       8       1
       1       8       1       1       8       1       1       8       1       1
       8       1       1       8       1       1       8       1       1       8
       1       1       8       1       1       8       1       1       8       1
       1       8       1       1       8       1       1       8       1       1
       8       1       1       8       1       1       8       1       1       8
       1       1       8       1       1       8       1       1       8       1
       1       8       1       1       8       1       1       8       1       1
       8       1       1       8       1       1       8       1       1       8
       1       1       8       1       1       8       1       1       8       1
       1       8       1       1       8       1       1       8       1       1
       8       1       1       8       1       1       8       1       1       8
       1       1       8       1       1       8       1       1       8       1
       1       8       1       1       8       1       1       8       1       1
       8       1       1       8       1       1       8       1       1       8
       1       1       8       1       1       8       1       1       8       1
       1       8       1       1       8       1       1       8       1       1
       8       1       1       8       1       1       8       1       1       8
       1       1       8       1       1       8       1       1       8       1
       1       8       1       1       8       1       1       8       1       1
       8       1       1       8       1       1       8       1       1       8
       1       1       8       1       1       8       1       1       8       1
       1       8       1       1       8       1       1       8       1       1
       8       1       1       8       1       1       8       1       1       8
       1       1       8       1       1       8       1       1       8       1
       1       8       1       1       8       1       1       8       1       1
       8       1       1       8       1       1       8       1       1       8
       1       1       8       1       1       8       1       1       8       1
       1       8       1       1       8       1       1       8       1       1
       8       1       1       8       1       1       8       1       1       8
       1       1       8       1       1       8       1       1       8       1
       1       8       1       1       8       1       1       8       1       1
       8       1       1       8       1       1       8       1       1       8
       1       1       8       1       1       8       1       1       8       1
       1       8       1       1       8       1       1       8       1       1
       8       1       1       8       1       1       8       1       1       8
       1       1       8       1       1       8       1       1       8       1
       1       8       1       1       8       1       1       8       1       1
       8       1       1       8       1       1       8       1       1       8
       1       1       8       1       1       8       1       1       8       1
       1       8       1       1       8       1       1       8       1       1
       8       1       1       8       1       1       8       1       1       8
       1       1       8       1       1       8       1       1       8       1
       1       8       1       1       8       1       1       8       1       1
       8       1       1       8       1       1       8       1       1       8
       1       1       8       1       1       8       1       1       8       1
       1       8       1       1       8       1       1       8       1       1
       8       1       1       8       1       1       8       1       1       8
       1       1       8       1       1       8       1       1       8       1
       1       8       1       1       8       1       1       8       1       1
       8       1       1       8       1       1       8       1       1       8
       1       1       8       1       1       8       1       1       8       1
       1       8       1       1       8       1       1       8       1       1
       8       1       1       8       1       1       8       1       1       8
       1       1       8       1       1       8       1       1       8       1
       1       8       1       1       8       1       1       8       1       1
       8       1       1       8       1       1       8       1       1       8
       1       1       8       1       1       8       1       1       8       1
       1       8       1       1       8       1       1       8       1       1
       8       1       1       8       1       1       8       1       1       8
       1       1       8       1       1       8       1       1       8       1
       1       8       1       1       8       1       1       8       1       1
       8       1       1       8       1       1       8       1       1       8
       1       1       8       1       1       8       1       1       8       1
       1       8       1       1       8       1       1       8       1       1
       8       1       1       8       1       1       8       1       1       8
       1       1       8       1       1       8       1       1       8       1
       1       8       1       1       8       1       1       8       1       1
       8       1       1       8       1       1       8       1       1       8
       1       1       8       1       1       8       1       1       8       1
       1       8       1       1       8       1       1       8       1       1
       8       1       1       8       1       1       8       1       1       8
       1       1       8       1       1       8       1       1       8       1
       1       8       1       1       8       1       1       8       1       1
       8       1       1       8       1       1       8       1       1       8
       1       1       8       1       1       8       1       1       8       1
       1       8       1       1       8       1       1       8       1       1
       8       1       1       8       1       1       8       1       1       8
       1       1       8       1       1       8       1       1       8       1
       1       8       1       1       8       1       1       8       1       1
       8       1       1       8       1       1       8       1       1       8
       1       1       8       1       1       8       1       1       8       1
       1       8       1       1       8       1       1       8       1       1
       8       1       1       8       1       1       8       1       1       8
       1       1       8       1       1       8       1       1       8       1
       1       8       1       1       8       1       1       8       1       1
       8       1       1       8       1       1       8       1       1       8
       1       1       8       1       1       8       1       1       8       1
       1       8       1       1       8       1       1       8       1       1
       8       1       1       8       1       1       8       1       1       8
       1       1       8       1       1       8       1       1       8       1
       1       8       1       1       8       1       1       8       1       1
       8       1       1       8       1       1       8       1       1       8
       1       1       8       1       1       8       1       1       8       1
       1       8       1       1       8       1       1       8       1       1
       8       1       1       8       1       1       8       1       1       8
       1       1       8       1       1       8       1       1       8       1
       1       8       1       1       8       1       1       8       1       1
       8       1       1       8       1       1       8       1       1       8
       1       1       8       1       1       8       1       1       8       1
       1       8       1       1       8       1       1       8       1       1
       8       1       1       8       1       1       8       1       1       8
       1       1       8       1       1       8       1       1       8       1
       1       8       1       1       8       1       1       8       1       1
       8       1       1       8       1       1       8       1       1       8
       1       1       8       1       1       8       1       1       8       1
       1       8       1       1       8       1       1       8       1       1
       8       1       1       8       1       1       8       1       1       8
       1       1       8       1       1       8       1       1       8       1
       1       8       1       1       8       1       1       8       1       1
       8       1       1       8       1       1       8       1       1       8
       1       1       8       1       1       8       1       1       8       1
       1       8       1       1       8       1       1       8       1       1
       8       1       1       8       1       1       8       1       1       8
       1       1       8       1       1       8       1       1       8       1
       1       8       1       1       8       1       1       8       1       1
       8       1       1       8       1       1       8       1       1       8
       1       1       8       1       1       8       1       1       8       1
       1       8       1       1       8       1       1       8       1       1
       8       1       1       8       1       1       8       1       1       8
       1       1       8       1       1       8       1       1       8       1
       1       8       1       1       8       1       1       8       1       1
       8       1       1       8       1       1       8       1       1       8
       1       1       8       1       1       8       1       1       8       1
       1       8       1       1       8       1       1       8       1       1
       8       1       1       8       1       1       8       1       1       8
       1       1       8       1       1       8       1       1       8       1
       1       8       1       1       8       1       1       8       1       1
       8       1       1       8       1       1       8       1       1       8
       1       1       8       1       1       8       1       1       8       1
       1       8       1       1       8       1       1       8       1       1
       8       1       1       8       1       1       8       1       1       8
       1       1       8       1       1       8       1       1       8       1
       1       8       1       1       8       1       1       8       1       1
       8       1       1       8       1       1       8       1       1       8
       1       1       8       1       1       8       1       1       8       1
       1       8       1       1       8       1       1       8       1       1
       8       1       1       8       1       1       8       1       1       8
       1       1       8       1       1       8       1       1       8       1
       1       8       1       1       8       1       1       8       1       1
       8       1       1       8       1       1       8       1       1       8
       1       1       8       1       1       8       1       1       8       1
       1       8       1       1       8       1       1       8       1       1
       8       1       1       8       1       1       8       1       1       8
       1       1       8       1       1       8       1       1       8       1
       1       8       1       1       8       1       1       8       1       1
       8       1       1       8       1       1       8       1       1       8
       1       1       8       1       1       8       1       1       8       1
       1       8       1       1       8       1       1       8       1       1
       8       1       1       8       1       1       8       1       1       8
       1       1       8       1       1       8       1       1       8       1
       1       8       1       1       8       1       1       8       1       1
       8       1       1       8       1       1       8       1       1       8
       1       1       8       1       1       8       1       1       8       1
       1       8       1       1       8       1       1       8       1       1
       8       1       1       8       1       1       8       1       1       8
       1       1       8       1       1       8       1       1       8       1
       1       8       1       1       8       1       1       8       1       1
       8       1       1       8       1       1       8       1       1       8
       1       1       8       1       1       8       1       1       8       1
       1       8       1       1       8       1       1       8       1       1
       8       1       1       8       1       1       8       1       1       8
       1       1       8       1       1       8       1       1       8       1
       1       8       1       1       8       1       1       8       1       1
       8       1       1       8       1       1       8       1       1       8
       1       1       8       1       1       8       1       1       8       1
       1       8       1       1       8       1       1       8       1       1
       8       1       1       8       1       1       8       1       1       8
       1       1       8       1       1       8       1       1       8       1
       1       8       1       1       8       1       1       8       1       1
       8       1       1       8       1       1       8       1       1       8
       1       1       8       1       1       8       1       1       8       1
       1       8       1       1       8       1       1       8       1       1
       8       1       1       8       1       1       8       1       1       8
       1       1       8       1       1       8       1       1       8       1
       1       8       1       1       8       1       1       8       1       1
       8       1       1       8       1       1       8       1       1       8
       1       1       8       1       1       8       1       1       8       1
       1       8       1       1       8       1       1       8       1       1
       8       1       1       8       1       1       8       1       1       8
       1       1       8       1       1       8       1       1       8       1
       1       8       1       1       8       1       1       8       1       1
       8       1       1       8       1       1       8       1       1       8
       1       1       8       1       1       8       1       1       8       1
       1       8       1       1       8       1       1       8       1       1
       8       1       1       8       1       1       8       1       1       8
       1       1       8       1       1       8       1       1       8       1
       1       8       1       1       8       1       1       8       1       1
       8       1       1       8       1       1       8       1       1       8
       1       1       8       1       1       8       1       1       8       1
       1       8       1       1       8       1       1       8       1       1
       8       1       1       8       1       1       8       1       1       8
       1       1       8       1       1       8       1       1       8       1
       1       8       1       1       8       1       1       8       1       1
       8       1       1       8       1       1       8       1       1       8
       1       1       8       1       1       8       1       1       8       1
       1       8       1       1       8       1       1       8       1       1
       8       1       1       8       1       1       8       1       1       8
       1       1       8       1       1       8       1       1       8       1
       1       8       1       1       8       1       1       8       1       1
       8       1       1       8       1       1       8       1       1       8
       1       1       8       1       1       8       1       1       8       1
       1       8       1       1       8       1       1       8       1       1
       8       1       1       8       1       1       8       1       1       8
       1       1       8       1       1       8       1       1       8       1
       1       8       1       1       8       1       1       8       1       1
       8       1       1       8       1       1       8       1       1       8
       1       1       8       1       1       8       1       1       8       1
       1       8       1       1       8       1       1       8       1       1
       8       1       1       8       1       1       8       1       1       8
       1       1       8       1       1       8       1       1       8       1
       1       8       1       1       8       1       1       8       1       1
       8       1       1       8       1       1       8       1       1       8
       1       1       8       1       1       8       1       1       8       1
       1       8       1       1       8       1       1       8       1       1
       8       1       1       8       1       1       8       1       1       8
       1       1       8       1       1       8       1       1       8       1
       1       8       1       1       8       1       1       8       1       1
       8       1       1       8       1       1       8       1       1       8
       1       1       8       1       1       8       1       1       8       1
       1       8       1       1       8       1       1       8       1       1
       8       1       1       8       1       1       8       1       1       8
       1       1       8       1       1       8       1       1       8       1
       1       8       1       1       8       1       1       8       1       1
       8       1       1       8       1       1       8       1       1       8
       1       1       8       1       1       8       1       1       8       1
       1       8       1       1       8       1       1       8       1       1
       8       1       1       8       1       1       8       1       1       8
       1       1       8       1       1       8       1       1       8       1
       1       8       1       1       8       1       1       8       1       1
       8       1       1       8       1       1       8       1       1       8
       1       1       8       1       1       8       1       1       8       1
       1       8       1       1       8       1       1       8       1       1
       8       1       1       8       1       1       8       1       1       8
       1       1       8       1       1       8       1       1       8       1
       1       8       1       1       8       1       1       8       1       1
       8       1       1       8       1       1       8       1       1       8
       1       1       8       1       1       8       1       1       8       1
       1       8       1       1       8       1       1       8       1       1
       8       1       1       8       1       1       8       1       1       8
       1       1       8       1       1       8       1       1       8       1
       1       8       1       1       8       1       1       8       1       1
       8       1       1       8       1       1       8       1       1       8
       1       1       8       1       1       8       1       1       8       1
       1       8       1       1       8       1       1       8       1       1
       8       1       1       8       1       1       8       1       1       8
       1       1       8       1       1       8       1       1       8       1
       1       8       1       1       8       1       1       8       1       1
       8       1       1       8       1       1       8       1       1       8
       1       1       8       1       1       8       1       1       8       1
       1       8       1       1       8       1       1       8       1       1
       8       1       1       8       1       1       8       1       1       8
       1       1       8       1       1       8       1       1       8       1
       1       8       1       1       8       1       1       8       1       1
       8       1       1       8       1       1       8       1       1       8
       1       1       8       1       1       8       1       1       8       1
       1       8       1       1       8       1       1       8       1       1
       8       1       1       8       1       1       8       1       1       8
       1       1       8       1       1       8       1       1       8       1
       1       8       1       1       8       1       1       8       1       1
       8       1       1       8       1       1       8       1       1       8
       1       1       8       1       1       8       1       1       8       1
       1       8       1       1       8       1       1       8       1       1
       8       1       1       8       1       1       8       1       1       8
       1       1       8       1       1       8       1       1       8       1
       1       8       1       1       8       1       1       8       1       1
       8       1       1       8       1       1       8       1       1       8
       1       1       8       1       1       8       1       1       8       1
       1       8       1       1       8       1       1       8       1       1
       8       1       1       8       1       1       8       1       1       8
       1       1       8       1       1       8       1       1       8       1
       1       8       1       1       8       1       1       8       1       1
       8       1       1       8       1       1       8       1       1       8
       1       1       8       1       1       8       1       1       8       1
       1       8       1       1       8       1       1       8       1       1
       8       1       1       8       1       1       8       1       1       8
       1       1       8       1       1       8       1       1       8       1
       1       8       1       1       8       1       1       8       1       1
       8       1       1       8       1       1       8       1       1       8
       1       1       8       1       1       8       1       1       8       1
       1       8       1       1       8       1       1       8       1       1
       8       1       1       8       1       1       8       1       1       8
       1       1       8       1       1       8       1       1       8       1
       1       8       1       1       8       1       1       8       1       1
       8       1       1       8       1       1       8       1       1       8
       1       1       8       1       1       8       1       1       8       1
       1       8       1       1       8       1       1       8       1       1
       8       1       1       8       1       1       8       1       1       8
       1       1       8       1       1       8       1       1       8       1
       1       8       1       1       8       1       1       8       1       1
       8       1       1       8       1       1       8       1       1       8
       1       1       8       1       1       8       1       1       8       1
       1       8       1       1       8       1       1       8       1       1
       8       1       1       8       1       1       8       1       1       8
       1       1       8       1       1       8       1       1       8       1
       1       8       1       1       8       1       1       8       1       1
       8       1       1       8       1       1       8       1       1       8
       1       1       8       1       1       8       1       1       8       1
       1       8       1       1       8       1       1       8       1       1
       8       1       1       8       1       1       8       1       1       8
       1       1       8       1       1       8       1       1       8       1
       1       8       1       1       8       1       1       8       1       1
       8       1       1       8       1       1       8       1       1       8
       1       1       8       1       1       8       1       1       8       1
       1       8       1       1       8       1       1       8       1       1
       8       1       1       8       1       1       8       1       1       8
       1       1       8       1       1       8       1       1       8       1
       1       8       1       1       8       1       1       8       1       1
       8       1       1       8       1       1       8       1       1       8
       1       1       8       1       1       8       1       1       8       1
       1       8       1       1       8       1       1       8       1       1
       8       1       1       8       1       1       8       1       1       8
       1       1       8       1       1       8       1       1       8       1
       1       8       1       1       8       1       1       8       1       1
       8       1       1       8       1       1       8       1       1       8
       1       1       8       1       1       8       1       1       8       1
       1       8       1       1       8       1       1       8       1       1
       8       1       1       8       1       1       8       1       1       8
       1       1       8       1       1       8       1       1       8       1
       1       8       1       1       8       1       1       8       1       1
       8       1       1       8       1       1       8       1       1       8
       1       1       8       1       1       8       1       1       8       1
       1       8       1       1       8       1       1       8       1       1
       8       1       1       8       1       1       8       1       1       8
       1       1       8       1       1       8       1       1       8       1
       1       8       1       1       8       1       1       8       1       1
       8       1       1       8       1       1       8       1       1       8
       1       1       8       1       1       8       1       1       8       1
       1       8       1       1       8       1       1       8       1       1
       8       1       1       8       1       1       8       1       1       8
       1       1       8       1       1       8       1       1       8       1
       1       8       1       1       8       1       1       8       1       1
       8       1       1       8       1       1       8       1       1       8
       1       1       8       1       1       8       1       1       8       1
       1       8       1       1       8       1       1       8       1       1
       8       1       1       8       1       1       8       1       1       8
       1       1       8       1       1       8       1       1       8       1
       1       8       1       1       8       1       1       8       1       1
       8       1       1       8       1       1       8       1       1       8
       1       1       8       1       1       8       1       1       8       1
       1       8       1       1       8       1       1       8       1       1
       8       1       1       8       1       1       8       1       1       8
       1       1       8       1       1       8       1       1       8       1
       1       8       1       1       8       1       1       8       1       1
       8       1       1       8       1       1       8       1       1       8
       1       1       8       1       1       8       1       1       8       1
       1       8       1       1       8       1       1       8       1       1
       8       1       1       8       1       1       8       1       1       8
       1       1       8       1       1       8       1       1       8       1
       1       8       1       1       8       1       1       8       1       1
       8       1       1       8       1       1       8       1       1       8
       1       1       8       1       1       8       1       1       8       1
       1       8       1       1       8       1       1       8       1       1
       8       1       1       8       1       1       8       1       1       8
       1       1       8       1       1       8       1       1       8       1
       1       8       1       1       8       1       1       8       1       1
       8       1       1       8       1       1       8       1       1       8
       1       1       8       1       1       8       1       1       8       1
       1       8       1       1       8       1       1       8       1       1
       8       1       1       8       1       1       8       1       1       8
       1       1       8       1       1       8       1       1       8       1
       1       8       1       1       8       1       1       8       1       1
       8       1       1       8       1       1       8       1       1       8
       1       1       8       1       1       8       1       1       8       1
       1       8       1       1       8       1       1       8       1       1
       8       1       1       8       1       1       8       1       1       8
       1       1       8       1       1       8       1       1       8       1
       1       8       1       1       8       1       1       8       1       1
       8       1       1       8       1       1       8       1       1       8
       1       1       8       1       1       8       1       1       8       1
       1       8       1       1       8       1       1       8       1       1
       8       1       1       8       1       1       8       1       1       8
       1       1       8       1       1       8       1       1       8       1
       1       8       1       1       8       1       1       8       1       1
       8       1       1       8       1       1       8       1       1       8
       1       1       8       1       1       8       1       1       8       1
       1       8       1       1       8       1       1       8       1       1
       8       1       1       8       1       1       8       1       1       8
       1       1       8       1       1       8       1       1       8       1
       1       8       1       1       8       1       1       8       1       1
       8       1       1       8       1       1       8       1       1       8
       1       1       8       1       1       8       1       1       8       1
       1       8       1       1       8       1       1       8       1       1
       8       1       1       8       1       1       8       1       1       8
       1       1       8       1       1       8       1       1       8       1
       1       8       1       1       8       1       1       8       1       1
       8       1       1       8       1       1       8       1       1       8
       1       1       8       1       1       8       1       1       8       1
       1       8       1       1       8       1       1       8       1       1
       8       1       1       8       1       1       8       1       1       8
       1       1       8       1       1       8       1       1       8       1
       1       8       1       1       8       1       1       8       1       1
       8       1       1       8       1       1       8       1       1       8
       1       1       8       1       1       8       1       1       8       1
       1       8       1       1       8       1       1       8       1       1
       8       1       1       8       1       1       8       1       1       8
       1       1       8       1       1       8       1       1       8       1
       1       8       1       1       8       1       1       8       1       1
       8       1       1       8       1       1       8       1       1       8
       1       1       8       1       1       8       1       1       8       1
       1       8       1       1       8       1       1       8       1       1
       8       1       1       8       1       1       8       1       1       8
       1       1       8       1       1       8       1       1       8       1
       1       8       1       1       8       1       1       8       1       1
       8       1       1       8       1       1       8       1       1       8
       1       1       8       1       1       8       1       1       8       1
       1       8       1       1       8       1       1       8       1       1
       8       1       1       8       1       1       8       1       1       8
       1       1       8       1       1       8       1       1       8       1
       1       8       1       1       8       1       1       8       1       1
       8       1       1       8       1       1       8       1       1       8
       1       1       8       1       1       8       1       1       8       1
       1       8       1       1       8       1       1       8       1       1
       8       1       1       8       1       1       8       1       1       8
       1       1       8       1       1       8       1       1       8       1
       1       8       1       1       8       1       1       8       1       1
       8       1       1       8       1       1       8       1       1       8
       1       1       8       1       1       8       1       1       8       1
       1       8       1       1       8       1       1       8       1       1
       8       1       1       8       1       1       8       1       1       8
       1       1       8       1       1       8       1       1       8       1
       1       8       1       1       8       1       1       8       1       1
       8       1       1       8       1       1       8       1       1       8
       1       1       8       1       1       8       1       1       8       1
       1       8       1       1       8       1       1       8       1       1
       8       1       1       8       1       1       8       1       1       8
       1       1       8       1       1       8       1       1       8       1
       1       8       1       1       8       1       1       8       1       1
       8       1       1       8       1       1       8       1       1       8
       1       1       8       1       1       8       1       1       8       1
       1       8       1       1       8       1       1       8       1       1
       8       1       1       8       1       1       8       1       1       8
       1       1       8       1       1       8       1       1       8       1
       1       8       1       1       8       1       1       8       1       1
       8       1       1       8       1       1       8       1       1       8
       1       1       8       1       1       8       1       1       8       1
       1       8       1       1       8       1       1       8       1       1
       8       1       1       8       1       1       8       1       1       8
       1       1       8       1       1       8       1       1       8       1
       1       8       1       1       8       1       1       8       1       1
       8       1       1       8       1       1       8       1       1       8
       1       1       8       1       1       8       1       1       8       1
       1       8       1       1       8       1       1       8       1       1
       8       1       1       8       1       1       8       1       1       8
       1       1       8       1       1       8       1       1       8       1
       1       8       1       1       8       1       1       8       1       1
       8       1       1       8       1       1       8       1       1       8
       1       1       8       1       1       8       1       1       8       1
       1       8       1       1       8       1       1       8       1       1
       8       1       1       8       1       1       8       1       1       8
       1       1       8       1       1       8       1       1       8       1
       1       8       1       1       8       1       1       8       1       1
       8       1       1       8       1       1       8       1       1       8
       1       1       8       1       1       8       1       1       8       1
       1       8       1       1       8       1       1       8       1       1
       8       1       1       8       1       1       8       1       1       8
       1       1       8       1       1       8       1       1       8       1
       1       8       1       1       8       1       1       8       1       1
       8       1       1       8       1       1       8       1       1       8
       1       1       8       1       1       8       1       1       8       1
       1       8       1       1       8       1       1       8       1       1
       8       1       1       8       1       1       8       1       1       8
       1       1       8       1       1       8       1       1       8       1
       1       8       1       1       8       1       1       8       1       1
       8       1       1       8       1       1       8       1       1       8
       1       1       8       1       1       8       1       1       8       1
       1       8       1       1       8       1       1       8       1       1
       8       1       1       8       1       1       8       1       1       8
       1       1       8       1       1       8       1       1       8       1
       1       8       1       1       8       1       1       8       1       1
       8       1       1       8       1       1       8       1       1       8
       1       1       8       1       1       8       1       1       8       1
       1       8       1       1       8       1       1       8       1       1
       8       1       1       8       1       1       8       1       1       8
       1       1       8       1       1       8       1       1       8       1
       1       8       1       1       8       1       1       8       1       1
       8       1       1       8       1       1       8       1       1       8
       1       1       8       1       1       8       1       1       8       1
       1       8       1       1       8       1       1       8       1       1
       8       1       1       8       1       1       8       1       1       8
       1       1       8       1       1       8       1       1       8       1
       1       8       1       1       8       1       1       8       1       1
       8       1       1       8       1       1       8       1       1       8
       1       1       8       1       1       8       1       1       8       1
       1       8       1       1       8       1       1       8       1       1
       8       1       1       8       1       1       8       1       1       8
       1       1       8       1       1       8       1       1       8       1
       1       8       1       1       8       1       1       8       1       1
       8       1       1       8       1       1       8       1       1       8
       1       1       8       1       1       8       1       1       8       1
       1       8       1       1       8       1       1       8       1       1
       8       1       1       8       1       1       8       1       1       8
       1       1       8       1       1       8       1       1       8       1
       1       8       1       1       8       1       1       8       1       1
       8       1       1       8       1       1       8       1       1       8
       1       1       8       1       1       8       1       1       8       1
       1       8       1       1       8       1       1       8       1       1
       8       1       1       8       1       1       8       1       1       8
       1       1       8       1       1       8       1       1       8       1
       1       8       1       1       8       1       1       8       1       1
       8       1       1       8       1       1       8       1       1       8
       1       1       8       1       1       8       1       1       8       1
       1       8       1       1       8       1       1       8       1       1
       8       1       1       8       1       1       8       1       1       8
       1       1       8       1       1       8       1       1       8       1
       1       8       1       1       8       1       1       8       1       1
       8       1       1       8       1       1       8       1       1       8
       1       1       8       1       1       8       1       1       8       1
       1       8       1       1       8       1       1       8       1       1
       8       1       1       8       1       1       8       1       1       8
       1       1       8       1       1       8       1       1       8       1
       1       8       1       1       8       1       1       8       1       1
       8       1       1       8       1       1       8       1       1       8
       1       1       8       1       1       8       1       1       8       1
       1       8       1       1       8       1       1       8       1       1
       8       1       1       8       1       1       8       1       1       8
       1       1       8       1       1       8       1       1       8       1
       1       8       1       1       8       1       1       8       1       1
       8       1       1       8       1       1       8       1       1       8
       1       1       8       1       1       8       1       1       8       1
       1       8       1       1       8       1       1       8       1       1
       8       1       1       8       1       1       8       1       1       8
       1       1       8       1       1       8       1       1       8       1
       1       8       1       1       8       1       1       8       1       1
       8       1       1       8       1       1       8       1       1       8
       1       1       8       1       1       8       1       1       8       1
       1       8       1       1       8       1       1       8       1       1
       8       1       1       8       1       1       8       1       1       8
       1       1       8       1       1       8       1       1       8       1
       1       8       1       1       8       1       1       8       1       1
       8       1       1       8       1       1       8       1       1       8
       1       1       8       1       1       8       1       1       8       1
       1       8       1       1       8       1       1       8       1       1
       8       1       1       8       1       1       8       1       1       8
       1       1       8       1       1       8       1       1       8       1
       1       8       1       1       8       1       1       8       1       1
       8       1       1       8       1       1       8       1       1       8
       1       1       8       1       1       8       1       1       8       1
       1       8       1       1       8       1       1       8       1       1
       8       1       1       8       1       1       8       1       1       8
       1       1       8       1       1       8       1       1       8       1
       1       8       1       1       8       1       1       8       1       1
       8       1       1       8       1       1       8       1       1       8
       1       1       8       1       1       8       1       1       8       1
       1       8       1       1       8       1       1       8       1       1
       8       1       1       8       1       1       8       1       1       8
       1       1       8       1       1       8       1       1       8       1
       1       8       1       1       8       1       1       8       1       1
       8       1       1       8       1       1       8       1       1       8
       1       1       8       1       1       8       1       1       8       1
       1       8       1       1       8       1       1       8       1       1
       8       1       1       8       1       1       8       1       1       8
       1       1       8       1       1       8       1       1       8       1
       1       8       1       1       8       1       1       8       1       1
       8       1       1       8       1       1       8       1       1       8
       1       1       8       1       1       8       1       1       8       1
       1       8       1       1       8       1       1       8       1       1
       8       1       1       8       1       1       8       1       1       8
       1       1       8       1       1       8       1       1       8       1
       1       8       1       1       8       1       1       8       1       1
       8       1       1       8       1       1       8       1       1       8
       1       1       8       1       1       8       1       1       8       1
       1       8       1       1       8       1       1       8       1       1
       8       1       1       8       1       1       8       1       1       8
       1       1       8       1       1       8       1       1       8       1
       1       8       1       1       8       1       1       8       1       1
       8       1       1       8       1       1       8       1       1       8
       1       1       8       1       1       8       1       1       8       1
       1       8       1       1       8       1       1       8       1       1
       8       1       1       8       1       1       8       1       1       8
       1       1       8       1       1       8       1       1       8       1
       1       8       1       1       8       1       1       8       1       1
       8       1       1       8       1       1       8       1       1       8
       1       1       8       1       1       8       1       1       8       1
       1       8       1       1       8       1       1       8       1       1
       8       1       1       8       1       1       8       1       1       8
       1       1       8       1       1       8       1       1       8       1
       1       8       1       1       8       1       1       8       1       1
       8       1       1       8       1       1       8       1       1       8
       1       1       8       1       1       8       1       1       8       1
       1       8       1       1       8       1       1       8       1       1
       8       1       1       8       1       1       8       1       1       8
       1       1       8       1       1       8       1       1       8       1
       1       8       1       1       8       1       1       8       1       1
       8       1       1       8       1       1       8       1       1       8
       1       1       8       1       1       8       1       1       8       1
       1       8       1       1       8       1       1       8       1       1
       8       1       1       8       1       1       8       1       1       8
       1       1       8       1       1       8       1       1       8       1
       1       8       1       1       8       1       1       8       1       1
       8       1       1       8       1       1       8       1       1       8
       1       1       8       1       1       8       1       1       8       1
       1       8       1       1       8       1       1       8       1       1
       8       1       1       8       1       1       8       1       1       8
       1       1       8       1       1       8       1       1       8       1
       1       8       1       1       8       1       1       8       1       1
       8       1       1       8       1       1       8       1       1       8
       1       1       8       1       1       8       1       1       8       1
       1       8       1       1       8       1       1       8       1       1
       8       1       1       8       1       1       8       1       1       8
       1       1       8       1       1       8       1       1       8       1
       1       8       1       1       8       1       1       8       1       1
       8       1       1       8       1       1       8       1       1       8
       1       1       8       1       1       8       1       1       8       1
       1       8       1       1       8       1       1       8       1       1
       8       1       1       8       1       1       8       1       1       8
       1       1       8       1       1       8       1       1       8       1
       1       8       1       1       8       1       1       8       1       1
       8       1       1       8       1       1       8       1       1       8
       1       1       8       1       1       8       1       1       8       1
       1       8       1       1       8       1       1       8       1       1
       8       1       1       8       1       1       8       1       1       8
       1       1       8       1       1       8       1       1       8       1
       1       8       1       1       8       1       1       8       1       1
       8       1       1       8       1       1       8       1       1       8
       1       1       8       1       1       8       1       1       8       1
       1       8       1       1       8       1       1       8       1       1
       8       1       1       8       1       1       8       1       1       8
       1       1       8       1       1       8       1       1       8       1
       1       8       1       1       8       1       1       8       1       1
       8       1       1       8       1       1       8       1       1       8
       1       1       8       1       1       8       1       1       8       1
       1       8       1       1       8       1       1       8       1       1
       8       1       1       8       1       1       8       1       1       8
       1       1       8       1       1       8       1       1       8       1
       1       8       1       1       8       1       1       8       1       1
       8       1       1       8       1       1       8       1       1       8
       1       1       8       1       1       8       1       1       8       1
       1       8       1       1       8       1       1       8       1       1
       8       1       1       8       1       1       8       1       1       8
       1       1       8       1       1       8       1       1       8       1
       1       8       1       1       8       1       1       8       1       1
       8       1       1       8       1       1       8       1       1       8
       1       1       8       1       1       8       1       1       8       1
       1       8       1       1       8       1       1       8       1       1
       8       1       1       8       1       1       8       1       1       8
       1       1       8       1       1       8       1       1       8       1
       1       8       1       1       8       1       1       8       1       1
       8       1       1       8       1       1       8       1       1       8
       1       1       8       1       1       8       1       1       8       1
       1       8       1       1       8       1       1       8       1       1
       8       1       1       8       1       1       8       1       1       8
       1       1       8       1       1       8       1       1       8       1
       1       8       1       1       8       1       1       8       1       1
       8       1       1       8       1       1       8       1       1       8
       1       1       8       1       1       8       1       1       8       1
       1       8       1       1       8       1       1       8       1       1
       8       1       1       8       1       1       8       1       1       8
       1       1       8       1       1       8       1       1       8       1
       1       8       1       1       8       1       1       8       1       1
       8       1       1       8       1       1       8       1       1       8
       1       1       8       1       1       8       1       1       8       1
       1       8       1       1       8       1       1       8       1       1
       8       1       1       8       1       1       8       1       1       8
       1       1       8       1       1       8       1       1       8       1
       1       8       1       1       8       1       1       8       1       1
       8       1       1       8       1       1       8       1       1       8
       1       1       8       1       1       8       1       1       8       1
       1       8       1       1       8       1       1       8       1       1
       8       1       1       8       1       1       8       1       1       8
       1       1       8       1       1       8       1       1       8       1
       1       8       1       1       8       1       1       8       1       1
       8       1       1       8       1       1       8       1       1       8
       1       1       8       1       1       8       1       1       8       1
       1       8       1       1       8       1       1       8       1       1
       8       1       1       8       1       1       8       1       1       8
       1       1       8       1       1       8       1       1       8       1
       1       8       1       1       8       1       1       8       1       1
       8       1       1       8       1       1       8       1       1       8
       1       1       8       1       1       8       1       1       8       1
       1       8       1       1       8       1       1       8       1       1
       8       1       1       8       1       1       8       1       1       8
       1       1       8       1       1       8       1       1       8       1
       1       8       1       1       8       1       1       8       1       1
       8       1       1       8       1       1       8       1       1       8
       1       1       8       1       1       8       1       1       8       1
       1       8       1       1       8       1       1       8       1       1
       8       1       1       8       1       1       8       1       1       8
       1       1       8       1       1       8       1       1       8       1
       1       8       1       1       8       1       1       8       1       1
       8       1       1       8       1       1       8       1       1       8
       1       1       8       1       1       8       1       1       8       1
       1       8       1       1       8       1       1       8       1       1
       8       1       1       8       1       1       8       1       1       8
       1       1       8       1       1       8       1       1       8       1
       1       8       1       1       8       1       1       8       1       1
       8       1       1       8       1       1       8       1       1       8
       1       1       8       1       1       8       1       1       8       1
       1       8       1       1       8       1       1       8       1       1
       8       1       1       8       1       1       8       1       1       8
       1       1       8       1       1       8       1       1       8       1
       1       8       1       1       8       1       1       8       1       1
       8       1       1       8       1       1       8       1       1       8
       1       1       8       1       1       8       1       1       8       1
       1       8       1       1       8       1       1       8       1       1
       8       1       1       8       1       1       8       1       1       8
       1       1       8       1       1       8       1       1       8       1
       1       8       1       1       8       1       1       8       1       1
       8       1       1       8       1       1       8       1       1       8
       1       1       8       1       1       8       1       1       8       1
       1       8       1       1       8       1       1       8       1       1
       8       1       1       8       1       1       8       1       1       8
       1       1       8       1       1       8       1       1       8       1
       1       8       1       1       8       1       1       8       1       1
       8       1       1       8       1       1       8       1       1       8
       1       1       8       1       1       8       1       1       8       1
       1       8       1       1       8       1       1       8       1       1
       8       1       1       8       1       1       8       1       1       8
       1       1       8       1       1       8       1       1       8       1
       1       8       1       1       8       1       1       8       1       1
       8       1       1       8       1       1       8       1       1       8
       1       1       8       1       1       8       1       1       8       1
       1       8       1       1       8       1       1       8       1       1
       8       1       1       8       1       1       8       1       1       8
       1       1       8       1       1       8       1       1       8       1
       1       8       1       1       8       1       1       8       1       1
       8       1       1       8       1       1       8       1       1       8
       1       1       8       1       1       8       1       1       8       1
       1       8       1       1       8       1       1       8       1       1
       8       1       1       8       1       1       8       1       1       8
       1       1       8       1       1       8       1       1       8       1
       1       8       1       1       8       1       1       8       1       1
       8       1       1       8       1       1       8       1       1       8
       1       1       8       1       1       8       1       1       8       1
       1       8       1       1       8       1       1       8       1       1
       8       1       1       8       1       1       8       1       1       8
       1       1       8       1       1       8       1       1       8       1
       1       8       1       1       8       1       1       8       1       1
       8       1       1       8       1       1       8       1       1       8
       1       1       8       1       1       8       1       1       8       1
       1       8       1       1       8       1       1       8       1       1
       8       1       1       8       1       1       8       1       1       8
       1       1       8       1       1       8       1       1       8       1
       1       8       1       1       8       1       1       8       1       1
       8       1       1       8       1       1       8       1       1       8
       1       1       8       1       1       8       1       1       8       1
       1       8       1       1       8       1       1       8       1       1
       8       1       1       8       1       1       8       1       1       8
       1       1       8       1       1       8       1       1       8       1
       1       8       1       1       8       1       1       8       1       1
       8       1       1       8       1       1       8       1       1       8
       1       1       8       1       1       8       1       1       8       1
       1       8       1       1       8       1       1       8       1       1
       8       1       1       8       1       1       8       1       1       8
       1       1       8       1       1       8       1       1       8       1
       1       8       1       1       8       1       1       8       1       1
       8       1       1       8       1       1       8       1       1       8
       1       1       8       1       1       8       1       1       8       1
       1       8       1       1       8       1       1       8       1       1
       8       1       1       8       1       1       8       1       1       8
       1       1       8       1       1       8       1       1       8       1
       1       8       1       1       8       1       1       8       1       1
       8       1       1       8       1       1       8       1       1       8
       1       1       8       1       1       8       1       1       8       1
       1       8       1       1       8       1       1       8       1       1
       8       1       1       8       1       1       8       1       1       8
       1       1       8       1       1       8       1       1       8       1
       1       8       1       1       8       1       1       8       1       1
       8       1       1       8       1       1       8       1       1       8
       1       1       8       1       1       8       1       1       8       1
       1       8       1       1       8       1       1       8       1       1
       8       1       1       8       1       1       8       1       1       8
       1       1       8       1       1       8       1       1       8       1
       1       8       1       1       8       1       1       8       1       1
       8       1       1       8       1       1       8       1       1       8
       1       1       8       1       1       8       1       1       8       1
       1       8       1       1       8       1       1       8       1       1
       8       1       1       8       1       1       8       1       1       8
       1       1       8       1       1       8       1       1       8       1
       1       8       1       1       8       1       1       8       1       1
       8       1       1       8       1       1       8       1       1       8
       1       1       8       1       1       8       1       1       8       1
       1       8       1       1       8       1       1       8       1       1
       8       1       1       8       1       1       8       1       1       8
       1       1       8       1       1       8       1       1       8       1
       1       8       1       1       8       1       1       8       1       1
       8       1       1       8       1       1       8       1       1       8
       1       1       8       1       1       8       1       1       8       1
       1       8       1       1       8       1       1       8       1       1
       8       1       1       8       1       1       8       1       1       8
       1       1       8       1       1       8       1       1       8       1
       1       8       1       1       8       1       1       8       1       1
       8       1       1       8       1       1       8       1       1       8
       1       1       8       1       1       8       1       1       8       1
       1       8       1       1       8       1       1       8       1       1
       8       1       1       8       1       1       8       1       1       8
       1       1       8       1       1       8       1       1       8       1
       1       8       1       1       8       1       1       8       1       1
       8       1       1       8       1       1       8       1       1       8
       1       1       8       1       1       8       1       1       8       1
       1       8       1       1       8       1       1       8       1       1
       8       1       1       8       1       1       8       1       1       8
       1       1       8       1       1       8       1       1       8       1
       1       8       1       1       8       1       1       8       1       1
       8       1       1       8       1       1       8       1       1       8
       1       1       8       1       1       8       1       1       8       1
       1       8       1       1       8       1       1       8       1       1
       8       1       1       8       1       1       8       1       1       8
       1       1       8       1       1       8       1       1       8       1
       1       8       1       1       8       1       1       8       1       1
       8       1       1       8       1       1       8       1       1       8
       1       1       8       1       1       8       1       1       8       1
       1       8       1       1       8       1       1       8       1       1
       8       1       1       8       1       1       8       1       1       8
       1       1       8       1       1       8       1       1       8       1
       1       8       1       1       8       1       1       8       1       1
       8       1       1       8       1       1       8       1       1       8
       1       1       8       1       1       8       1       1       8       1
       1       8       1       1       8       1       1       8       1       1
       8       1       1       8       1       1       8       1       1       8
       1       1       8       1       1       8       1       1       8       1
       1       8       1       1       8       1       1       8       1       1
       8       1       1       8       1       1       8       1       1       8
       1       1       8       1       1       8       1       1       8       1
       1       8       1       1       8       1       1       8       1       1
       8       1       1       8       1       1       8       1       1       8
       1       1       8       1       1       8       1       1       8       1
       1       8       1       1       8       1       1       8       1       1
       8       1       1       8       1       1       8       1       1       8
       1       1       8       1       1       8       1       1       8       1
       1       8       1       1       8       1       1       8       1       1
       8       1       1       8       1       1       8       1       1       8
       1       1       8       1       1       8       1       1       8       1
       1       8       1       1       8       1       1       8       1       1
       8       1       1       8       1       1       8       1       1       8
       1       1       8       1       1       8       1       1       8       1
       1       8       1       1       8       1       1       8       1       1
       8       1       1       8       1       1       8       1       1       8
       1       1       8       1       1       8       1       1       8       1
       1       8       1       1       8       1       1       8       1       1
       8       1       1       8       1       1       8       1       1       8
       1       1       8       1       1       8       1       1       8       1
       1       8       1       1       8       1       1       8       1       1
       8       1       1       8       1       1       8       1       1       8
       1       1       8       1       1       8       1       1       8       1
       1       8       1       1       8       1       1       8       1       1
       8       1       1       8       1       1       8       1       1       8
       1       1       8       1       1       8       1       1       8       1
       1       8       1       1       8       1       1       8       1       1
       8       1       1       8       1       1       8       1       1       8
       1       1       8       1       1       8       1       1       8       1
       1       8       1       1       8       1       1       8       1       1
       8       1       1       8       1       1       8       1       1       8
       1       1       8       1       1       8       1       1       8       1
       1       8       1       1       8       1       1       8       1       1
       8       1       1       8       1       1       8       1       1       8
       1       1       8       1       1       8       1       1       8       1
       1       8       1       1       8       1       1       8       1       1
       8       1       1       8       1       1       8       1       1       8
       1       1       8       1       1       8       1       1       8       1
       1       8       1       1       8       1       1       8       1       1
       8       1       1       8       1       1       8       1       1       8
       1       1       8       1       1       8       1       1       8       1
       1       8       1       1       8       1       1       8       1       1
       8       1       1       8       1       1       8       1       1       8
       1       1       8       1       1       8       1       1       8       1
       1       8       1       1       8       1       1       8       1       1
       8       1       1       8       1       1       8       1       1       8
       1       1       8       1       1       8       1       1       8       1
       1       8       1       1       8       1       1       8       1       1
       8       1       1       8       1       1       8       1       1       8
       1       1       8       1       1       8       1       1       8       1
       1       8       1       1       8       1       1       8       1       1
       8       1       1       8       1       1       8       1       1       8
       1       1       8       1       1       8       1       1       8       1
       1       8       1       1       8       1       1       8       1       1
       8       1       1       8       1       1       8       1       1       8
       1       1       8       1       1       8       1       1       8       1
       1       8       1       1       8       1       1       8       1       1
       8       1       1       8       1       1       8       1       1       8
       1       1       8       1       1       8       1       1       8       1
       1       8       1       1       8       1       1       8       1       1
       8       1       1       8       1       1       8       1       1       8
       1       1       8       1       1       8       1       1       8       1
       1       8       1       1       8       1       1       8       1       1
       8       1       1       8       1       1       8       1       1       8
       1       1       8       1       1       8       1       1       8       1
       1       8       1       1       8       1       1       8       1       1
       8       1       1       8       1       1       8       1       1       8
       1       1       8       1       1       8       1       1       8       1
       1       8       1       1       8       1       1       8       1       1
       8       1       1       8       1       1       8       1       1       8
       1       1       8       1       1       8       1       1       8       1
       1       8       1       1       8       1       1       8       1       1
       8       1       1       8       1       1       8       1       1       8
       1       1       8       1       1       8       1       1       8       1
       1       8       1       1       8       1       1       8       1       1
       8       1       1       8       1       1       8       1       1       8
       1       1       8       1       1       8       1       1       8       1
       1       8       1       1       8       1       1       8       1       1
       8       1       1       8       1       1       8       1       1       8
       1       1       8       1       1       8       1       1       8       1
       1       8       1       1       8       1       1       8       1       1
       8       1       1       8       1       1       8       1       1       8
       1       1       8       1       1       8       1       1       8       1
       1       8       1       1       8       1       1       8       1       1
       8       1       1       8       1       1       8       1       1       8
       1       1       8       1       1       8       1       1       8       1
       1       8       1       1       8       1       1       8       1       1
       8       1       1       8       1       1       8       1       1       8
       1       1       8       1       1       8       1       1       8       1
       1       8       1       1       8       1       1       8       1       1
       8       1       1       8       1       1       8       1       1       8
       1       1       8       1       1       8       1       1       8       1
       1       8       1       1       8       1       1       8       1       1
       8       1       1       8       1       1       8       1       1       8
       1       1       8       1       1       8       1       1       8       1
       1       8       1       1       8       1       1       8       1       1
       8       1       1       8       1       1       8       1       1       8
       1       1       8       1       1       8       1       1       8       1
       1       8       1       1       8       1       1       8       1       1
       8       1       1       8       1       1       8       1       1       8
       1       1       8       1       1       8       1       1       8       1
       1       8       1       1       8       1       1       8       1       1
       8       1       1       8       1       1       8       1       1       8
       1       1       8       1       1       8       1       1       8       1
       1       8       1       1       8       1       1       8       1       1
       8       1       1       8       1       1       8       1       1       8
       1       1       8       1       1       8       1       1       8       1
       1       8       1       1       8       1       1       8       1       1
       8       1       1       8       1       1       8       1       1       8
       1       1       8       1       1       8       1       1       8       1
       1       8       1       1       8       1       1       8       1       1
       8       1       1       8       1       1       8       1       1       8
       1       1       8       1       1       8       1       1       8       1
       1       8       1       1       8       1       1       8       1       1
       8       1       1       8       1       1       8       1       1       8
       1       1       8       1       1       8       1       1       8       1
       1       8       1       1       8       1       1       8       1       1
       8       1       1       8       1       1       8       1       1       8
       1       1       8       1       1       8       1       1       8       1
       1       8       1       1       8       1       1       8       1       1
       8       1       1       8       1       1       8       1       1       8
       1       1       8       1       1       8       1       1       8       1
       1       8       1       1       8       1       1       8       1       1
       8       1       1       8       1       1       8       1       1       8
       1       1       8       1       1       8       1       1       8       1
       1       8       1       1       8       1       1       8       1       1
       8       1       1       8       1       1       8       1       1       8
       1       1       8       1       1       8       1       1       8       1
       1       8       1       1       8       1       1       8       1       1
       8       1       1       8       1       1       8       1       1       8
       1       1       8       1       1       8       1       1       8       1
       1       8       1       1       8       1       1       8       1       1
       8       1       1       8       1       1       8       1       1       8
       1       1       8       1       1       8       1       1       8       1
       1       8       1       1       8       1       1       8       1       1
       8       1       1       8       1       1       8       1       1       8
       1       1       8       1       1       8       1       1       8       1
       1       8       1       1       8       1       1       8       1       1
       8       1       1       8       1       1       8       1       1       8
       1       1       8       1       1       8       1       1       8       1
       1       8       1       1       8       1       1       8       1       1
       8       1       1       8       1       1       8       1       1       8
       1       1       8       1       1       8       1       1       8       1
       1       8       1       1       8       1       1       8       1       1
       8       1       1       8       1       1       8       1       1       8
       1       1       8       1       1       8       1       1       8       1
       1       8       1       1       8       1       1       8       1       1
       8       1       1       8       1       1       8       1       1       8
       1       1       8       1       1       8       1       1       8       1
       1       8       1       1       8       1       1       8       1       1
       8       1       1       8       1       1       8       1       1       8
       1       1       8       1       1       8       1       1       8       1
       1       8       1       1       8       1       1       8       1       1
       8       1       1       8       1       1       8       1       1       8
       1       1       8       1       1       8       1       1       8       1
       1       8       1       1       8       1       1       8       1       1
       8       1       1       8       1       1       8       1       1       8
       1       1       8       1       1       8       1       1       8       1
       1       8       1       1       8       1       1       8       1       1
       8       1       1       8       1       1       8       1       1       8
       1       1       8       1       1       8       1       1       8       1
       1       8       1       1       8       1       1       8       1       1
       8       1       1       8       1       1       8       1       1       8
       1       1       8       1       1       8       1       1       8       1
       1       8       1       1       8       1       1       8       1       1
       8       1       1       8       1       1       8       1       1       8
       1       1       8       1       1       8       1       1       8       1
       1       8       1       1       8       1       1       8       1       1
       8       1       1       8       1       1       8       1       1       8
       1       1       8       1       1       8       1       1       8       1
       1       8       1       1       8       1       1       8       1       1
       8       1       1       8       1       1       8       1       1       8
       1       1       8       1       1       8       1       1       8       1
       1       8       1       1       8       1       1       8       1       1
       8       1       1       8       1       1       8       1       1       8
       1       1       8       1       1       8       1       1       8       1
       1       8       1       1       8       1       1       8       1       1
       8       1       1       8       1       1       8       1       1       8
       1       1       8       1       1       8       1       1       8       1
       1       8       1       1       8       1       1       8       1       1
       8       1       1       8       1       1       8       1       1       8
       1       1       8       1       1       8       1       1       8       1
       1       8       1       1       8       1       1       8       1       1
       8       1       1       8       1       1       8       1       1       8
       1       1       8       1       1       8       1       1       8       1
       1       8       1       1       8       1       1       8       1       1
       8       1       1       8       1       1       8       1       1       8
       1       1       8       1       1       8       1       1       8       1
       1       8       1       1       8       1       1       8       1       1
       8       1       1       8       1       1       8       1       1       8
       1       1       8       1       1       8       1       1       8       1
       1       8       1       1       8       1       1       8       1       1
       8       1       1       8       1       1       8       1       1       8
       1       1       8       1       1       8       1       1       8       1
       1       8       1       1       8       1       1       8       1       1
       8       1       1       8       1       1       8       1       1       8
       1       1       8       1       1       8       1       1       8       1
       1       8       1       1       8       1       1       8       1       1
       8       1       1       8       1       1       8       1       1       8
       1       1       8       1       1       8       1       1       8       1
       1       8       1       1       8       1       1       8       1       1
       8       1       1       8       1       1       8       1       1       8
       1       1       8       1       1       8       1       1       8       1
       1       8       1       1       8       1       1       8       1       1
       8       1       1       8       1       1       8       1       1       8
       1       1       8       1       1       8       1       1       8       1
       1       8       1       1       8       1       1       8       1       1
       8       1       1       8       1       1       8       1       1       8
       1       1       8       1       1       8       1       1       8       1
       1       8       1       1       8       1       1       8       1       1
       8       1       1       8       1       1       8       1       1       8
       1       1       8       1       1       8       1       1       8       1
       1       8       1       1       8       1       1       8       1       1
       8       1       1       8       1       1       8       1       1       8
       1       1       8       1       1       8       1       1       8       1
       1       8       1       1       8       1       1       8       1       1
       8       1       1       8       1       1       8       1       1       8
       1       1       8       1       1       8       1       1       8       1
       1       8       1       1       8       1       1       8       1       1
       8       1       1       8       1       1       8       1       1       8
       1       1       8       1       1       8       1       1       8       1
       1       8       1       1       8       1       1       8       1       1
       8       1       1       8       1       1       8       1       1       8
       1       1       8       1       1       8       1       1       8       1
       1       8       1       1       8       1       1       8       1       1
       8       1       1       8       1       1       8       1       1       8
       1       1       8       1       1       8       1       1       8       1
       1       8       1       1       8       1       1       8       1       1
       8       1       1       8       1       1       8       1       1       8
       1       1       8       1       1       8       1       1       8       1
       1       8       1       1       8       1       1       8       1       1
       8       1       1       8       1       1       8       1       1       8
       1       1       8       1       1       8       1       1       8       1
       1       8       1       1       8       1       1       8       1       1
       8       1       1       8       1       1       8       1       1       8
       1       1       8       1       1       8       1       1       8       1
       1       8       1       1       8       1       1       8       1       1
       8       1       1       8       1       1       8       1       1       8
       1       1       8       1       1       8       1       1       8       1
       1       8       1       1       8       1       1       8       1       1
       8       1       1       8       1       1       8       1       1       8
       1       1       8       1       1       8       1       1       8       1
       1       8       1       1       8       1       1       8       1       1
       8       1       1       8       1       1       8       1       1       8
       1       1       8       1       1       8       1       1       8       1
       1       8       1       1       8       1       1       8       1       1
       8       1       1       8       1       1       8       1       1       8
       1       1       8       1       1       8       1       1       8       1
       1       8       1       1       8       1       1       8       1       1
       8       1       1       8       1       1       8       1       1       8
       1       1       8       1       1       8       1       1       8       1
       1       8       1       1       8       1       1       8       1       1
       8       1       1       8       1       1       8       1       1       8
       1       1       8       1       1       8       1       1       8       1
       1       8       1       1       8       1       1       8       1       1
       8       1       1       8       1       1       8       1       1       8
       1       1       8       1       1       8       1       1       8       1
       1       8       1       1       8       1       1       8       1       1
       8       1       1       8       1       1       8       1       1       8
       1       1       8       1       1       8       1       1       8       1
       1       8       1       1       8       1       1       8       1       1
       8       1       1       8       1       1       8       1       1       8
       1       1       8       1       1       8       1       1       8       1
       1       8       1       1       8       1       1       8       1       1
       8       1       1       8       1       1       8       1       1       8
       1       1       8       1       1       8       1       1       8       1
       1       8       1       1       8       1       1       8       1       1
       8       1       1       8       1       1       8       1       1       8
       1       1       8       1       1       8       1       1       8       1
       1       8       1       1       8       1       1       8       1       1
       8       1       1       8       1       1       8       1       1       8
       1       1       8       1       1       8       1       1       8       1
       1       8       1       1       8       1       1       8       1       1
       8       1       1       8       1       1       8       1       1       8
       1       1       8       1       1       8       1       1       8       1
       1       8       1       1       8       1       1       8       1       1
       8       1       1       8       1       1       8       1       1       8
       1       1       8       1       1       8       1       1       8       1
       1       8       1       1       8       1       1       8       1       1
       8       1       1       8       1       1       8       1       1       8
       1       1       8       1       1       8       1       1       8       1
       1       8       1       1       8       1       1       8       1       1
       8       1       1       8       1       1       8       1       1       8
       1       1       8       1       1       8       1       1       8       1
       1       8       1       1       8       1       1       8       1       1
       8       1       1       8       1       1       8       1       1       8
       1       1       8       1       1       8       1       1       8       1
       1       8       1       1       8       1       1       8       1       1
       8       1       1       8       1       1       8       1       1       8
       1       1       8       1       1       8       1       1       8       1
       1       8       1       1       8       1       1       8       1       1
       8       1       1       8       1       1       8       1       1       8
       1       1       8       1       1       8       1       1       8       1
       1       8       1       1       8       1       1       8       1       1
       8       1       1       8       1       1       8       1       1       8
       1       1       8       1       1       8       1       1       8       1
       1       8       1       1       8       1       1       8       1       1
       8       1       1       8       1       1       8       1       1       8
       1       1       8       1       1       8       1       1       8       1
       1       8       1       1       8       1       1       8       1       1
       8       1       1       8       1       1       8       1       1       8
       1       1       8       1       1       8       1       1       8       1
       1       8       1       1       8       1       1       8       1       1
       8       1       1       8       1       1       8       1       1       8
       1       1       8       1       1       8       1       1       8       1
       1       8       1       1       8       1       1       8       1       1
       8       1       1       8       1       1       8       1       1       8
       1       1       8       1       1       8       1       1       8       1
       1       8       1       1       8       1       1       8       1       1
       8       1       1       8       1       1       8       1       1       8
       1       1       8       1       1       8       1       1       8       1
       1       8       1       1       8       1       1       8       1       1
       8       1       1       8       1       1       8       1       1       8
       1       1       8       1       1       8       1       1       8       1
       1       8       1       1       8       1       1       8       1       1
       8       1       1       8       1       1       8       1       1       8
       1       1       8       1       1       8       1       1       8       1
       1       8       1       1       8       1       1       8       1       1
       8       1       1       8       1       1       8       1       1       8
       1       1       8       1       1       8       1       1       8       1
       1       8       1       1       8       1       1       8       1       1
       8       1       1       8       1       1       8       1       1       8
       1       1       8       1       1       8       1       1       8       1
       1       8       1       1       8       1       1       8       1       1
       8       1       1       8       1       1       8       1       1       8
       1       1       8       1       1       8       1       1       8       1
       1       8       1       1       8       1       1       8       1       1
       8       1       1       8       1       1       8       1       1       8
       1       1       8       1       1       8       1       1       8       1
       1       8       1       1       8       1       1       8       1       1
       8       1       1       8       1       1       8       1       1       8
       1       1       8       1       1       8       1       1       8       1
       1       8       1       1       8       1       1       8       1       1
       8       1       1       8       1       1       8       1       1       8
       1       1       8       1       1       8       1       1       8       1
       1       8       1       1       8       1       1       8       1       1
       8       1       1       8       1       1       8       1       1       8
       1       1       8       1       1       8       1       1       8       1
       1       8       1       1       8       1       1       8       1       1
       8       1       1       8       1       1       8       1       1       8
       1       1       8       1       1       8       1       1       8       1
       1       8       1       1       8       1       1       8       1       1
       8       1       1       8       1       1       8       1       1       8
       1       1       8       1       1       8       1       1       8       1
       1       8       1       1       8       1       1       8       1       1
       8       1       1       8       1       1       8       1       1       8
       1       1       8       1       1       8       1       1       8       1
       1       8       1       1       8       1       1       8       1       1
       8       1       1       8       1       1       8       1       1       8
       1       1       8       1       1       8       1       1       8       1
       1       8       1       1       8       1       1       8       1       1
       8       1       1       8       1       1       8       1       1       8
       1       1       8       1       1       8       1       1       8       1
       1       8       1       1       8       1       1       8       1       1
       8       1       1       8       1       1       8       1       1       8
       1       1       8       1       1       8       1       1       8       1
       1       8       1       1       8       1       1       8       1       1
       8       1       1       8       1       1       8       1       1       8
       1       1       8       1       1       8       1       1       8       1
       1       8       1       1       8       1       1       8       1       1
       8       1       1       8       1       1       8       1       1       8
       1       1       8       1       1       8       1       1       8       1
       1       8       1       1       8       1       1       8       1       1
       8       1       1       8       1       1       8       1       1       8
       1       1       8       1       1       8       1       1       8       1
       1       8       1       1       8       1       1       8       1       1
       8       1       1       8       1       1       8       1       1       8
       1       1       8       1       1       8       1       1       8       1
       1       8       1       1       8       1       1       8       1       1
       8       1       1       8       1       1       8       1       1       8
       1       1       8       1       1       8       1       1       8       1
       1       8       1       1       8       1       1       8       1       1
       8       1       1       8       1       1       8       1       1       8
       1       1       8       1       1       8       1       1       8       1
       1       8       1       1       8       1       1       8       1       1
       8       1       1       8       1       1       8       1       1       8
       1       1       8       1       1       8       1       1       8       1
       1       8       1       1       8       1       1       8       1       1
       8       1       1       8       1       1       8       1       1       8
       1       1       8       1       1       8       1       1       8       1
       1       8       1       1       8       1       1       8       1       1
       8       1       1       8       1       1       8       1       1       8
       1       1       8       1       1       8       1       1       8       1
       1       8       1       1       8       1       1       8       1       1
       8       1       1       8       1       1       8       1       1       8
       1       1       8       1       1       8       1       1       8       1
       1       8       1       1       8       1       1       8       1       1
       8       1       1       8       1       1       8       1       1       8
       1       1       8       1       1       8       1       1       8       1
       1       8       1       1       8       1       1       8       1       1
       8       1       1       8       1       1       8       1       1       8
       1       1       8       1       1       8       1       1       8       1
       1       8       1       1       8       1       1       8       1       1
       8       1       1       8       1       1       8       1       1       8
       1       1       8       1       1       8       1       1       8       1
       1       8       1       1       8       1       1       8       1       1
       8       1       1       8       1       1       8       1       1       8
       1       1       8       1       1       8       1       1       8       1
       1       8       1       1       8       1       1       8       1       1
       8       1       1       8       1       1       8       1       1       8
       1       1       8       1       1       8       1       1       8       1
       1       8       1       1       8       1       1       8       1       1
       8       1       1       8       1       1       8       1       1       8
       1       1       8       1       1       8       1       1       8       1
       1       8       1       1       8       1       1       8       1       1
       8       1       1       8       1       1       8       1       1       8
       1       1       8       1       1       8       1       1       8       1
       1       8       1       1       8       1       1       8       1       1
       8       1       1       8       1       1       8       1       1       8
       1       1       8       1       1       8       1       1       8       1
       1       8       1       1       8       1       1       8       1       1
       8       1       1       8       1       1       8       1       1       8
       1       1       8       1       1       8       1       1       8       1
       1       8       1       1       8       1       1       8       1       1
       8       1       1       8       1       1       8       1       1       8
       1       1       8       1       1       8       1       1       8       1
       1       8       1       1       8       1       1       8       1       1
       8       1       1       8       1       1       8       1       1       8
       1       1       8       1       1       8       1       1       8       1
       1       8       1       1       8       1       1       8       1       1
       8       1       1       8       1       1       8       1       1       8
       1       1       8       1       1       8       1       1       8       1
       1       8       1       1       8       1       1       8       1       1
       8       1       1       8       1       1       8       1       1       8
       1       1       8       1       1       8       1       1       8       1
       1       8       1       1       8       1       1       8       1       1
       8       1       1       8       1       1       8       1       1       8
       1       1       8       1       1       8       1       1       8       1
       1       8       1       1       8       1       1       8       1       1
       8       1       1       8       1       1       8       1       1       8
       1       1       8       1       1       8       1       1       8       1
       1       8       1       1       8       1       1       8       1       1
       8       1       1       8       1       1       8       1       1       8
       1       1       8       1       1       8       1       1       8       1
       1       8       1       1       8       1       1       8       1       1
       8       1       1       8       1       1       8       1       1       8
       1       1       8       1       1       8       1       1       8       1
       1       8       1       1       8       1       1       8       1       1
       8       1       1       8       1       1       8       1       1       8
       1       1       8       1       1       8       1       1       8       1
       1       8       1       1       8       1       1       8       1       1
       8       1       1       8       1       1       8       1       1       8
       1       1       8       1       1       8       1       1       8       1
       1       8       1       1       8       1       1       8       1       1
       8       1       1       8       1       1       8       1       1       8
       1       1       8       1       1       8       1       1       8       1
       1       8       1       1       8       1       1       8       1       1
       8       1       1       8       1       1       8       1       1       8
       1       1       8       1       1       8       1       1       8       1
       1       8       1       1       8       1       1       8       1       1
       8       1       1       8       1       1       8       1       1       8
       1       1       8       1       1       8       1       1       8       1
       1       8       1       1       8       1       1       8       1       1
       8       1       1       8       1       1       8       1       1       8
       1       1       8       1       1       8       1       1       8       1
       1       8       1       1       8       1       1       8       1       1
       8       1       1       8       1       1       8       1       1       8
       1       1       8       1       1       8       1       1       8       1
       1       8       1       1       8       1       1       8       1       1
       8       1       1       8       1       1       8       1       1       8
       1       1       8       1       1       8       1       1       8       1
       1       8       1       1       8       1       1       8       1       1
       8       1       1       8       1       1       8       1       1       8
       1       1       8       1       1       8       1       1       8       1
       1       8       1       1       8       1       1       8       1       1
       8       1       1       8       1       1       8       1       1       8
       1       1       8       1       1       8       1       1       8       1
       1       8       1       1       8       1       1       8       1       1
       8       1       1       8       1       1       8       1       1       8
       1       1       8       1       1       8       1       1       8       1
       1       8       1       1       8       1       1       8       1       1
       8       1       1       8       1       1       8       1       1       8
       1       1       8       1       1       8       1       1       8       1
       1       8       1       1       8       1       1       8       1       1
       8       1       1       8       1       1       8       1       1       8
       1       1       8       1       1       8       1       1       8       1
       1       8       1       1       8       1       1       8       1       1
       8       1       1       8       1       1       8       1       1       8
       1       1       8       1       1       8       1       1       8       1
       1       8       1       1       8       1       1       8       1       1
       8       1       1       8       1       1       8       1       1       8
       1       1       8       1       1       8       1       1       8       1
       1       8       1       1       8       1       1       8       1       1
       8       1       1       8       1       1       8       1       1       8
       1       1       8       1       1       8       1       1       8       1
       1       8       1       1       8       1       1       8       1       1
       8       1       1       8       1       1       8       1       1       8
       1       1       8       1       1       8       1       1       8       1
       1       8       1       1       8       1       1       8       1       1
       8       1       1       8       1       1       8       1       1       8
       1       1       8       1       1       8       1       1       8       1
       1       8       1       1       8       1       1       8       1       1
       8       1       1       8       1       1       8       1       1       8
       1       1       8       1       1       8       1       1       8       1
       1       8       1       1       8       1       1       8       1       1
       8       1       1       8       1       1       8       1       1       8
       1       1       8       1       1       8       1       1       8       1
       1       8       1       1       8       1       1       8       1       1
       8       1       1       8       1       1       8       1       1       8
       1       1       8       1       1       8       1       1       8       1
       1       8       1       1       8       1       1       8       1       1
       8       1       1       8       1       1       8       1       1       8
       1       1       8       1       1       8       1       1       8       1
       1       8       1       1       8       1       1       8       1       1
       8       1       1       8       1       1       8       1       1       8
       1       1       8       1       1       8       1       1       8       1
       1       8       1       1       8       1       1       8       1       1
       8       1       1       8       1       1       8       1       1       8
       1       1       8       1       1       8       1       1       8       1
       1       8       1       1       8       1       1       8       1       1
       8       1       1       8       1       1       8       1       1       8
       1       1       8       1       1       8       1       1       8       1
       1       8       1       1       8       1       1       8       1       1
       8       1       1       8       1       1       8       1       1       8
       1       1       8       1       1       8       1       1       8       1
       1       8       1       1       8       1       1       8       1       1
       8       1       1       8       1       1       8       1       1       8
       1       1       8       1       1       8       1       1       8       1
       1       8       1       1       8       1       1       8       1       1
       8       1       1       8       1       1       8       1       1       8
       1       1       8       1       1       8       1       1       8       1
       1       8       1       1       8       1       1       8       1       1
       8       1       1       8       1       1       8       1       1       8
       1       1       8       1       1       8       1       1       8       1
       1       8       1       1       8       1       1       8       1       1
       8       1       1       8       1       1       8       1       1       8
       1       1       8       1       1       8       1       1       8       1
       1       8       1       1       8       1       1       8       1       1
       8       1       1       8       1       1       8       1       1       8
       1       1       8       1       1       8       1       1       8       1
       1       8       1       1       8       1       1       8       1       1
       8       1       1       8       1       1       8       1       1       8
       1       1       8       1       1       8       1       1       8       1
       1       8       1       1       8       1       1       8       1       1
       8       1       1       8       1       1       8       1       1       8
       1       1       8       1       1       8       1       1       8       1
       1       8       1       1       8       1       1       8       1       1
       8       1       1       8       1       1       8       1       1       8
       1       1       8       1       1       8       1       1       8       1
       1       8       1       1       8       1       1       8       1       1
       8       1       1       8       1       1       8       1       1       8
       1       1       8       1       1       8       1       1       8       1
       1       8       1       1       8       1       1       8       1       1
       8       1       1       8       1       1       8       1       1       8
       1       1       8       1       1       8       1       1       8       1
       1       8       1       1       8       1       1       8       1       1
       8       1       1       8       1       1       8       1       1       8
       1       1       8       1       1       8       1       1       8       1
       1       8       1       1       8       1       1       8       1       1
       8       1       1       8       1       1       8       1       1       8
       1       1       8       1       1       8       1       1       8       1
       1       8       1       1       8       1       1       8       1       1
       8       1       1       8       1       1       8       1       1       8
       1       1       8       1       1       8       1       1       8       1
       1       8       1       1       8       1       1       8       1       1
       8       1       1       8       1       1       8       1       1       8
       1       1       8       1       1       8       1       1       8       1
       1       8       1       1       8       1       1       8       1       1
       8       1       1       8       1       1       8       1       1       8
       1       1       8       1       1       8       1       1       8       1
       1       8       1       1       8       1       1       8       1       1
       8       1       1       8       1       1       8       1       1       8
       1       1       8       1       1       8       1       1       8       1
       1       8       1       1       8       1       1       8       1       1
       8       1       1       8       1       1       8       1       1       8
       1       1       8       1       1       8       1       1       8       1
       1       8       1       1       8       1       1       8       1       1
       8       1       1       8       1       1       8       1       1       8
       1       1       8       1       1       8       1       1       8       1
       1       8       1       1       8       1       1       8       1       1
       8       1       1       8       1       1       8       1       1       8
       1       1       8       1       1       8       1       1       8       1
       1       8       1       1       8       1       1       8       1       1
       8       1       1       8       1       1       8       1       1       8
       1       1       8       1       1       8       1       1       8       1
       1       8       1       1       8       1       1       8       1       1
       8       1       1       8       1       1       8       1       1       8
       1       1       8       1       1       8       1       1       8       1
       1       8       1       1       8       1       1       8       1       1
       8       1       1       8       1       1       8       1       1       8
       1       1       8       1       1       8       1       1       8       1
       1       8       1       1       8       1       1       8       1       1
       8       1       1       8       1       1       8       1       1       8
       1       1       8       1       1       8       1       1       8       1
       1       8       1       1       8       1       1       8       1       1
       8       1       1       8       1       1       8       1       1       8
       1       1       8       1       1       8       1       1       8       1
       1       8       1       1       8       1       1       8       1       1
       8       1       1       8       1       1       8       1       1       8
       1       1       8       1       1       8       1       1       8       1
       1       8       1       1       8       1       1       8       1       1
       8       1       1       8       1       1       8       1       1       8
       1       1       8       1       1       8       1       1       8       1
       1       8       1       1       8       1       1       8       1       1
       8       1       1       8       1       1       8       1       1       8
       1       1       8       1       1       8       1       1       8       1
       1       8       1       1       8       1       1       8       1       1
       8       1       1       8       1       1       8       1       1       8
       1       1       8       1       1       8       1       1       8       1
       1       8       1       1       8       1       1       8       1       1
       8       1       1       8       1       1       8       1       1       8
       1       1       8       1       1       8       1       1       8       1
       1       8       1       1       8       1       1       8       1       1
       8       1       1       8       1       1       8       1       1       8
       1       1       8       1       1       8       1       1       8       1
       1       8       1       1       8       1       1       8       1       1
       8       1       1       8       1       1       8       1       1       8
       1       1       8       1       1       8       1       1       8       1
       1       8       1       1       8       1       1       8       1       1
       8       1       1       8       1       1       8       1       1       8
       1       1       8       1       1       8       1       1       8       1
       1       8       1       1       8       1       1       8       1       1
       8       1       1       8       1       1       8       1       1       8
       1       1       8       1       1       8       1       1       8       1
       1       8       1       1       8       1       1       8       1       1
       8       1       1       8       1       1       8       1       1       8
       1       1       8       1       1       8       1       1       8       1
       1       8       1       1       8       1       1       8       1       1
       8       1       1       8       1       1       8       1       1       8
       1       1       8       1       1       8       1       1       8       1
       1       8       1       1       8       1       1       8       1       1
       8       1       1       8       1       1       8       1       1       8
       1       1       8       1       1       8       1       1       8       1
       1       8       1       1       8       1       1       8       1       1
       8       1       1       8       1       1       8       1       1       8
       1       1       8       1       1       8       1       1       8       1
       1       8       1       1       8       1       1       8       1       1
       8       1       1       8       1       1       8       1       1       8
       1       1       8       1       1       8       1       1       8       1
       1       8       1       1       8       1       1       8       1       1
       8       1       1       8       1       1       8       1       1       8
       1       1       8       1       1       8       1       1       8       1
       1       8       1       1       8       1       1       8       1       1
       8       1       1       8       1       1       8       1       1       8
       1       1       8       1       1       8       1       1       8       1
       1       8       1       1       8       1       1       8       1       1
       8       1       1       8       1       1       8       1       1       8
       1       1       8       1       1       8       1       1       8       1
       1       8       1       1       8       1       1       8       1       1
       8       1       1       8       1       1       8       1       1       8
       1       1       8       1       1       8       1       1       8       1
       1       8       1       1       8       1       1       8       1       1
       8       1       1       8       1       1       8       1       1       8
       1       1       8       1       1       8       1       1       8       1
       1       8       1       1       8       1       1       8       1       1
       8       1       1       8       1       1       8       1       1       8
       1       1       8       1       1       8       1       1       8       1
       1       8       1       1       8       1       1       8       1       1
       8       1       1       8       1       1       8       1       1       8
       1       1       8       1       1       8       1       1       8       1
       1       8       1       1       8       1       1       8       1       1
       8       1       1       8       1       1       8       1       1       8
       1       1       8       1       1       8       1       1       8       1
       1       8       1       1       8       1       1       8       1       1
       8       1       1       8       1       1       8       1       1       8
       1       1       8       1       1       8       1       1       8       1
       1       8       1       1       8       1       1       8       1       1
       8       1       1       8       1       1       8       1       1       8
       1       1       8       1       1       8       1       1       8       1
       1       8       1       1       8       1       1       8       1       1
       8       1       1       8       1       1       8       1       1       8
       1       1       8       1       1       8       1       1       8       1
       1       8       1       1       8       1       1       8       1       1
       8       1       1       8       1       1       8       1       1       8
       1       1       8       1       1       8       1       1       8       1
       1       8       1       1       8       1       1       8       1       1
       8       1       1       8       1       1       8       1       1       8
       1       1       8       1       1       8       1       1       8       1
       1       8       1       1       8       1       1       8       1       1
       8       1       1       8       1       1       8       1       1       8
       1       1       8       1       1       8       1       1       8       1
       1       8       1       1       8       1       1       8       1       1
       8       1       1       8       1       1       8       1       1       8
       1       1       8       1       1       8       1       1       8       1
       1       8       1       1       8       1       1       8       1       1
       8       1       1       8       1       1       8       1       1       8
       1       1       8       1       1       8       1       1       8       1
       1       8       1       1       8       1       1       8       1       1
       8       1       1       8       1       1       8       1       1       8
       1       1       8       1       1       8       1       1       8       1
       1       8       1       1       8       1       1       8       1       1
       8       1       1       8       1       1       8       1       1       8
       1       1       8       1       1       8       1       1       8       1
       1       8       1       1       8       1       1       8       1       1
       8       1       1       8       1       1       8       1       1       8
       1       1       8       1       1       8       1       1       8       1
       1       8       1       1       8       1       1       8       1       1
       8       1       1       8       1       1       8       1       1       8
       1       1       8       1       1       8       1       1       8       1
       1       8       1       1       8       1       1       8       1       1
       8       1       1       8       1       1       8       1       1       8
       1       1       8       1       1       8       1       1       8       1
       1       8       1       1       8       1       1       8       1       1
       8       1       1       8       1       1       8       1       1       8
       1       1       8       1       1       8       1       1       8       1
       1       8       1       1       8       1       1       8       1       1
       8       1       1       8       1       1       8       1       1       8
       1       1       8       1       1       8       1       1       8       1
       1       8       1       1       8       1       1       8       1       1
       8       1       1       8       1       1       8       1       1       8
       1       1       8       1       1       8       1       1       8       1
       1       8       1       1       8       1       1       8       1       1
       8       1       1       8       1       1       8       1       1       8
       1       1       8       1       1       8       1       1       8       1
       1       8       1       1       8       1       1       8       1       1
       8       1       1       8       1       1       8       1       1       8
       1       1       8       1       1       8       1       1       8       1
       1       8       1       1       8       1       1       8       1       1
       8       1       1       8       1       1       8       1       1       8
       1       1       8       1       1       8       1       1       8       1
       1       8       1       1       8       1       1       8       1       1
       8       1       1       8       1       1       8       1       1       8
       1       1       8       1       1       8       1       1       8       1
       1       8       1       1       8       1       1       8       1       1
       8       1       1       8       1       1       8       1       1       8
       1       1       8       1       1       8       1       1       8       1
       1       8       1       1       8       1       1       8       1       1
       8       1       1       8       1       1       8       1       1       8
       1       1       8       1       1       8       1       1       8       1
       1       8       1       1       8       1       1       8       1       1
       8       1       1       8       1       1       8       1       1       8
       1       1       8       1       1       8       1       1       8       1
       1       8       1       1       8       1       1       8       1       1
       8       1       1       8       1       1       8       1       1       8
       1       1       8       1       1       8       1       1       8       1
       1       8       1       1       8       1       1       8       1       1
       8       1       1       8       1       1       8       1       1       8
       1       1       8       1       1       8       1       1       8       1
       1       8       1       1       8       1       1       8       1       1
       8       1       1       8       1       1       8       1       1       8
       1       1       8       1       1       8       1       1       8       1
       1       8       1       1       8       1       1       8       1       1
       8       1       1       8       1       1       8       1       1       8
       1       1       8       1       1       8       1       1       8       1
       1       8       1       1       8       1       1       8       1       1
       8       1       1       8       1       1       8       1       1       8
       1       1       8       1       1       8       1       1       8       1
       1       8       1       1       8       1       1       8       1       1
       8       1       1       8       1       1       8       1       1       8
       1       1       8       1       1       8       1       1       8       1
       1       8       1       1       8       1       1       8       1       1
       8       1       1       8       1       1       8       1       1       8
       1       1       8       1       1       8       1       1       8       1
       1       8       1       1       8       1       1       8       1       1
       8       1       1       8       1       1       8       1       1       8
       1       1       8       1       1       8       1       1       8       1
       1       8       1       1       8       1       1       8       1       1
       8       1       1       8       1       1       8       1       1       8
       1       1       8       1       1       8       1       1       8       1
       1       8       1       1       8       1       1       8       1       1
       8       1       1       8       1       1       8       1       1       8
       1       1       8       1       1       8       1       1       8       1
       1       8       1       1       8       1       1       8       1       1
       8       1       1       8       1       1       8       1       1       8
       1       1       8       1       1       8       1       1       8       1
       1       8       1       1       8       1       1       8       1       1
       8       1       1       8       1       1       8       1       1       8
       1       1       8       1       1       8       1       1       8       1
       1       8       1       1       8       1       1       8       1       1
       8       1       1       8       1       1       8       1       1       8
       1       1       8       1       1       8       1       1       8       1
       1       8       1       1       8       1       1       8       1       1
       8       1       1       8       1       1       8       1       1       8
       1       1       8       1       1       8       1       1       8       1
       1       8       1       1       8       1       1       8       1       1
       8       1       1       8       1       1       8       1       1       8
       1       1       8       1       1       8       1       1       8       1
       1       8       1       1       8       1       1       8       1       1
       8       1       1       8       1       1       8       1       1       8
       1       1       8       1       1       8       1       1       8       1
       1       8       1       1       8       1       1       8       1       1
       8       1       1       8       1       1       8       1       1       8
       1       1       8       1       1       8       1       1       8       1
       1       8       1       1       8       1       1       8       1       1
       8       1       1       8       1       1       8       1       1       8
       1       1       8       1       1       8       1       1       8       1
       1       8       1       1       8       1       1       8       1       1
       8       1       1       8       1       1       8       1       1       8
       1       1       8       1       1       8       1       1       8       1
       1       8       1       1       8       1       1       8       1       1
       8       1       1       8       1       1       8       1       1       8
       1       1       8       1       1       8       1       1       8       1
       1       8       1       1       8       1       1       8       1       1
       8       1       1       8       1       1       8       1       1       8
       1       1       8       1       1       8       1       1       8       1
       1       8       1       1       8       1       1       8       1       1
       8       1       1       8       1       1       8       1       1       8
       1       1       8       1       1       8       1       1       8       1
       1       8       1       1       8       1       1       8       1       1
       8       1       1       8       1       1       8       1       1       8
       1       1       8       1       1       8       1       1       8       1
       1       8       1       1       8       1       1       8       1       1
       8       1       1       8       1       1       8       1       1       8
       1       1       8       1       1       8       1       1       8       1
       1       8       1       1       8       1       1       8       1       1
       8       1       1       8       1       1       8       1       1       8
       1       1       8       1       1       8       1       1       8       1
       1       8       1       1       8       1       1       8       1       1
       8       1       1       8       1       1       8       1       1       8
       1       1       8       1       1       8       1       1       8       1
       1       8       1       1       8       1       1       8       1       1
       8       1       1       8       1       1       8       1       1       8
       1       1       8       1       1       8       1       1       8       1
       1       8       1       1       8       1       1       8       1       1
       8       1       1       8       1       1       8       1       1       8
       1       1       8       1       1       8       1       1       8       1
       1       8       1       1       8       1       1       8       1       1
       8       1       1       8       1       1       8       1       1       8
       1       1       8       1       1       8       1       1       8       1
       1       8       1       1       8       1       1       8       1       1
       8       1       1       8       1       1       8       1       1       8
       1       1       8       1       1       8       1       1       8       1
       1       8       1       1       8       1       1       8       1       1
       8       1       1       8       1       1       8       1       1       8
       1       1       8       1       1       8       1       1       8       1
       1       8       1       1       8       1       1       8       1       1
       8       1       1       8       1       1       8       1       1       8
       1       1       8       1       1       8       1       1       8       1
       1       8       1       1       8       1       1       8       1       1
       8       1       1       8       1       1       8       1       1       8
       1       1       8       1       1       8       1       1       8       1
       1       8       1       1       8       1       1       8       1       1
       8       1       1       8       1       1       8       1       1       8
       1       1       8       1       1       8       1       1       8       1
       1       8       1       1       8       1       1       8       1       1
       8       1       1       8       1       1       8       1       1       8
       1       1       8       1       1       8       1       1       8       1
       1       8       1       1       8       1       1       8       1       1
       8       1       1       8       1       1       8       1       1       8
       1       1       8       1       1       8       1       1       8       1
       1       8       1       1       8       1       1       8       1       1
       8       1       1       8       1       1       8       1       1       8
       1       1       8       1       1       8       1       1       8       1
       1       8       1       1       8       1       1       8       1       1
       8       1       1       8       1       1       8       1       1       8
       1       1       8       1       1       8       1       1       8       1
       1       8       1       1       8       1       1       8       1       1
       8       1       1       8       1       1       8       1       1       8
       1       1       8       1       1       8       1       1       8       1
       1       8       1       1       8       1       1       8       1       1
       8       1       1       8       1       1       8       1       1       8
       1       1       8       1       1       8       1       1       8       1
       1       8       1       1       8       1       1       8       1       1
       8       1       1       8       1       1       8       1       1       8
       1       1       8       1       1       8       1       1       8       1
       1       8       1       1       8       1       1       8       1       1
       8       1       1       8       1       1       8       1       1       8
       1       1       8       1       1       8       1       1       8       1
       1       8       1       1       8       1       1       8       1       1
       8       1       1       8       1       1       8       1       1       8
       1       1       8       1       1       8       1       1       8       1
       1       8       1       1       8       1       1       8       1       1
       8       1       1       8       1       1       8       1       1       8
       1       1       8       1       1       8       1       1       8       1
       1       8       1       1       8       1       1       8       1       1
       8       1       1       8       1       1       8       1       1       8
       1       1       8       1       1       8       1       1       8       1
       1       8       1       1       8       1       1       8       1       1
       8       1       1       8       1       1       8       1       1       8
       1       1       8       1       1       8       1       1       8       1
       1       8       1       1       8       1       1       8       1       1
       8       1       1       8       1       1       8       1       1       8
       1       1       8       1       1       8       1       1       8       1
       1       8       1       1       8       1       1       8       1       1
       8       1       1       8       1       1       8       1       1       8
       1       1       8       1       1       8       1       1       8       1
       1       8       1       1       8       1       1       8       1       1
       8       1       1       8       1       1       8       1       1       8
       1       1       8       1       1       8       1       1       8       1
       1       8       1       1       8       1       1       8       1       1
       8       1       1       8       1       1       8       1       1       8
       1       1       8       1       1       8       1       1       8       1
       1       8       1       1       8       1       1       8       1       1
       8       1       1       8       1       1       8       1       1       8
       1       1       8       1       1       8       1       1       8       1
       1       8       1       1       8       1       1       8       1       1
       8       1       1       8       1       1       8       1       1       8
       1       1       8       1       1       8       1       1       8       1
       1       8       1       1       8       1       1       8       1       1
       8       1       1       8       1       1       8       1       1       8
       1       1       8       1       1       8       1       1       8       1
       1       8       1       1       8       1       1       8       1       1
       8       1       1       8       1       1       8       1       1       8
       1       1       8       1       1       8       1       1       8       1
       1       8       1       1       8       1       1       8       1       1
       8       1       1       8       1       1       8       1       1       8
       1       1       8       1       1       8       1       1       8       1
       1       8       1       1       8       1       1       8       1       1
       8       1       1       8       1       1       8       1       1       8
       1       1       8       1       1       8       1       1       8       1
       1       8       1       1       8       1       1       8       1       1
       8       1       1       8       1       1       8       1       1       8
       1       1       8       1       1       8       1       1       8       1
       1       8       1       1       8       1       1       8       1       1
       8       1       1       8       1       1       8       1       1       8
       1       1       8       1       1       8       1       1       8       1
       1       8       1       1       8       1       1       8       1       1
       8       1       1       8       1       1       8       1       1       8
       1       1       8       1       1       8       1       1       8       1
       1       8       1       1       8       1       1       8       1       1
       8       1       1       8       1       1       8       1       1       8
       1       1       8       1       1       8       1       1       8       1
       1       8       1       1       8       1       1       8       1       1
       8       1       1       8       1       1       8       1       1       8
       1       1       8       1       1       8       1       1       8       1
       1       8       1       1       8       1       1       8       1       1
       8       1       1       8       1       1       8       1       1       8
       1       1       8       1       1       8       1       1       8       1
       1       8       1       1       8       1       1       8       1       1
       8       1       1       8       1       1       8       1       1       8
       1       1       8       1       1       8       1       1       8       1
       1       8       1       1       8       1       1       8       1       1
       8       1       1       8       1       1       8       1       1       8
       1       1       8       1       1       8       1       1       8       1
       1       8       1       1       8       1       1       8       1       1
       8       1       1       8       1       1       8       1       1       8
       1       1       8       1       1       8       1       1       8       1
       1       8       1       1       8       1       1       8       1       1
       8       1       1       8       1       1       8       1       1       8
       1       1       8       1       1       8       1       1       8       1
       1       8       1       1       8       1       1       8       1       1
       8       1       1       8       1       1       8       1       1       8
       1       1       8       1       1       8       1       1       8       1
       1       8       1       1       8       1       1       8       1       1
       8       1       1       8       1       1       8       1       1       8
       1       1       8       1       1       8       1       1       8       1
       1       8       1       1       8       1       1       8       1       1
       8       1       1       8       1       1       8       1       1       8
       1       1       8       1       1       8       1       1       8       1
       1       8       1       1       8       1       1       8       1       1
       8       1       1       8       1       1       8       1       1       8
       1       1       8       1       1       8       1       1       8       1
       1       8       1       1       8       1       1       8       1       1
       8       1       1       8       1       1       8       1       1       8
       1       1       8       1       1       8       1       1       8       1
       1       8       1       1       8       1       1       8       1       1
       8       1       1       8       1       1       8       1       1       8
       1       1       8       1       1       8       1       1       8       1
       1       8       1       1       8       1       1       8       1       1
       8       1       1       8       1       1       8       1       1       8
       1       1       8       1       1       8       1       1       8       1
       1       8       1       1       8       1       1       8       1       1
       8       1       1       8       1       1       8       1       1       8
       1       1       8       1       1       8       1       1       8       1
       1       8       1       1       8       1       1       8       1       1
       8       1       1       8       1       1       8       1       1       8
       1       1       8       1       1       8       1       1       8       1
       1       8       1       1       8       1       1       8       1       1
       8       1       1       8       1       1       8       1       1       8
       1       1       8       1       1       8       1       1       8       1
       1       8       1       1       8       1       1       8       1       1
       8       1       1       8       1       1       8       1       1       8
       1       1       8       1       1       8       1       1       8       1
       1       8       1       1       8       1       1       8       1       1
       8       1       1       8       1       1       8       1       1       8
       1       1       8       1       1       8       1       1       8       1
       1       8       1       1       8       1       1       8       1       1
       8       1       1       8       1       1       8       1       1       8
       1       1       8       1       1       8       1       1       8       1
       1       8       1       1       8       1       1       8       1       1
       8       1       1       8       1       1       8       1       1       8
       1       1       8       1       1       8       1       1       8       1
       1       8       1       1       8       1       1       8       1       1
       8       1       1       8       1       1       8       1       1       8
       1       1       8       1       1       8       1       1       8       1
       1       8       1       1       8       1       1       8       1       1
       8       1       1       8       1       1       8       1       1       8
       1       1       8       1       1       8       1       1       8       1
       1       8       1       1       8       1       1       8       1       1
       8       1       1       8       1       1       8       1       1       8
       1       1       8       1       1       8       1       1       8       1
       1       8       1       1       8       1       1       8       1       1
       8       1       1       8       1       1       8       1       1       8
       1       1       8       1       1       8       1       1       8       1
       1       8       1       1       8       1       1       8       1       1
       8       1       1       8       1       1       8       1       1       8
       1       1       8       1       1       8       1       1       8       1
       1       8       1       1       8       1       1       8       1       1
       8       1       1       8       1       1       8       1       1       8
       1       1       8       1       1       8       1       1       8       1
       1       8       1       1       8       1       1       8       1       1
       8       1       1       8       1       1       8       1       1       8
       1       1       8       1       1       8       1       1       8       1
       1       8       1       1       8       1       1       8       1       1
       8       1       1       8       1       1       8       1       1       8
       1       1       8       1       1       8       1       1       8       1
       1       8       1       1       8       1       1       8       1       1
       8       1       1       8       1       1       8       1       1       8
       1       1       8       1       1       8       1       1       8       1
       1       8       1       1       8       1       1       8       1       1
       8       1       1       8       1       1       8       1       1       8
       1       1       8       1       1       8       1       1       8       1
       1       8       1       1       8       1       1       8       1       1
       8       1       1       8       1       1       8       1       1       8
       1       1       8       1       1       8       1       1       8       1
       1       8       1       1       8       1       1       8       1       1
       8       1       1       8       1       1       8       1       1       8
       1       1       8       1       1       8       1       1       8       1
       1       8       1       1       8       1       1       8       1       1
       8       1       1       8       1       1       8       1       1       8
       1       1       8       1       1       8       1       1       8       1
       1       8       1       1       8       1       1       8       1       1
       8       1       1       8       1       1       8       1       1       8
       1       1       8       1       1       8       1       1       8       1
       1       8       1       1       8       1       1       8       1       1
       8       1       1       8       1       1       8       1       1       8
       1       1       8       1       1       8       1       1       8       1
       1       8       1       1       8       1       1       8       1       1
       8       1       1       8       1       1       8       1       1       8
       1       1       8       1       1       8       1       1       8       1
       1       8       1       1       8       1       1       8       1       1
       8       1       1       8       1       1       8       1       1       8
       1       1       8       1       1       8       1       1       8       1
       1       8       1       1       8       1       1       8       1       1
       8       1       1       8       1       1       8       1       1       8
       1       1       8       1       1       8       1       1       8       1
       1       8       1       1       8       1       1       8       1       1
       8       1       1       8       1       1       8       1       1       8
       1       1       8       1       1       8       1       1       8       1
       1       8       1       1       8       1       1       8       1       1
       8       1       1       8       1       1       8       1       1       8
       1       1       8       1       1       8       1       1       8       1
       1       8       1       1       8       1       1       8       1       1
       8       1       1       8       1       1       8       1       1       8
       1       1       8       1       1       8       1       1       8       1
       1       8       1       1       8       1       1       8       1       1
       8       1       1       8       1       1       8       1       1       8
       1       1       8       1       1       8       1       1       8       1
       1       8       1       1       8       1       1       8       1       1
       8       1       1       8       1       1       8       1       1       8
       1       1       8       1       1       8       1       1       8       1
       1       8       1       1       8       1       1       8       1       1
       8       1       1       8       1       1       8       1       1       8
       1       1       8       1       1       8       1       1       8       1
       1       8       1       1       8       1       1       8       1       1
       8       1       1       8       1       1       8       1       1       8
       1       1       8       1       1       8       1       1       8       1
       1       8       1       1       8       1       1       8       1       1
       8       1       1       8       1       1       8       1       1       8
       1       1       8       1       1       8       1       1       8       1
       1       8       1       1       8       1       1       8       1       1
       8       1       1       8       1       1       8       1       1       8
       1       1       8       1       1       8       1       1       8       1
       1       8       1       1       8       1       1       8       1       1
       8       1       1       8       1       1       8       1       1       8
       1       1       8       1       1       8       1       1       8       1
       1       8       1       1       8       1       1       8       1       1
       8       1       1       8       1       1       8       1       1       8
       1       1       8       1       1       8       1       1       8       1
       1       8       1       1       8       1       1       8       1       1
       8       1       1       8       1       1       8       1       1       8
       1       1       8       1       1       8       1       1       8       1
       1       8       1       1       8       1       1       8       1       1
       8       1       1       8       1       1       8       1       1       8
       1       1       8       1       1       8       1       1       8       1
       1       8       1       1       8       1       1       8       1       1
       8       1       1       8       1       1       8       1       1       8
       1       1       8       1       1       8       1       1       8       1
       1       8       1       1       8       1       1       8       1       1
       8       1       1       8       1       1       8       1       1       8
       1       1       8       1       1       8       1       1       8       1
       1       8       1       1       8       1       1       8       1       1
       8       1       1       8       1       1       8       1       1       8
       1       1       8       1       1       8       1       1       8       1
       1       8       1       1       8       1       1       8       1       1
       8       1       1       8       1       1       8       1       1       8
       1       1       8       1       1       8       1       1       8       1
       1       8       1       1       8       1       1       8       1       1
       8       1       1       8       1       1       8       1       1       8
       1       1       8       1       1       8       1       1       8       1
       1       8       1       1       8       1       1       8       1       1
       8       1       1       8       1       1       8       1       1       8
       1       1       8       1       1       8       1       1       8       1
       1       8       1       1       8       1       1       8       1       1
       8       1       1       8       1       1       8       1       1       8
       1       1       8       1       1       8       1       1       8       1
       1       8       1       1       8       1       1       8       1       1
       8       1       1       8       1       1       8       1       1       8
       1       1       8       1       1       8       1       1       8       1
       1       8       1       1       8       1       1       8       1       1
       8       1       1       8       1       1       8       1       1       8
       1       1       8       1       1       8       1       1       8       1
       1       8       1       1       8       1       1       8       1       1
       8       1       1       8       1       1       8       1       1       8
       1       1       8       1       1       8       1       1       8       1
       1       8       1       1       8       1       1       8       1       1
       8       1       1       8       1       1       8       1       1       8
       1       1       8       1       1       8       1       1       8       1
       1       8       1       1       8       1       1       8       1       1
       8       1       1       8       1       1       8       1       1       8
       1       1       8       1       1       8       1       1       8       1
       1       8       1       1       8       1       1       8       1       1
       8       1       1       8       1       1       8       1       1       8
       1       1       8       1       1       8       1       1       8       1
       1       8       1       1       8       1       1       8       1       1
       8       1       1       8       1       1       8       1       1       8
       1       1       8       1       1       8       1       1       8       1
       1       8       1       1       8       1       1       8       1       1
       8       1       1       8       1       1       8       1       1       8
       1       1       8       1       1       8       1       1       8       1
       1       8       1       1       8       1       1       8       1       1
       8       1       1       8       1       1       8       1       1       8
       1       1       8       1       1       8       1       1       8       1
       1       8       1       1       8       1       1       8       1       1
       8       1       1       8       1       1       8       1       1       8
       1       1       8       1       1       8       1       1       8       1
       1       8       1       1       8       1       1       8       1       1
       8       1       1       8       1       1       8       1       1       8
       1       1       8       1       1       8       1       1       8       1
       1       8       1       1       8       1       1       8       1       1
       8       1       1       8       1       1       8       1       1       8
       1       1       8       1       1       8       1       1       8       1
       1       8       1       1       8       1       1       8       1       1
       8       1       1       8       1       1       8       1       1       8
       1       1       8       1       1       8       1       1       8       1
       1       8       1       1       8       1       1       8       1       1
       8       1       1       8       1       1       8       1       1       8
       1       1       8       1       1       8       1       1       8       1
       1       8       1       1       8       1       1       8       1       1
       8       1       1       8       1       1       8       1       1       8
       1       1       8       1       1       8       1       1       8       1
       1       8       1       1       8       1       1       8       1       1
       8       1       1       8       1       1       8       1       1       8
       1       1       8       1       1       8       1       1       8       1
       1       8       1       1       8       1       1       8       1       1
       8       1       1       8       1       1       8       1       1       8
       1       1       8       1       1       8       1       1       8       1
       1       8       1       1       8       1       1       8       1       1
       8       1       1       8       1       1       8       1       1       8
       1       1       8       1       1       8       1       1       8       1
       1       8       1       1       8       1       1
%FLAG MASS                                                                      
%FORMAT(5E16.8)                                                                 
  1.40100000E+01  1.20100000E+01  1.60000000E+01  1.20100000E+01  1.40100000E+01
  1.60000000E+01  1.20100000E+01  1.40100000E+01  1.60000000E+01  1.20100000E+01
  1.60000000E+01  1.20100000E+01  1.60000000E+01  1.20100000E+01  1.60000000E+01
  1.20100000E+01  1.20100000E+01  1.20100000E+01  1.20100000E+01  1.20100000E+01
  1.20100000E+01  1.00800000E+00  1.00800000E+00  1.00800000E+00  1.00800000E+00
  1.00800000E+00  1.00800000E+00  1.00800000E+00  1.00800000E+00  1.00800000E+00
  1.00800000E+00  1.00800000E+00  1.00800000E+00  1.00800000E+00  1.00800000E+00
  1.00800000E+00  1.00800000E+00  1.00800000E+00  1.00800000E+00  6.54000000E+01
  2.29900000E+01  1.60000000E+01  1.00800000E+00  1.00800000E+00  1.60000000E+01
  1.00800000E+00  1.00800000E+00  1.60000000E+01  1.00800000E+00  1.00800000E+00
  1.60000000E+01  1.00800000E+00  1.00800000E+00  1.60000000E+01  1.00800000E+00
  1.00800000E+00  1.60000000E+01  1.00800000E+00  1.00800000E+00  1.60000000E+01
  1.00800000E+00  1.00800000E+00  1.60000000E+01  1.00800000E+00  1.00800000E+00
  1.60000000E+01  1.00800000E+00  1.00800000E+00  1.60000000E+01  1.00800000E+00
  1.00800000E+00  1.60000000E+01  1.00800000E+00  1.00800000E+00  1.60000000E+01
  1.00800000E+00  1.00800000E+00  1.60000000E+01  1.00800000E+00  1.00800000E+00
  1.60000000E+01  1.00800000E+00  1.00800000E+00  1.60000000E+01  1.00800000E+00
  1.00800000E+00  1.60000000E+01  1.00800000E+00  1.00800000E+00  1.60000000E+01
  1.00800000E+00  1.00800000E+00  1.60000000E+01  1.00800000E+00  1.00800000E+00
  1.60000000E+01  1.00800000E+00  1.00800000E+00  1.60000000E+01  1.00800000E+00
  1.00800000E+00  1.60000000E+01  1.00800000E+00  1.00800000E+00  1.60000000E+01
  1.00800000E+00  1.00800000E+00  1.60000000E+01  1.00800000E+00  1.00800000E+00
  1.60000000E+01  1.00800000E+00  1.00800000E+00  1.60000000E+01  1.00800000E+00
  1.00800000E+00  1.60000000E+01  1.00800000E+00  1.00800000E+00  1.60000000E+01
  1.00800000E+00  1.00800000E+00  1.60000000E+01  1.00800000E+00  1.00800000E+00
  1.60000000E+01  1.00800000E+00  1.00800000E+00  1.60000000E+01  1.00800000E+00
  1.00800000E+00  1.60000000E+01  1.00800000E+00  1.00800000E+00  1.60000000E+01
  1.00800000E+00  1.00800000E+00  1.60000000E+01  1.00800000E+00  1.00800000E+00
  1.60000000E+01  1.00800000E+00  1.00800000E+00  1.60000000E+01  1.00800000E+00
  1.00800000E+00  1.60000000E+01  1.00800000E+00  1.00800000E+00  1.60000000E+01
  1.00800000E+00  1.00800000E+00  1.60000000E+01  1.00800000E+00  1.00800000E+00
  1.60000000E+01  1.00800000E+00  1.00800000E+00  1.60000000E+01  1.00800000E+00
  1.00800000E+00  1.60000000E+01  1.00800000E+00  1.00800000E+00  1.60000000E+01
  1.00800000E+00  1.00800000E+00  1.60000000E+01  1.00800000E+00  1.00800000E+00
  1.60000000E+01  1.00800000E+00  1.00800000E+00  1.60000000E+01  1.00800000E+00
  1.00800000E+00  1.60000000E+01  1.00800000E+00  1.00800000E+00  1.60000000E+01
  1.00800000E+00  1.00800000E+00  1.60000000E+01  1.00800000E+00  1.00800000E+00
  1.60000000E+01  1.00800000E+00  1.00800000E+00  1.60000000E+01  1.00800000E+00
  1.00800000E+00  1.60000000E+01  1.00800000E+00  1.00800000E+00  1.60000000E+01
  1.00800000E+00  1.00800000E+00  1.60000000E+01  1.00800000E+00  1.00800000E+00
  1.60000000E+01  1.00800000E+00  1.00800000E+00  1.60000000E+01  1.00800000E+00
  1.00800000E+00  1.60000000E+01  1.00800000E+00  1.00800000E+00  1.60000000E+01
  1.00800000E+00  1.00800000E+00  1.60000000E+01  1.00800000E+00  1.00800000E+00
  1.60000000E+01  1.00800000E+00  1.00800000E+00  1.60000000E+01  1.00800000E+00
  1.00800000E+00  1.60000000E+01  1.00800000E+00  1.00800000E+00  1.60000000E+01
  1.00800000E+00  1.00800000E+00  1.60000000E+01  1.00800000E+00  1.00800000E+00
  1.60000000E+01  1.00800000E+00  1.00800000E+00  1.60000000E+01  1.00800000E+00
  1.00800000E+00  1.60000000E+01  1.00800000E+00  1.00800000E+00  1.60000000E+01
  1.00800000E+00  1.00800000E+00  1.60000000E+01  1.00800000E+00  1.00800000E+00
  1.60000000E+01  1.00800000E+00  1.00800000E+00  1.60000000E+01  1.00800000E+00
  1.00800000E+00  1.60000000E+01  1.00800000E+00  1.00800000E+00  1.60000000E+01
  1.00800000E+00  1.00800000E+00  1.60000000E+01  1.00800000E+00  1.00800000E+00
  1.60000000E+01  1.00800000E+00  1.00800000E+00  1.60000000E+01  1.00800000E+00
  1.00800000E+00  1.60000000E+01  1.00800000E+00  1.00800000E+00  1.60000000E+01
  1.00800000E+00  1.00800000E+00  1.60000000E+01  1.00800000E+00  1.00800000E+00
  1.60000000E+01  1.00800000E+00  1.00800000E+00  1.60000000E+01  1.00800000E+00
  1.00800000E+00  1.60000000E+01  1.00800000E+00  1.00800000E+00  1.60000000E+01
  1.00800000E+00  1.00800000E+00  1.60000000E+01  1.00800000E+00  1.00800000E+00
  1.60000000E+01  1.00800000E+00  1.00800000E+00  1.60000000E+01  1.00800000E+00
  1.00800000E+00  1.60000000E+01  1.00800000E+00  1.00800000E+00  1.60000000E+01
  1.00800000E+00  1.00800000E+00  1.60000000E+01  1.00800000E+00  1.00800000E+00
  1.60000000E+01  1.00800000E+00  1.00800000E+00  1.60000000E+01  1.00800000E+00
  1.00800000E+00  1.60000000E+01  1.00800000E+00  1.00800000E+00  1.60000000E+01
  1.00800000E+00  1.00800000E+00  1.60000000E+01  1.00800000E+00  1.00800000E+00
  1.60000000E+01  1.00800000E+00  1.00800000E+00  1.60000000E+01  1.00800000E+00
  1.00800000E+00  1.60000000E+01  1.00800000E+00  1.00800000E+00  1.60000000E+01
  1.00800000E+00  1.00800000E+00  1.60000000E+01  1.00800000E+00  1.00800000E+00
  1.60000000E+01  1.00800000E+00  1.00800000E+00  1.60000000E+01  1.00800000E+00
  1.00800000E+00  1.60000000E+01  1.00800000E+00  1.00800000E+00  1.60000000E+01
  1.00800000E+00  1.00800000E+00  1.60000000E+01  1.00800000E+00  1.00800000E+00
  1.60000000E+01  1.00800000E+00  1.00800000E+00  1.60000000E+01  1.00800000E+00
  1.00800000E+00  1.60000000E+01  1.00800000E+00  1.00800000E+00  1.60000000E+01
  1.00800000E+00  1.00800000E+00  1.60000000E+01  1.00800000E+00  1.00800000E+00
  1.60000000E+01  1.00800000E+00  1.00800000E+00  1.60000000E+01  1.00800000E+00
  1.00800000E+00  1.60000000E+01  1.00800000E+00  1.00800000E+00  1.60000000E+01
  1.00800000E+00  1.00800000E+00  1.60000000E+01  1.00800000E+00  1.00800000E+00
  1.60000000E+01  1.00800000E+00  1.00800000E+00  1.60000000E+01  1.00800000E+00
  1.00800000E+00  1.60000000E+01  1.00800000E+00  1.00800000E+00  1.60000000E+01
  1.00800000E+00  1.00800000E+00  1.60000000E+01  1.00800000E+00  1.00800000E+00
  1.60000000E+01  1.00800000E+00  1.00800000E+00  1.60000000E+01  1.00800000E+00
  1.00800000E+00  1.60000000E+01  1.00800000E+00  1.00800000E+00  1.60000000E+01
  1.00800000E+00  1.00800000E+00  1.60000000E+01  1.00800000E+00  1.00800000E+00
  1.60000000E+01  1.00800000E+00  1.00800000E+00  1.60000000E+01  1.00800000E+00
  1.00800000E+00  1.60000000E+01  1.00800000E+00  1.00800000E+00  1.60000000E+01
  1.00800000E+00  1.00800000E+00  1.60000000E+01  1.00800000E+00  1.00800000E+00
  1.60000000E+01  1.00800000E+00  1.00800000E+00  1.60000000E+01  1.00800000E+00
  1.00800000E+00  1.60000000E+01  1.00800000E+00  1.00800000E+00  1.60000000E+01
  1.00800000E+00  1.00800000E+00  1.60000000E+01  1.00800000E+00  1.00800000E+00
  1.60000000E+01  1.00800000E+00  1.00800000E+00  1.60000000E+01  1.00800000E+00
  1.00800000E+00  1.60000000E+01  1.00800000E+00  1.00800000E+00  1.60000000E+01
  1.00800000E+00  1.00800000E+00  1.60000000E+01  1.00800000E+00  1.00800000E+00
  1.60000000E+01  1.00800000E+00  1.00800000E+00  1.60000000E+01  1.00800000E+00
  1.00800000E+00  1.60000000E+01  1.00800000E+00  1.00800000E+00  1.60000000E+01
  1.00800000E+00  1.00800000E+00  1.60000000E+01  1.00800000E+00  1.00800000E+00
  1.60000000E+01  1.00800000E+00  1.00800000E+00  1.60000000E+01  1.00800000E+00
  1.00800000E+00  1.60000000E+01  1.00800000E+00  1.00800000E+00  1.60000000E+01
  1.00800000E+00  1.00800000E+00  1.60000000E+01  1.00800000E+00  1.00800000E+00
  1.60000000E+01  1.00800000E+00  1.00800000E+00  1.60000000E+01  1.00800000E+00
  1.00800000E+00  1.60000000E+01  1.00800000E+00  1.00800000E+00  1.60000000E+01
  1.00800000E+00  1.00800000E+00  1.60000000E+01  1.00800000E+00  1.00800000E+00
  1.60000000E+01  1.00800000E+00  1.00800000E+00  1.60000000E+01  1.00800000E+00
  1.00800000E+00  1.60000000E+01  1.00800000E+00  1.00800000E+00  1.60000000E+01
  1.00800000E+00  1.00800000E+00  1.60000000E+01  1.00800000E+00  1.00800000E+00
  1.60000000E+01  1.00800000E+00  1.00800000E+00  1.60000000E+01  1.00800000E+00
  1.00800000E+00  1.60000000E+01  1.00800000E+00  1.00800000E+00  1.60000000E+01
  1.00800000E+00  1.00800000E+00  1.60000000E+01  1.00800000E+00  1.00800000E+00
  1.60000000E+01  1.00800000E+00  1.00800000E+00  1.60000000E+01  1.00800000E+00
  1.00800000E+00  1.60000000E+01  1.00800000E+00  1.00800000E+00  1.60000000E+01
  1.00800000E+00  1.00800000E+00  1.60000000E+01  1.00800000E+00  1.00800000E+00
  1.60000000E+01  1.00800000E+00  1.00800000E+00  1.60000000E+01  1.00800000E+00
  1.00800000E+00  1.60000000E+01  1.00800000E+00  1.00800000E+00  1.60000000E+01
  1.00800000E+00  1.00800000E+00  1.60000000E+01  1.00800000E+00  1.00800000E+00
  1.60000000E+01  1.00800000E+00  1.00800000E+00  1.60000000E+01  1.00800000E+00
  1.00800000E+00  1.60000000E+01  1.00800000E+00  1.00800000E+00  1.60000000E+01
  1.00800000E+00  1.00800000E+00  1.60000000E+01  1.00800000E+00  1.00800000E+00
  1.60000000E+01  1.00800000E+00  1.00800000E+00  1.60000000E+01  1.00800000E+00
  1.00800000E+00  1.60000000E+01  1.00800000E+00  1.00800000E+00  1.60000000E+01
  1.00800000E+00  1.00800000E+00  1.60000000E+01  1.00800000E+00  1.00800000E+00
  1.60000000E+01  1.00800000E+00  1.00800000E+00  1.60000000E+01  1.00800000E+00
  1.00800000E+00  1.60000000E+01  1.00800000E+00  1.00800000E+00  1.60000000E+01
  1.00800000E+00  1.00800000E+00  1.60000000E+01  1.00800000E+00  1.00800000E+00
  1.60000000E+01  1.00800000E+00  1.00800000E+00  1.60000000E+01  1.00800000E+00
  1.00800000E+00  1.60000000E+01  1.00800000E+00  1.00800000E+00  1.60000000E+01
  1.00800000E+00  1.00800000E+00  1.60000000E+01  1.00800000E+00  1.00800000E+00
  1.60000000E+01  1.00800000E+00  1.00800000E+00  1.60000000E+01  1.00800000E+00
  1.00800000E+00  1.60000000E+01  1.00800000E+00  1.00800000E+00  1.60000000E+01
  1.00800000E+00  1.00800000E+00  1.60000000E+01  1.00800000E+00  1.00800000E+00
  1.60000000E+01  1.00800000E+00  1.00800000E+00  1.60000000E+01  1.00800000E+00
  1.00800000E+00  1.60000000E+01  1.00800000E+00  1.00800000E+00  1.60000000E+01
  1.00800000E+00  1.00800000E+00  1.60000000E+01  1.00800000E+00  1.00800000E+00
  1.60000000E+01  1.00800000E+00  1.00800000E+00  1.60000000E+01  1.00800000E+00
  1.00800000E+00  1.60000000E+01  1.00800000E+00  1.00800000E+00  1.60000000E+01
  1.00800000E+00  1.00800000E+00  1.60000000E+01  1.00800000E+00  1.00800000E+00
  1.60000000E+01  1.00800000E+00  1.00800000E+00  1.60000000E+01  1.00800000E+00
  1.00800000E+00  1.60000000E+01  1.00800000E+00  1.00800000E+00  1.60000000E+01
  1.00800000E+00  1.00800000E+00  1.60000000E+01  1.00800000E+00  1.00800000E+00
  1.60000000E+01  1.00800000E+00  1.00800000E+00  1.60000000E+01  1.00800000E+00
  1.00800000E+00  1.60000000E+01  1.00800000E+00  1.00800000E+00  1.60000000E+01
  1.00800000E+00  1.00800000E+00  1.60000000E+01  1.00800000E+00  1.00800000E+00
  1.60000000E+01  1.00800000E+00  1.00800000E+00  1.60000000E+01  1.00800000E+00
  1.00800000E+00  1.60000000E+01  1.00800000E+00  1.00800000E+00  1.60000000E+01
  1.00800000E+00  1.00800000E+00  1.60000000E+01  1.00800000E+00  1.00800000E+00
  1.60000000E+01  1.00800000E+00  1.00800000E+00  1.60000000E+01  1.00800000E+00
  1.00800000E+00  1.60000000E+01  1.00800000E+00  1.00800000E+00  1.60000000E+01
  1.00800000E+00  1.00800000E+00  1.60000000E+01  1.00800000E+00  1.00800000E+00
  1.60000000E+01  1.00800000E+00  1.00800000E+00  1.60000000E+01  1.00800000E+00
  1.00800000E+00  1.60000000E+01  1.00800000E+00  1.00800000E+00  1.60000000E+01
  1.00800000E+00  1.00800000E+00  1.60000000E+01  1.00800000E+00  1.00800000E+00
  1.60000000E+01  1.00800000E+00  1.00800000E+00  1.60000000E+01  1.00800000E+00
  1.00800000E+00  1.60000000E+01  1.00800000E+00  1.00800000E+00  1.60000000E+01
  1.00800000E+00  1.00800000E+00  1.60000000E+01  1.00800000E+00  1.00800000E+00
  1.60000000E+01  1.00800000E+00  1.00800000E+00  1.60000000E+01  1.00800000E+00
  1.00800000E+00  1.60000000E+01  1.00800000E+00  1.00800000E+00  1.60000000E+01
  1.00800000E+00  1.00800000E+00  1.60000000E+01  1.00800000E+00  1.00800000E+00
  1.60000000E+01  1.00800000E+00  1.00800000E+00  1.60000000E+01  1.00800000E+00
  1.00800000E+00  1.60000000E+01  1.00800000E+00  1.00800000E+00  1.60000000E+01
  1.00800000E+00  1.00800000E+00  1.60000000E+01  1.00800000E+00  1.00800000E+00
  1.60000000E+01  1.00800000E+00  1.00800000E+00  1.60000000E+01  1.00800000E+00
  1.00800000E+00  1.60000000E+01  1.00800000E+00  1.00800000E+00  1.60000000E+01
  1.00800000E+00  1.00800000E+00  1.60000000E+01  1.00800000E+00  1.00800000E+00
  1.60000000E+01  1.00800000E+00  1.00800000E+00  1.60000000E+01  1.00800000E+00
  1.00800000E+00  1.60000000E+01  1.00800000E+00  1.00800000E+00  1.60000000E+01
  1.00800000E+00  1.00800000E+00  1.60000000E+01  1.00800000E+00  1.00800000E+00
  1.60000000E+01  1.00800000E+00  1.00800000E+00  1.60000000E+01  1.00800000E+00
  1.00800000E+00  1.60000000E+01  1.00800000E+00  1.00800000E+00  1.60000000E+01
  1.00800000E+00  1.00800000E+00  1.60000000E+01  1.00800000E+00  1.00800000E+00
  1.60000000E+01  1.00800000E+00  1.00800000E+00  1.60000000E+01  1.00800000E+00
  1.00800000E+00  1.60000000E+01  1.00800000E+00  1.00800000E+00  1.60000000E+01
  1.00800000E+00  1.00800000E+00  1.60000000E+01  1.00800000E+00  1.00800000E+00
  1.60000000E+01  1.00800000E+00  1.00800000E+00  1.60000000E+01  1.00800000E+00
  1.00800000E+00  1.60000000E+01  1.00800000E+00  1.00800000E+00  1.60000000E+01
  1.00800000E+00  1.00800000E+00  1.60000000E+01  1.00800000E+00  1.00800000E+00
  1.60000000E+01  1.00800000E+00  1.00800000E+00  1.60000000E+01  1.00800000E+00
  1.00800000E+00  1.60000000E+01  1.00800000E+00  1.00800000E+00  1.60000000E+01
  1.00800000E+00  1.00800000E+00  1.60000000E+01  1.00800000E+00  1.00800000E+00
  1.60000000E+01  1.00800000E+00  1.00800000E+00  1.60000000E+01  1.00800000E+00
  1.00800000E+00  1.60000000E+01  1.00800000E+00  1.00800000E+00  1.60000000E+01
  1.00800000E+00  1.00800000E+00  1.60000000E+01  1.00800000E+00  1.00800000E+00
  1.60000000E+01  1.00800000E+00  1.00800000E+00  1.60000000E+01  1.00800000E+00
  1.00800000E+00  1.60000000E+01  1.00800000E+00  1.00800000E+00  1.60000000E+01
  1.00800000E+00  1.00800000E+00  1.60000000E+01  1.00800000E+00  1.00800000E+00
  1.60000000E+01  1.00800000E+00  1.00800000E+00  1.60000000E+01  1.00800000E+00
  1.00800000E+00  1.60000000E+01  1.00800000E+00  1.00800000E+00  1.60000000E+01
  1.00800000E+00  1.00800000E+00  1.60000000E+01  1.00800000E+00  1.00800000E+00
  1.60000000E+01  1.00800000E+00  1.00800000E+00  1.60000000E+01  1.00800000E+00
  1.00800000E+00  1.60000000E+01  1.00800000E+00  1.00800000E+00  1.60000000E+01
  1.00800000E+00  1.00800000E+00  1.60000000E+01  1.00800000E+00  1.00800000E+00
  1.60000000E+01  1.00800000E+00  1.00800000E+00  1.60000000E+01  1.00800000E+00
  1.00800000E+00  1.60000000E+01  1.00800000E+00  1.00800000E+00  1.60000000E+01
  1.00800000E+00  1.00800000E+00  1.60000000E+01  1.00800000E+00  1.00800000E+00
  1.60000000E+01  1.00800000E+00  1.00800000E+00  1.60000000E+01  1.00800000E+00
  1.00800000E+00  1.60000000E+01  1.00800000E+00  1.00800000E+00  1.60000000E+01
  1.00800000E+00  1.00800000E+00  1.60000000E+01  1.00800000E+00  1.00800000E+00
  1.60000000E+01  1.00800000E+00  1.00800000E+00  1.60000000E+01  1.00800000E+00
  1.00800000E+00  1.60000000E+01  1.00800000E+00  1.00800000E+00  1.60000000E+01
  1.00800000E+00  1.00800000E+00  1.60000000E+01  1.00800000E+00  1.00800000E+00
  1.60000000E+01  1.00800000E+00  1.00800000E+00  1.60000000E+01  1.00800000E+00
  1.00800000E+00  1.60000000E+01  1.00800000E+00  1.00800000E+00  1.60000000E+01
  1.00800000E+00  1.00800000E+00  1.60000000E+01  1.00800000E+00  1.00800000E+00
  1.60000000E+01  1.00800000E+00  1.00800000E+00  1.60000000E+01  1.00800000E+00
  1.00800000E+00  1.60000000E+01  1.00800000E+00  1.00800000E+00  1.60000000E+01
  1.00800000E+00  1.00800000E+00  1.60000000E+01  1.00800000E+00  1.00800000E+00
  1.60000000E+01  1.00800000E+00  1.00800000E+00  1.60000000E+01  1.00800000E+00
  1.00800000E+00  1.60000000E+01  1.00800000E+00  1.00800000E+00  1.60000000E+01
  1.00800000E+00  1.00800000E+00  1.60000000E+01  1.00800000E+00  1.00800000E+00
  1.60000000E+01  1.00800000E+00  1.00800000E+00  1.60000000E+01  1.00800000E+00
  1.00800000E+00  1.60000000E+01  1.00800000E+00  1.00800000E+00  1.60000000E+01
  1.00800000E+00  1.00800000E+00  1.60000000E+01  1.00800000E+00  1.00800000E+00
  1.60000000E+01  1.00800000E+00  1.00800000E+00  1.60000000E+01  1.00800000E+00
  1.00800000E+00  1.60000000E+01  1.00800000E+00  1.00800000E+00  1.60000000E+01
  1.00800000E+00  1.00800000E+00  1.60000000E+01  1.00800000E+00  1.00800000E+00
  1.60000000E+01  1.00800000E+00  1.00800000E+00  1.60000000E+01  1.00800000E+00
  1.00800000E+00  1.60000000E+01  1.00800000E+00  1.00800000E+00  1.60000000E+01
  1.00800000E+00  1.00800000E+00  1.60000000E+01  1.00800000E+00  1.00800000E+00
  1.60000000E+01  1.00800000E+00  1.00800000E+00  1.60000000E+01  1.00800000E+00
  1.00800000E+00  1.60000000E+01  1.00800000E+00  1.00800000E+00  1.60000000E+01
  1.00800000E+00  1.00800000E+00  1.60000000E+01  1.00800000E+00  1.00800000E+00
  1.60000000E+01  1.00800000E+00  1.00800000E+00  1.60000000E+01  1.00800000E+00
  1.00800000E+00  1.60000000E+01  1.00800000E+00  1.00800000E+00  1.60000000E+01
  1.00800000E+00  1.00800000E+00  1.60000000E+01  1.00800000E+00  1.00800000E+00
  1.60000000E+01  1.00800000E+00  1.00800000E+00  1.60000000E+01  1.00800000E+00
  1.00800000E+00  1.60000000E+01  1.00800000E+00  1.00800000E+00  1.60000000E+01
  1.00800000E+00  1.00800000E+00  1.60000000E+01  1.00800000E+00  1.00800000E+00
  1.60000000E+01  1.00800000E+00  1.00800000E+00  1.60000000E+01  1.00800000E+00
  1.00800000E+00  1.60000000E+01  1.00800000E+00  1.00800000E+00  1.60000000E+01
  1.00800000E+00  1.00800000E+00  1.60000000E+01  1.00800000E+00  1.00800000E+00
  1.60000000E+01  1.00800000E+00  1.00800000E+00  1.60000000E+01  1.00800000E+00
  1.00800000E+00  1.60000000E+01  1.00800000E+00  1.00800000E+00  1.60000000E+01
  1.00800000E+00  1.00800000E+00  1.60000000E+01  1.00800000E+00  1.00800000E+00
  1.60000000E+01  1.00800000E+00  1.00800000E+00  1.60000000E+01  1.00800000E+00
  1.00800000E+00  1.60000000E+01  1.00800000E+00  1.00800000E+00  1.60000000E+01
  1.00800000E+00  1.00800000E+00  1.60000000E+01  1.00800000E+00  1.00800000E+00
  1.60000000E+01  1.00800000E+00  1.00800000E+00  1.60000000E+01  1.00800000E+00
  1.00800000E+00  1.60000000E+01  1.00800000E+00  1.00800000E+00  1.60000000E+01
  1.00800000E+00  1.00800000E+00  1.60000000E+01  1.00800000E+00  1.00800000E+00
  1.60000000E+01  1.00800000E+00  1.00800000E+00  1.60000000E+01  1.00800000E+00
  1.00800000E+00  1.60000000E+01  1.00800000E+00  1.00800000E+00  1.60000000E+01
  1.00800000E+00  1.00800000E+00  1.60000000E+01  1.00800000E+00  1.00800000E+00
  1.60000000E+01  1.00800000E+00  1.00800000E+00  1.60000000E+01  1.00800000E+00
  1.00800000E+00  1.60000000E+01  1.00800000E+00  1.00800000E+00  1.60000000E+01
  1.00800000E+00  1.00800000E+00  1.60000000E+01  1.00800000E+00  1.00800000E+00
  1.60000000E+01  1.00800000E+00  1.00800000E+00  1.60000000E+01  1.00800000E+00
  1.00800000E+00  1.60000000E+01  1.00800000E+00  1.00800000E+00  1.60000000E+01
  1.00800000E+00  1.00800000E+00  1.60000000E+01  1.00800000E+00  1.00800000E+00
  1.60000000E+01  1.00800000E+00  1.00800000E+00  1.60000000E+01  1.00800000E+00
  1.00800000E+00  1.60000000E+01  1.00800000E+00  1.00800000E+00  1.60000000E+01
  1.00800000E+00  1.00800000E+00  1.60000000E+01  1.00800000E+00  1.00800000E+00
  1.60000000E+01  1.00800000E+00  1.00800000E+00  1.60000000E+01  1.00800000E+00
  1.00800000E+00  1.60000000E+01  1.00800000E+00  1.00800000E+00  1.60000000E+01
  1.00800000E+00  1.00800000E+00  1.60000000E+01  1.00800000E+00  1.00800000E+00
  1.60000000E+01  1.00800000E+00  1.00800000E+00  1.60000000E+01  1.00800000E+00
  1.00800000E+00  1.60000000E+01  1.00800000E+00  1.00800000E+00  1.60000000E+01
  1.00800000E+00  1.00800000E+00  1.60000000E+01  1.00800000E+00  1.00800000E+00
  1.60000000E+01  1.00800000E+00  1.00800000E+00  1.60000000E+01  1.00800000E+00
  1.00800000E+00  1.60000000E+01  1.00800000E+00  1.00800000E+00  1.60000000E+01
  1.00800000E+00  1.00800000E+00  1.60000000E+01  1.00800000E+00  1.00800000E+00
  1.60000000E+01  1.00800000E+00  1.00800000E+00  1.60000000E+01  1.00800000E+00
  1.00800000E+00  1.60000000E+01  1.00800000E+00  1.00800000E+00  1.60000000E+01
  1.00800000E+00  1.00800000E+00  1.60000000E+01  1.00800000E+00  1.00800000E+00
  1.60000000E+01  1.00800000E+00  1.00800000E+00  1.60000000E+01  1.00800000E+00
  1.00800000E+00  1.60000000E+01  1.00800000E+00  1.00800000E+00  1.60000000E+01
  1.00800000E+00  1.00800000E+00  1.60000000E+01  1.00800000E+00  1.00800000E+00
  1.60000000E+01  1.00800000E+00  1.00800000E+00  1.60000000E+01  1.00800000E+00
  1.00800000E+00  1.60000000E+01  1.00800000E+00  1.00800000E+00  1.60000000E+01
  1.00800000E+00  1.00800000E+00  1.60000000E+01  1.00800000E+00  1.00800000E+00
  1.60000000E+01  1.00800000E+00  1.00800000E+00  1.60000000E+01  1.00800000E+00
  1.00800000E+00  1.60000000E+01  1.00800000E+00  1.00800000E+00  1.60000000E+01
  1.00800000E+00  1.00800000E+00  1.60000000E+01  1.00800000E+00  1.00800000E+00
  1.60000000E+01  1.00800000E+00  1.00800000E+00  1.60000000E+01  1.00800000E+00
  1.00800000E+00  1.60000000E+01  1.00800000E+00  1.00800000E+00  1.60000000E+01
  1.00800000E+00  1.00800000E+00  1.60000000E+01  1.00800000E+00  1.00800000E+00
  1.60000000E+01  1.00800000E+00  1.00800000E+00  1.60000000E+01  1.00800000E+00
  1.00800000E+00  1.60000000E+01  1.00800000E+00  1.00800000E+00  1.60000000E+01
  1.00800000E+00  1.00800000E+00  1.60000000E+01  1.00800000E+00  1.00800000E+00
  1.60000000E+01  1.00800000E+00  1.00800000E+00  1.60000000E+01  1.00800000E+00
  1.00800000E+00  1.60000000E+01  1.00800000E+00  1.00800000E+00  1.60000000E+01
  1.00800000E+00  1.00800000E+00  1.60000000E+01  1.00800000E+00  1.00800000E+00
  1.60000000E+01  1.00800000E+00  1.00800000E+00  1.60000000E+01  1.00800000E+00
  1.00800000E+00  1.60000000E+01  1.00800000E+00  1.00800000E+00  1.60000000E+01
  1.00800000E+00  1.00800000E+00  1.60000000E+01  1.00800000E+00  1.00800000E+00
  1.60000000E+01  1.00800000E+00  1.00800000E+00  1.60000000E+01  1.00800000E+00
  1.00800000E+00  1.60000000E+01  1.00800000E+00  1.00800000E+00  1.60000000E+01
  1.00800000E+00  1.00800000E+00  1.60000000E+01  1.00800000E+00  1.00800000E+00
  1.60000000E+01  1.00800000E+00  1.00800000E+00  1.60000000E+01  1.00800000E+00
  1.00800000E+00  1.60000000E+01  1.00800000E+00  1.00800000E+00  1.60000000E+01
  1.00800000E+00  1.00800000E+00  1.60000000E+01  1.00800000E+00  1.00800000E+00
  1.60000000E+01  1.00800000E+00  1.00800000E+00  1.60000000E+01  1.00800000E+00
  1.00800000E+00  1.60000000E+01  1.00800000E+00  1.00800000E+00  1.60000000E+01
  1.00800000E+00  1.00800000E+00  1.60000000E+01  1.00800000E+00  1.00800000E+00
  1.60000000E+01  1.00800000E+00  1.00800000E+00  1.60000000E+01  1.00800000E+00
  1.00800000E+00  1.60000000E+01  1.00800000E+00  1.00800000E+00  1.60000000E+01
  1.00800000E+00  1.00800000E+00  1.60000000E+01  1.00800000E+00  1.00800000E+00
  1.60000000E+01  1.00800000E+00  1.00800000E+00  1.60000000E+01  1.00800000E+00
  1.00800000E+00  1.60000000E+01  1.00800000E+00  1.00800000E+00  1.60000000E+01
  1.00800000E+00  1.00800000E+00  1.60000000E+01  1.00800000E+00  1.00800000E+00
  1.60000000E+01  1.00800000E+00  1.00800000E+00  1.60000000E+01  1.00800000E+00
  1.00800000E+00  1.60000000E+01  1.00800000E+00  1.00800000E+00  1.60000000E+01
  1.00800000E+00  1.00800000E+00  1.60000000E+01  1.00800000E+00  1.00800000E+00
  1.60000000E+01  1.00800000E+00  1.00800000E+00  1.60000000E+01  1.00800000E+00
  1.00800000E+00  1.60000000E+01  1.00800000E+00  1.00800000E+00  1.60000000E+01
  1.00800000E+00  1.00800000E+00  1.60000000E+01  1.00800000E+00  1.00800000E+00
  1.60000000E+01  1.00800000E+00  1.00800000E+00  1.60000000E+01  1.00800000E+00
  1.00800000E+00  1.60000000E+01  1.00800000E+00  1.00800000E+00  1.60000000E+01
  1.00800000E+00  1.00800000E+00  1.60000000E+01  1.00800000E+00  1.00800000E+00
  1.60000000E+01  1.00800000E+00  1.00800000E+00  1.60000000E+01  1.00800000E+00
  1.00800000E+00  1.60000000E+01  1.00800000E+00  1.00800000E+00  1.60000000E+01
  1.00800000E+00  1.00800000E+00  1.60000000E+01  1.00800000E+00  1.00800000E+00
  1.60000000E+01  1.00800000E+00  1.00800000E+00  1.60000000E+01  1.00800000E+00
  1.00800000E+00  1.60000000E+01  1.00800000E+00  1.00800000E+00  1.60000000E+01
  1.00800000E+00  1.00800000E+00  1.60000000E+01  1.00800000E+00  1.00800000E+00
  1.60000000E+01  1.00800000E+00  1.00800000E+00  1.60000000E+01  1.00800000E+00
  1.00800000E+00  1.60000000E+01  1.00800000E+00  1.00800000E+00  1.60000000E+01
  1.00800000E+00  1.00800000E+00  1.60000000E+01  1.00800000E+00  1.00800000E+00
  1.60000000E+01  1.00800000E+00  1.00800000E+00  1.60000000E+01  1.00800000E+00
  1.00800000E+00  1.60000000E+01  1.00800000E+00  1.00800000E+00  1.60000000E+01
  1.00800000E+00  1.00800000E+00  1.60000000E+01  1.00800000E+00  1.00800000E+00
  1.60000000E+01  1.00800000E+00  1.00800000E+00  1.60000000E+01  1.00800000E+00
  1.00800000E+00  1.60000000E+01  1.00800000E+00  1.00800000E+00  1.60000000E+01
  1.00800000E+00  1.00800000E+00  1.60000000E+01  1.00800000E+00  1.00800000E+00
  1.60000000E+01  1.00800000E+00  1.00800000E+00  1.60000000E+01  1.00800000E+00
  1.00800000E+00  1.60000000E+01  1.00800000E+00  1.00800000E+00  1.60000000E+01
  1.00800000E+00  1.00800000E+00  1.60000000E+01  1.00800000E+00  1.00800000E+00
  1.60000000E+01  1.00800000E+00  1.00800000E+00  1.60000000E+01  1.00800000E+00
  1.00800000E+00  1.60000000E+01  1.00800000E+00  1.00800000E+00  1.60000000E+01
  1.00800000E+00  1.00800000E+00  1.60000000E+01  1.00800000E+00  1.00800000E+00
  1.60000000E+01  1.00800000E+00  1.00800000E+00  1.60000000E+01  1.00800000E+00
  1.00800000E+00  1.60000000E+01  1.00800000E+00  1.00800000E+00  1.60000000E+01
  1.00800000E+00  1.00800000E+00  1.60000000E+01  1.00800000E+00  1.00800000E+00
  1.60000000E+01  1.00800000E+00  1.00800000E+00  1.60000000E+01  1.00800000E+00
  1.00800000E+00  1.60000000E+01  1.00800000E+00  1.00800000E+00  1.60000000E+01
  1.00800000E+00  1.00800000E+00  1.60000000E+01  1.00800000E+00  1.00800000E+00
  1.60000000E+01  1.00800000E+00  1.00800000E+00  1.60000000E+01  1.00800000E+00
  1.00800000E+00  1.60000000E+01  1.00800000E+00  1.00800000E+00  1.60000000E+01
  1.00800000E+00  1.00800000E+00  1.60000000E+01  1.00800000E+00  1.00800000E+00
  1.60000000E+01  1.00800000E+00  1.00800000E+00  1.60000000E+01  1.00800000E+00
  1.00800000E+00  1.60000000E+01  1.00800000E+00  1.00800000E+00  1.60000000E+01
  1.00800000E+00  1.00800000E+00  1.60000000E+01  1.00800000E+00  1.00800000E+00
  1.60000000E+01  1.00800000E+00  1.00800000E+00  1.60000000E+01  1.00800000E+00
  1.00800000E+00  1.60000000E+01  1.00800000E+00  1.00800000E+00  1.60000000E+01
  1.00800000E+00  1.00800000E+00  1.60000000E+01  1.00800000E+00  1.00800000E+00
  1.60000000E+01  1.00800000E+00  1.00800000E+00  1.60000000E+01  1.00800000E+00
  1.00800000E+00  1.60000000E+01  1.00800000E+00  1.00800000E+00  1.60000000E+01
  1.00800000E+00  1.00800000E+00  1.60000000E+01  1.00800000E+00  1.00800000E+00
  1.60000000E+01  1.00800000E+00  1.00800000E+00  1.60000000E+01  1.00800000E+00
  1.00800000E+00  1.60000000E+01  1.00800000E+00  1.00800000E+00  1.60000000E+01
  1.00800000E+00  1.00800000E+00  1.60000000E+01  1.00800000E+00  1.00800000E+00
  1.60000000E+01  1.00800000E+00  1.00800000E+00  1.60000000E+01  1.00800000E+00
  1.00800000E+00  1.60000000E+01  1.00800000E+00  1.00800000E+00  1.60000000E+01
  1.00800000E+00  1.00800000E+00  1.60000000E+01  1.00800000E+00  1.00800000E+00
  1.60000000E+01  1.00800000E+00  1.00800000E+00  1.60000000E+01  1.00800000E+00
  1.00800000E+00  1.60000000E+01  1.00800000E+00  1.00800000E+00  1.60000000E+01
  1.00800000E+00  1.00800000E+00  1.60000000E+01  1.00800000E+00  1.00800000E+00
  1.60000000E+01  1.00800000E+00  1.00800000E+00  1.60000000E+01  1.00800000E+00
  1.00800000E+00  1.60000000E+01  1.00800000E+00  1.00800000E+00  1.60000000E+01
  1.00800000E+00  1.00800000E+00  1.60000000E+01  1.00800000E+00  1.00800000E+00
  1.60000000E+01  1.00800000E+00  1.00800000E+00  1.60000000E+01  1.00800000E+00
  1.00800000E+00  1.60000000E+01  1.00800000E+00  1.00800000E+00  1.60000000E+01
  1.00800000E+00  1.00800000E+00  1.60000000E+01  1.00800000E+00  1.00800000E+00
  1.60000000E+01  1.00800000E+00  1.00800000E+00  1.60000000E+01  1.00800000E+00
  1.00800000E+00  1.60000000E+01  1.00800000E+00  1.00800000E+00  1.60000000E+01
  1.00800000E+00  1.00800000E+00  1.60000000E+01  1.00800000E+00  1.00800000E+00
  1.60000000E+01  1.00800000E+00  1.00800000E+00  1.60000000E+01  1.00800000E+00
  1.00800000E+00  1.60000000E+01  1.00800000E+00  1.00800000E+00  1.60000000E+01
  1.00800000E+00  1.00800000E+00  1.60000000E+01  1.00800000E+00  1.00800000E+00
  1.60000000E+01  1.00800000E+00  1.00800000E+00  1.60000000E+01  1.00800000E+00
  1.00800000E+00  1.60000000E+01  1.00800000E+00  1.00800000E+00  1.60000000E+01
  1.00800000E+00  1.00800000E+00  1.60000000E+01  1.00800000E+00  1.00800000E+00
  1.60000000E+01  1.00800000E+00  1.00800000E+00  1.60000000E+01  1.00800000E+00
  1.00800000E+00  1.60000000E+01  1.00800000E+00  1.00800000E+00  1.60000000E+01
  1.00800000E+00  1.00800000E+00  1.60000000E+01  1.00800000E+00  1.00800000E+00
  1.60000000E+01  1.00800000E+00  1.00800000E+00  1.60000000E+01  1.00800000E+00
  1.00800000E+00  1.60000000E+01  1.00800000E+00  1.00800000E+00  1.60000000E+01
  1.00800000E+00  1.00800000E+00  1.60000000E+01  1.00800000E+00  1.00800000E+00
  1.60000000E+01  1.00800000E+00  1.00800000E+00  1.60000000E+01  1.00800000E+00
  1.00800000E+00  1.60000000E+01  1.00800000E+00  1.00800000E+00  1.60000000E+01
  1.00800000E+00  1.00800000E+00  1.60000000E+01  1.00800000E+00  1.00800000E+00
  1.60000000E+01  1.00800000E+00  1.00800000E+00  1.60000000E+01  1.00800000E+00
  1.00800000E+00  1.60000000E+01  1.00800000E+00  1.00800000E+00  1.60000000E+01
  1.00800000E+00  1.00800000E+00  1.60000000E+01  1.00800000E+00  1.00800000E+00
  1.60000000E+01  1.00800000E+00  1.00800000E+00  1.60000000E+01  1.00800000E+00
  1.00800000E+00  1.60000000E+01  1.00800000E+00  1.00800000E+00  1.60000000E+01
  1.00800000E+00  1.00800000E+00  1.60000000E+01  1.00800000E+00  1.00800000E+00
  1.60000000E+01  1.00800000E+00  1.00800000E+00  1.60000000E+01  1.00800000E+00
  1.00800000E+00  1.60000000E+01  1.00800000E+00  1.00800000E+00  1.60000000E+01
  1.00800000E+00  1.00800000E+00  1.60000000E+01  1.00800000E+00  1.00800000E+00
  1.60000000E+01  1.00800000E+00  1.00800000E+00  1.60000000E+01  1.00800000E+00
  1.00800000E+00  1.60000000E+01  1.00800000E+00  1.00800000E+00  1.60000000E+01
  1.00800000E+00  1.00800000E+00  1.60000000E+01  1.00800000E+00  1.00800000E+00
  1.60000000E+01  1.00800000E+00  1.00800000E+00  1.60000000E+01  1.00800000E+00
  1.00800000E+00  1.60000000E+01  1.00800000E+00  1.00800000E+00  1.60000000E+01
  1.00800000E+00  1.00800000E+00  1.60000000E+01  1.00800000E+00  1.00800000E+00
  1.60000000E+01  1.00800000E+00  1.00800000E+00  1.60000000E+01  1.00800000E+00
  1.00800000E+00  1.60000000E+01  1.00800000E+00  1.00800000E+00  1.60000000E+01
  1.00800000E+00  1.00800000E+00  1.60000000E+01  1.00800000E+00  1.00800000E+00
  1.60000000E+01  1.00800000E+00  1.00800000E+00  1.60000000E+01  1.00800000E+00
  1.00800000E+00  1.60000000E+01  1.00800000E+00  1.00800000E+00  1.60000000E+01
  1.00800000E+00  1.00800000E+00  1.60000000E+01  1.00800000E+00  1.00800000E+00
  1.60000000E+01  1.00800000E+00  1.00800000E+00  1.60000000E+01  1.00800000E+00
  1.00800000E+00  1.60000000E+01  1.00800000E+00  1.00800000E+00  1.60000000E+01
  1.00800000E+00  1.00800000E+00  1.60000000E+01  1.00800000E+00  1.00800000E+00
  1.60000000E+01  1.00800000E+00  1.00800000E+00  1.60000000E+01  1.00800000E+00
  1.00800000E+00  1.60000000E+01  1.00800000E+00  1.00800000E+00  1.60000000E+01
  1.00800000E+00  1.00800000E+00  1.60000000E+01  1.00800000E+00  1.00800000E+00
  1.60000000E+01  1.00800000E+00  1.00800000E+00  1.60000000E+01  1.00800000E+00
  1.00800000E+00  1.60000000E+01  1.00800000E+00  1.00800000E+00  1.60000000E+01
  1.00800000E+00  1.00800000E+00  1.60000000E+01  1.00800000E+00  1.00800000E+00
  1.60000000E+01  1.00800000E+00  1.00800000E+00  1.60000000E+01  1.00800000E+00
  1.00800000E+00  1.60000000E+01  1.00800000E+00  1.00800000E+00  1.60000000E+01
  1.00800000E+00  1.00800000E+00  1.60000000E+01  1.00800000E+00  1.00800000E+00
  1.60000000E+01  1.00800000E+00  1.00800000E+00  1.60000000E+01  1.00800000E+00
  1.00800000E+00  1.60000000E+01  1.00800000E+00  1.00800000E+00  1.60000000E+01
  1.00800000E+00  1.00800000E+00  1.60000000E+01  1.00800000E+00  1.00800000E+00
  1.60000000E+01  1.00800000E+00  1.00800000E+00  1.60000000E+01  1.00800000E+00
  1.00800000E+00  1.60000000E+01  1.00800000E+00  1.00800000E+00  1.60000000E+01
  1.00800000E+00  1.00800000E+00  1.60000000E+01  1.00800000E+00  1.00800000E+00
  1.60000000E+01  1.00800000E+00  1.00800000E+00  1.60000000E+01  1.00800000E+00
  1.00800000E+00  1.60000000E+01  1.00800000E+00  1.00800000E+00  1.60000000E+01
  1.00800000E+00  1.00800000E+00  1.60000000E+01  1.00800000E+00  1.00800000E+00
  1.60000000E+01  1.00800000E+00  1.00800000E+00  1.60000000E+01  1.00800000E+00
  1.00800000E+00  1.60000000E+01  1.00800000E+00  1.00800000E+00  1.60000000E+01
  1.00800000E+00  1.00800000E+00  1.60000000E+01  1.00800000E+00  1.00800000E+00
  1.60000000E+01  1.00800000E+00  1.00800000E+00  1.60000000E+01  1.00800000E+00
  1.00800000E+00  1.60000000E+01  1.00800000E+00  1.00800000E+00  1.60000000E+01
  1.00800000E+00  1.00800000E+00  1.60000000E+01  1.00800000E+00  1.00800000E+00
  1.60000000E+01  1.00800000E+00  1.00800000E+00  1.60000000E+01  1.00800000E+00
  1.00800000E+00  1.60000000E+01  1.00800000E+00  1.00800000E+00  1.60000000E+01
  1.00800000E+00  1.00800000E+00  1.60000000E+01  1.00800000E+00  1.00800000E+00
  1.60000000E+01  1.00800000E+00  1.00800000E+00  1.60000000E+01  1.00800000E+00
  1.00800000E+00  1.60000000E+01  1.00800000E+00  1.00800000E+00  1.60000000E+01
  1.00800000E+00  1.00800000E+00  1.60000000E+01  1.00800000E+00  1.00800000E+00
  1.60000000E+01  1.00800000E+00  1.00800000E+00  1.60000000E+01  1.00800000E+00
  1.00800000E+00  1.60000000E+01  1.00800000E+00  1.00800000E+00  1.60000000E+01
  1.00800000E+00  1.00800000E+00  1.60000000E+01  1.00800000E+00  1.00800000E+00
  1.60000000E+01  1.00800000E+00  1.00800000E+00  1.60000000E+01  1.00800000E+00
  1.00800000E+00  1.60000000E+01  1.00800000E+00  1.00800000E+00  1.60000000E+01
  1.00800000E+00  1.00800000E+00  1.60000000E+01  1.00800000E+00  1.00800000E+00
  1.60000000E+01  1.00800000E+00  1.00800000E+00  1.60000000E+01  1.00800000E+00
  1.00800000E+00  1.60000000E+01  1.00800000E+00  1.00800000E+00  1.60000000E+01
  1.00800000E+00  1.00800000E+00  1.60000000E+01  1.00800000E+00  1.00800000E+00
  1.60000000E+01  1.00800000E+00  1.00800000E+00  1.60000000E+01  1.00800000E+00
  1.00800000E+00  1.60000000E+01  1.00800000E+00  1.00800000E+00  1.60000000E+01
  1.00800000E+00  1.00800000E+00  1.60000000E+01  1.00800000E+00  1.00800000E+00
  1.60000000E+01  1.00800000E+00  1.00800000E+00  1.60000000E+01  1.00800000E+00
  1.00800000E+00  1.60000000E+01  1.00800000E+00  1.00800000E+00  1.60000000E+01
  1.00800000E+00  1.00800000E+00  1.60000000E+01  1.00800000E+00  1.00800000E+00
  1.60000000E+01  1.00800000E+00  1.00800000E+00  1.60000000E+01  1.00800000E+00
  1.00800000E+00  1.60000000E+01  1.00800000E+00  1.00800000E+00  1.60000000E+01
  1.00800000E+00  1.00800000E+00  1.60000000E+01  1.00800000E+00  1.00800000E+00
  1.60000000E+01  1.00800000E+00  1.00800000E+00  1.60000000E+01  1.00800000E+00
  1.00800000E+00  1.60000000E+01  1.00800000E+00  1.00800000E+00  1.60000000E+01
  1.00800000E+00  1.00800000E+00  1.60000000E+01  1.00800000E+00  1.00800000E+00
  1.60000000E+01  1.00800000E+00  1.00800000E+00  1.60000000E+01  1.00800000E+00
  1.00800000E+00  1.60000000E+01  1.00800000E+00  1.00800000E+00  1.60000000E+01
  1.00800000E+00  1.00800000E+00  1.60000000E+01  1.00800000E+00  1.00800000E+00
  1.60000000E+01  1.00800000E+00  1.00800000E+00  1.60000000E+01  1.00800000E+00
  1.00800000E+00  1.60000000E+01  1.00800000E+00  1.00800000E+00  1.60000000E+01
  1.00800000E+00  1.00800000E+00  1.60000000E+01  1.00800000E+00  1.00800000E+00
  1.60000000E+01  1.00800000E+00  1.00800000E+00  1.60000000E+01  1.00800000E+00
  1.00800000E+00  1.60000000E+01  1.00800000E+00  1.00800000E+00  1.60000000E+01
  1.00800000E+00  1.00800000E+00  1.60000000E+01  1.00800000E+00  1.00800000E+00
  1.60000000E+01  1.00800000E+00  1.00800000E+00  1.60000000E+01  1.00800000E+00
  1.00800000E+00  1.60000000E+01  1.00800000E+00  1.00800000E+00  1.60000000E+01
  1.00800000E+00  1.00800000E+00  1.60000000E+01  1.00800000E+00  1.00800000E+00
  1.60000000E+01  1.00800000E+00  1.00800000E+00  1.60000000E+01  1.00800000E+00
  1.00800000E+00  1.60000000E+01  1.00800000E+00  1.00800000E+00  1.60000000E+01
  1.00800000E+00  1.00800000E+00  1.60000000E+01  1.00800000E+00  1.00800000E+00
  1.60000000E+01  1.00800000E+00  1.00800000E+00  1.60000000E+01  1.00800000E+00
  1.00800000E+00  1.60000000E+01  1.00800000E+00  1.00800000E+00  1.60000000E+01
  1.00800000E+00  1.00800000E+00  1.60000000E+01  1.00800000E+00  1.00800000E+00
  1.60000000E+01  1.00800000E+00  1.00800000E+00  1.60000000E+01  1.00800000E+00
  1.00800000E+00  1.60000000E+01  1.00800000E+00  1.00800000E+00  1.60000000E+01
  1.00800000E+00  1.00800000E+00  1.60000000E+01  1.00800000E+00  1.00800000E+00
  1.60000000E+01  1.00800000E+00  1.00800000E+00  1.60000000E+01  1.00800000E+00
  1.00800000E+00  1.60000000E+01  1.00800000E+00  1.00800000E+00  1.60000000E+01
  1.00800000E+00  1.00800000E+00  1.60000000E+01  1.00800000E+00  1.00800000E+00
  1.60000000E+01  1.00800000E+00  1.00800000E+00  1.60000000E+01  1.00800000E+00
  1.00800000E+00  1.60000000E+01  1.00800000E+00  1.00800000E+00  1.60000000E+01
  1.00800000E+00  1.00800000E+00  1.60000000E+01  1.00800000E+00  1.00800000E+00
  1.60000000E+01  1.00800000E+00  1.00800000E+00  1.60000000E+01  1.00800000E+00
  1.00800000E+00  1.60000000E+01  1.00800000E+00  1.00800000E+00  1.60000000E+01
  1.00800000E+00  1.00800000E+00  1.60000000E+01  1.00800000E+00  1.00800000E+00
  1.60000000E+01  1.00800000E+00  1.00800000E+00  1.60000000E+01  1.00800000E+00
  1.00800000E+00  1.60000000E+01  1.00800000E+00  1.00800000E+00  1.60000000E+01
  1.00800000E+00  1.00800000E+00  1.60000000E+01  1.00800000E+00  1.00800000E+00
  1.60000000E+01  1.00800000E+00  1.00800000E+00  1.60000000E+01  1.00800000E+00
  1.00800000E+00  1.60000000E+01  1.00800000E+00  1.00800000E+00  1.60000000E+01
  1.00800000E+00  1.00800000E+00  1.60000000E+01  1.00800000E+00  1.00800000E+00
  1.60000000E+01  1.00800000E+00  1.00800000E+00  1.60000000E+01  1.00800000E+00
  1.00800000E+00  1.60000000E+01  1.00800000E+00  1.00800000E+00  1.60000000E+01
  1.00800000E+00  1.00800000E+00  1.60000000E+01  1.00800000E+00  1.00800000E+00
  1.60000000E+01  1.00800000E+00  1.00800000E+00  1.60000000E+01  1.00800000E+00
  1.00800000E+00  1.60000000E+01  1.00800000E+00  1.00800000E+00  1.60000000E+01
  1.00800000E+00  1.00800000E+00  1.60000000E+01  1.00800000E+00  1.00800000E+00
  1.60000000E+01  1.00800000E+00  1.00800000E+00  1.60000000E+01  1.00800000E+00
  1.00800000E+00  1.60000000E+01  1.00800000E+00  1.00800000E+00  1.60000000E+01
  1.00800000E+00  1.00800000E+00  1.60000000E+01  1.00800000E+00  1.00800000E+00
  1.60000000E+01  1.00800000E+00  1.00800000E+00  1.60000000E+01  1.00800000E+00
  1.00800000E+00  1.60000000E+01  1.00800000E+00  1.00800000E+00  1.60000000E+01
  1.00800000E+00  1.00800000E+00  1.60000000E+01  1.00800000E+00  1.00800000E+00
  1.60000000E+01  1.00800000E+00  1.00800000E+00  1.60000000E+01  1.00800000E+00
  1.00800000E+00  1.60000000E+01  1.00800000E+00  1.00800000E+00  1.60000000E+01
  1.00800000E+00  1.00800000E+00  1.60000000E+01  1.00800000E+00  1.00800000E+00
  1.60000000E+01  1.00800000E+00  1.00800000E+00  1.60000000E+01  1.00800000E+00
  1.00800000E+00  1.60000000E+01  1.00800000E+00  1.00800000E+00  1.60000000E+01
  1.00800000E+00  1.00800000E+00  1.60000000E+01  1.00800000E+00  1.00800000E+00
  1.60000000E+01  1.00800000E+00  1.00800000E+00  1.60000000E+01  1.00800000E+00
  1.00800000E+00  1.60000000E+01  1.00800000E+00  1.00800000E+00  1.60000000E+01
  1.00800000E+00  1.00800000E+00  1.60000000E+01  1.00800000E+00  1.00800000E+00
  1.60000000E+01  1.00800000E+00  1.00800000E+00  1.60000000E+01  1.00800000E+00
  1.00800000E+00  1.60000000E+01  1.00800000E+00  1.00800000E+00  1.60000000E+01
  1.00800000E+00  1.00800000E+00  1.60000000E+01  1.00800000E+00  1.00800000E+00
  1.60000000E+01  1.00800000E+00  1.00800000E+00  1.60000000E+01  1.00800000E+00
  1.00800000E+00  1.60000000E+01  1.00800000E+00  1.00800000E+00  1.60000000E+01
  1.00800000E+00  1.00800000E+00  1.60000000E+01  1.00800000E+00  1.00800000E+00
  1.60000000E+01  1.00800000E+00  1.00800000E+00  1.60000000E+01  1.00800000E+00
  1.00800000E+00  1.60000000E+01  1.00800000E+00  1.00800000E+00  1.60000000E+01
  1.00800000E+00  1.00800000E+00  1.60000000E+01  1.00800000E+00  1.00800000E+00
  1.60000000E+01  1.00800000E+00  1.00800000E+00  1.60000000E+01  1.00800000E+00
  1.00800000E+00  1.60000000E+01  1.00800000E+00  1.00800000E+00  1.60000000E+01
  1.00800000E+00  1.00800000E+00  1.60000000E+01  1.00800000E+00  1.00800000E+00
  1.60000000E+01  1.00800000E+00  1.00800000E+00  1.60000000E+01  1.00800000E+00
  1.00800000E+00  1.60000000E+01  1.00800000E+00  1.00800000E+00  1.60000000E+01
  1.00800000E+00  1.00800000E+00  1.60000000E+01  1.00800000E+00  1.00800000E+00
  1.60000000E+01  1.00800000E+00  1.00800000E+00  1.60000000E+01  1.00800000E+00
  1.00800000E+00  1.60000000E+01  1.00800000E+00  1.00800000E+00  1.60000000E+01
  1.00800000E+00  1.00800000E+00  1.60000000E+01  1.00800000E+00  1.00800000E+00
  1.60000000E+01  1.00800000E+00  1.00800000E+00  1.60000000E+01  1.00800000E+00
  1.00800000E+00  1.60000000E+01  1.00800000E+00  1.00800000E+00  1.60000000E+01
  1.00800000E+00  1.00800000E+00  1.60000000E+01  1.00800000E+00  1.00800000E+00
  1.60000000E+01  1.00800000E+00  1.00800000E+00  1.60000000E+01  1.00800000E+00
  1.00800000E+00  1.60000000E+01  1.00800000E+00  1.00800000E+00  1.60000000E+01
  1.00800000E+00  1.00800000E+00  1.60000000E+01  1.00800000E+00  1.00800000E+00
  1.60000000E+01  1.00800000E+00  1.00800000E+00  1.60000000E+01  1.00800000E+00
  1.00800000E+00  1.60000000E+01  1.00800000E+00  1.00800000E+00  1.60000000E+01
  1.00800000E+00  1.00800000E+00  1.60000000E+01  1.00800000E+00  1.00800000E+00
  1.60000000E+01  1.00800000E+00  1.00800000E+00  1.60000000E+01  1.00800000E+00
  1.00800000E+00  1.60000000E+01  1.00800000E+00  1.00800000E+00  1.60000000E+01
  1.00800000E+00  1.00800000E+00  1.60000000E+01  1.00800000E+00  1.00800000E+00
  1.60000000E+01  1.00800000E+00  1.00800000E+00  1.60000000E+01  1.00800000E+00
  1.00800000E+00  1.60000000E+01  1.00800000E+00  1.00800000E+00  1.60000000E+01
  1.00800000E+00  1.00800000E+00  1.60000000E+01  1.00800000E+00  1.00800000E+00
  1.60000000E+01  1.00800000E+00  1.00800000E+00  1.60000000E+01  1.00800000E+00
  1.00800000E+00  1.60000000E+01  1.00800000E+00  1.00800000E+00  1.60000000E+01
  1.00800000E+00  1.00800000E+00  1.60000000E+01  1.00800000E+00  1.00800000E+00
  1.60000000E+01  1.00800000E+00  1.00800000E+00  1.60000000E+01  1.00800000E+00
  1.00800000E+00  1.60000000E+01  1.00800000E+00  1.00800000E+00  1.60000000E+01
  1.00800000E+00  1.00800000E+00  1.60000000E+01  1.00800000E+00  1.00800000E+00
  1.60000000E+01  1.00800000E+00  1.00800000E+00  1.60000000E+01  1.00800000E+00
  1.00800000E+00  1.60000000E+01  1.00800000E+00  1.00800000E+00  1.60000000E+01
  1.00800000E+00  1.00800000E+00  1.60000000E+01  1.00800000E+00  1.00800000E+00
  1.60000000E+01  1.00800000E+00  1.00800000E+00  1.60000000E+01  1.00800000E+00
  1.00800000E+00  1.60000000E+01  1.00800000E+00  1.00800000E+00  1.60000000E+01
  1.00800000E+00  1.00800000E+00  1.60000000E+01  1.00800000E+00  1.00800000E+00
  1.60000000E+01  1.00800000E+00  1.00800000E+00  1.60000000E+01  1.00800000E+00
  1.00800000E+00  1.60000000E+01  1.00800000E+00  1.00800000E+00  1.60000000E+01
  1.00800000E+00  1.00800000E+00  1.60000000E+01  1.00800000E+00  1.00800000E+00
  1.60000000E+01  1.00800000E+00  1.00800000E+00  1.60000000E+01  1.00800000E+00
  1.00800000E+00  1.60000000E+01  1.00800000E+00  1.00800000E+00  1.60000000E+01
  1.00800000E+00  1.00800000E+00  1.60000000E+01  1.00800000E+00  1.00800000E+00
  1.60000000E+01  1.00800000E+00  1.00800000E+00  1.60000000E+01  1.00800000E+00
  1.00800000E+00  1.60000000E+01  1.00800000E+00  1.00800000E+00  1.60000000E+01
  1.00800000E+00  1.00800000E+00  1.60000000E+01  1.00800000E+00  1.00800000E+00
  1.60000000E+01  1.00800000E+00  1.00800000E+00  1.60000000E+01  1.00800000E+00
  1.00800000E+00  1.60000000E+01  1.00800000E+00  1.00800000E+00  1.60000000E+01
  1.00800000E+00  1.00800000E+00  1.60000000E+01  1.00800000E+00  1.00800000E+00
  1.60000000E+01  1.00800000E+00  1.00800000E+00  1.60000000E+01  1.00800000E+00
  1.00800000E+00  1.60000000E+01  1.00800000E+00  1.00800000E+00  1.60000000E+01
  1.00800000E+00  1.00800000E+00  1.60000000E+01  1.00800000E+00  1.00800000E+00
  1.60000000E+01  1.00800000E+00  1.00800000E+00  1.60000000E+01  1.00800000E+00
  1.00800000E+00  1.60000000E+01  1.00800000E+00  1.00800000E+00  1.60000000E+01
  1.00800000E+00  1.00800000E+00  1.60000000E+01  1.00800000E+00  1.00800000E+00
  1.60000000E+01  1.00800000E+00  1.00800000E+00  1.60000000E+01  1.00800000E+00
  1.00800000E+00  1.60000000E+01  1.00800000E+00  1.00800000E+00  1.60000000E+01
  1.00800000E+00  1.00800000E+00  1.60000000E+01  1.00800000E+00  1.00800000E+00
  1.60000000E+01  1.00800000E+00  1.00800000E+00  1.60000000E+01  1.00800000E+00
  1.00800000E+00  1.60000000E+01  1.00800000E+00  1.00800000E+00  1.60000000E+01
  1.00800000E+00  1.00800000E+00  1.60000000E+01  1.00800000E+00  1.00800000E+00
  1.60000000E+01  1.00800000E+00  1.00800000E+00  1.60000000E+01  1.00800000E+00
  1.00800000E+00  1.60000000E+01  1.00800000E+00  1.00800000E+00  1.60000000E+01
  1.00800000E+00  1.00800000E+00  1.60000000E+01  1.00800000E+00  1.00800000E+00
  1.60000000E+01  1.00800000E+00  1.00800000E+00  1.60000000E+01  1.00800000E+00
  1.00800000E+00  1.60000000E+01  1.00800000E+00  1.00800000E+00  1.60000000E+01
  1.00800000E+00  1.00800000E+00  1.60000000E+01  1.00800000E+00  1.00800000E+00
  1.60000000E+01  1.00800000E+00  1.00800000E+00  1.60000000E+01  1.00800000E+00
  1.00800000E+00  1.60000000E+01  1.00800000E+00  1.00800000E+00  1.60000000E+01
  1.00800000E+00  1.00800000E+00  1.60000000E+01  1.00800000E+00  1.00800000E+00
  1.60000000E+01  1.00800000E+00  1.00800000E+00  1.60000000E+01  1.00800000E+00
  1.00800000E+00  1.60000000E+01  1.00800000E+00  1.00800000E+00  1.60000000E+01
  1.00800000E+00  1.00800000E+00  1.60000000E+01  1.00800000E+00  1.00800000E+00
  1.60000000E+01  1.00800000E+00  1.00800000E+00  1.60000000E+01  1.00800000E+00
  1.00800000E+00  1.60000000E+01  1.00800000E+00  1.00800000E+00  1.60000000E+01
  1.00800000E+00  1.00800000E+00  1.60000000E+01  1.00800000E+00  1.00800000E+00
  1.60000000E+01  1.00800000E+00  1.00800000E+00  1.60000000E+01  1.00800000E+00
  1.00800000E+00  1.60000000E+01  1.00800000E+00  1.00800000E+00  1.60000000E+01
  1.00800000E+00  1.00800000E+00  1.60000000E+01  1.00800000E+00  1.00800000E+00
  1.60000000E+01  1.00800000E+00  1.00800000E+00  1.60000000E+01  1.00800000E+00
  1.00800000E+00  1.60000000E+01  1.00800000E+00  1.00800000E+00  1.60000000E+01
  1.00800000E+00  1.00800000E+00  1.60000000E+01  1.00800000E+00  1.00800000E+00
  1.60000000E+01  1.00800000E+00  1.00800000E+00  1.60000000E+01  1.00800000E+00
  1.00800000E+00  1.60000000E+01  1.00800000E+00  1.00800000E+00  1.60000000E+01
  1.00800000E+00  1.00800000E+00  1.60000000E+01  1.00800000E+00  1.00800000E+00
  1.60000000E+01  1.00800000E+00  1.00800000E+00  1.60000000E+01  1.00800000E+00
  1.00800000E+00  1.60000000E+01  1.00800000E+00  1.00800000E+00  1.60000000E+01
  1.00800000E+00  1.00800000E+00  1.60000000E+01  1.00800000E+00  1.00800000E+00
  1.60000000E+01  1.00800000E+00  1.00800000E+00  1.60000000E+01  1.00800000E+00
  1.00800000E+00  1.60000000E+01  1.00800000E+00  1.00800000E+00  1.60000000E+01
  1.00800000E+00  1.00800000E+00  1.60000000E+01  1.00800000E+00  1.00800000E+00
  1.60000000E+01  1.00800000E+00  1.00800000E+00  1.60000000E+01  1.00800000E+00
  1.00800000E+00  1.60000000E+01  1.00800000E+00  1.00800000E+00  1.60000000E+01
  1.00800000E+00  1.00800000E+00  1.60000000E+01  1.00800000E+00  1.00800000E+00
  1.60000000E+01  1.00800000E+00  1.00800000E+00  1.60000000E+01  1.00800000E+00
  1.00800000E+00  1.60000000E+01  1.00800000E+00  1.00800000E+00  1.60000000E+01
  1.00800000E+00  1.00800000E+00  1.60000000E+01  1.00800000E+00  1.00800000E+00
  1.60000000E+01  1.00800000E+00  1.00800000E+00  1.60000000E+01  1.00800000E+00
  1.00800000E+00  1.60000000E+01  1.00800000E+00  1.00800000E+00  1.60000000E+01
  1.00800000E+00  1.00800000E+00  1.60000000E+01  1.00800000E+00  1.00800000E+00
  1.60000000E+01  1.00800000E+00  1.00800000E+00  1.60000000E+01  1.00800000E+00
  1.00800000E+00  1.60000000E+01  1.00800000E+00  1.00800000E+00  1.60000000E+01
  1.00800000E+00  1.00800000E+00  1.60000000E+01  1.00800000E+00  1.00800000E+00
  1.60000000E+01  1.00800000E+00  1.00800000E+00  1.60000000E+01  1.00800000E+00
  1.00800000E+00  1.60000000E+01  1.00800000E+00  1.00800000E+00  1.60000000E+01
  1.00800000E+00  1.00800000E+00  1.60000000E+01  1.00800000E+00  1.00800000E+00
  1.60000000E+01  1.00800000E+00  1.00800000E+00  1.60000000E+01  1.00800000E+00
  1.00800000E+00  1.60000000E+01  1.00800000E+00  1.00800000E+00  1.60000000E+01
  1.00800000E+00  1.00800000E+00  1.60000000E+01  1.00800000E+00  1.00800000E+00
  1.60000000E+01  1.00800000E+00  1.00800000E+00  1.60000000E+01  1.00800000E+00
  1.00800000E+00  1.60000000E+01  1.00800000E+00  1.00800000E+00  1.60000000E+01
  1.00800000E+00  1.00800000E+00  1.60000000E+01  1.00800000E+00  1.00800000E+00
  1.60000000E+01  1.00800000E+00  1.00800000E+00  1.60000000E+01  1.00800000E+00
  1.00800000E+00  1.60000000E+01  1.00800000E+00  1.00800000E+00  1.60000000E+01
  1.00800000E+00  1.00800000E+00  1.60000000E+01  1.00800000E+00  1.00800000E+00
  1.60000000E+01  1.00800000E+00  1.00800000E+00  1.60000000E+01  1.00800000E+00
  1.00800000E+00  1.60000000E+01  1.00800000E+00  1.00800000E+00  1.60000000E+01
  1.00800000E+00  1.00800000E+00  1.60000000E+01  1.00800000E+00  1.00800000E+00
  1.60000000E+01  1.00800000E+00  1.00800000E+00  1.60000000E+01  1.00800000E+00
  1.00800000E+00  1.60000000E+01  1.00800000E+00  1.00800000E+00  1.60000000E+01
  1.00800000E+00  1.00800000E+00  1.60000000E+01  1.00800000E+00  1.00800000E+00
  1.60000000E+01  1.00800000E+00  1.00800000E+00  1.60000000E+01  1.00800000E+00
  1.00800000E+00  1.60000000E+01  1.00800000E+00  1.00800000E+00  1.60000000E+01
  1.00800000E+00  1.00800000E+00  1.60000000E+01  1.00800000E+00  1.00800000E+00
  1.60000000E+01  1.00800000E+00  1.00800000E+00  1.60000000E+01  1.00800000E+00
  1.00800000E+00  1.60000000E+01  1.00800000E+00  1.00800000E+00  1.60000000E+01
  1.00800000E+00  1.00800000E+00  1.60000000E+01  1.00800000E+00  1.00800000E+00
  1.60000000E+01  1.00800000E+00  1.00800000E+00  1.60000000E+01  1.00800000E+00
  1.00800000E+00  1.60000000E+01  1.00800000E+00  1.00800000E+00  1.60000000E+01
  1.00800000E+00  1.00800000E+00  1.60000000E+01  1.00800000E+00  1.00800000E+00
  1.60000000E+01  1.00800000E+00  1.00800000E+00  1.60000000E+01  1.00800000E+00
  1.00800000E+00  1.60000000E+01  1.00800000E+00  1.00800000E+00  1.60000000E+01
  1.00800000E+00  1.00800000E+00  1.60000000E+01  1.00800000E+00  1.00800000E+00
  1.60000000E+01  1.00800000E+00  1.00800000E+00  1.60000000E+01  1.00800000E+00
  1.00800000E+00  1.60000000E+01  1.00800000E+00  1.00800000E+00  1.60000000E+01
  1.00800000E+00  1.00800000E+00  1.60000000E+01  1.00800000E+00  1.00800000E+00
  1.60000000E+01  1.00800000E+00  1.00800000E+00  1.60000000E+01  1.00800000E+00
  1.00800000E+00  1.60000000E+01  1.00800000E+00  1.00800000E+00  1.60000000E+01
  1.00800000E+00  1.00800000E+00  1.60000000E+01  1.00800000E+00  1.00800000E+00
  1.60000000E+01  1.00800000E+00  1.00800000E+00  1.60000000E+01  1.00800000E+00
  1.00800000E+00  1.60000000E+01  1.00800000E+00  1.00800000E+00  1.60000000E+01
  1.00800000E+00  1.00800000E+00  1.60000000E+01  1.00800000E+00  1.00800000E+00
  1.60000000E+01  1.00800000E+00  1.00800000E+00  1.60000000E+01  1.00800000E+00
  1.00800000E+00  1.60000000E+01  1.00800000E+00  1.00800000E+00  1.60000000E+01
  1.00800000E+00  1.00800000E+00  1.60000000E+01  1.00800000E+00  1.00800000E+00
  1.60000000E+01  1.00800000E+00  1.00800000E+00  1.60000000E+01  1.00800000E+00
  1.00800000E+00  1.60000000E+01  1.00800000E+00  1.00800000E+00  1.60000000E+01
  1.00800000E+00  1.00800000E+00  1.60000000E+01  1.00800000E+00  1.00800000E+00
  1.60000000E+01  1.00800000E+00  1.00800000E+00  1.60000000E+01  1.00800000E+00
  1.00800000E+00  1.60000000E+01  1.00800000E+00  1.00800000E+00  1.60000000E+01
  1.00800000E+00  1.00800000E+00  1.60000000E+01  1.00800000E+00  1.00800000E+00
  1.60000000E+01  1.00800000E+00  1.00800000E+00  1.60000000E+01  1.00800000E+00
  1.00800000E+00  1.60000000E+01  1.00800000E+00  1.00800000E+00  1.60000000E+01
  1.00800000E+00  1.00800000E+00  1.60000000E+01  1.00800000E+00  1.00800000E+00
  1.60000000E+01  1.00800000E+00  1.00800000E+00  1.60000000E+01  1.00800000E+00
  1.00800000E+00  1.60000000E+01  1.00800000E+00  1.00800000E+00  1.60000000E+01
  1.00800000E+00  1.00800000E+00  1.60000000E+01  1.00800000E+00  1.00800000E+00
  1.60000000E+01  1.00800000E+00  1.00800000E+00  1.60000000E+01  1.00800000E+00
  1.00800000E+00  1.60000000E+01  1.00800000E+00  1.00800000E+00  1.60000000E+01
  1.00800000E+00  1.00800000E+00  1.60000000E+01  1.00800000E+00  1.00800000E+00
  1.60000000E+01  1.00800000E+00  1.00800000E+00  1.60000000E+01  1.00800000E+00
  1.00800000E+00  1.60000000E+01  1.00800000E+00  1.00800000E+00  1.60000000E+01
  1.00800000E+00  1.00800000E+00  1.60000000E+01  1.00800000E+00  1.00800000E+00
  1.60000000E+01  1.00800000E+00  1.00800000E+00  1.60000000E+01  1.00800000E+00
  1.00800000E+00  1.60000000E+01  1.00800000E+00  1.00800000E+00  1.60000000E+01
  1.00800000E+00  1.00800000E+00  1.60000000E+01  1.00800000E+00  1.00800000E+00
  1.60000000E+01  1.00800000E+00  1.00800000E+00  1.60000000E+01  1.00800000E+00
  1.00800000E+00  1.60000000E+01  1.00800000E+00  1.00800000E+00  1.60000000E+01
  1.00800000E+00  1.00800000E+00  1.60000000E+01  1.00800000E+00  1.00800000E+00
  1.60000000E+01  1.00800000E+00  1.00800000E+00  1.60000000E+01  1.00800000E+00
  1.00800000E+00  1.60000000E+01  1.00800000E+00  1.00800000E+00  1.60000000E+01
  1.00800000E+00  1.00800000E+00  1.60000000E+01  1.00800000E+00  1.00800000E+00
  1.60000000E+01  1.00800000E+00  1.00800000E+00  1.60000000E+01  1.00800000E+00
  1.00800000E+00  1.60000000E+01  1.00800000E+00  1.00800000E+00  1.60000000E+01
  1.00800000E+00  1.00800000E+00  1.60000000E+01  1.00800000E+00  1.00800000E+00
  1.60000000E+01  1.00800000E+00  1.00800000E+00  1.60000000E+01  1.00800000E+00
  1.00800000E+00  1.60000000E+01  1.00800000E+00  1.00800000E+00  1.60000000E+01
  1.00800000E+00  1.00800000E+00  1.60000000E+01  1.00800000E+00  1.00800000E+00
  1.60000000E+01  1.00800000E+00  1.00800000E+00  1.60000000E+01  1.00800000E+00
  1.00800000E+00  1.60000000E+01  1.00800000E+00  1.00800000E+00  1.60000000E+01
  1.00800000E+00  1.00800000E+00  1.60000000E+01  1.00800000E+00  1.00800000E+00
  1.60000000E+01  1.00800000E+00  1.00800000E+00  1.60000000E+01  1.00800000E+00
  1.00800000E+00  1.60000000E+01  1.00800000E+00  1.00800000E+00  1.60000000E+01
  1.00800000E+00  1.00800000E+00  1.60000000E+01  1.00800000E+00  1.00800000E+00
  1.60000000E+01  1.00800000E+00  1.00800000E+00  1.60000000E+01  1.00800000E+00
  1.00800000E+00  1.60000000E+01  1.00800000E+00  1.00800000E+00  1.60000000E+01
  1.00800000E+00  1.00800000E+00  1.60000000E+01  1.00800000E+00  1.00800000E+00
  1.60000000E+01  1.00800000E+00  1.00800000E+00  1.60000000E+01  1.00800000E+00
  1.00800000E+00  1.60000000E+01  1.00800000E+00  1.00800000E+00  1.60000000E+01
  1.00800000E+00  1.00800000E+00  1.60000000E+01  1.00800000E+00  1.00800000E+00
  1.60000000E+01  1.00800000E+00  1.00800000E+00  1.60000000E+01  1.00800000E+00
  1.00800000E+00  1.60000000E+01  1.00800000E+00  1.00800000E+00  1.60000000E+01
  1.00800000E+00  1.00800000E+00  1.60000000E+01  1.00800000E+00  1.00800000E+00
  1.60000000E+01  1.00800000E+00  1.00800000E+00  1.60000000E+01  1.00800000E+00
  1.00800000E+00  1.60000000E+01  1.00800000E+00  1.00800000E+00  1.60000000E+01
  1.00800000E+00  1.00800000E+00  1.60000000E+01  1.00800000E+00  1.00800000E+00
  1.60000000E+01  1.00800000E+00  1.00800000E+00  1.60000000E+01  1.00800000E+00
  1.00800000E+00  1.60000000E+01  1.00800000E+00  1.00800000E+00  1.60000000E+01
  1.00800000E+00  1.00800000E+00  1.60000000E+01  1.00800000E+00  1.00800000E+00
  1.60000000E+01  1.00800000E+00  1.00800000E+00  1.60000000E+01  1.00800000E+00
  1.00800000E+00  1.60000000E+01  1.00800000E+00  1.00800000E+00  1.60000000E+01
  1.00800000E+00  1.00800000E+00  1.60000000E+01  1.00800000E+00  1.00800000E+00
  1.60000000E+01  1.00800000E+00  1.00800000E+00  1.60000000E+01  1.00800000E+00
  1.00800000E+00  1.60000000E+01  1.00800000E+00  1.00800000E+00  1.60000000E+01
  1.00800000E+00  1.00800000E+00  1.60000000E+01  1.00800000E+00  1.00800000E+00
  1.60000000E+01  1.00800000E+00  1.00800000E+00  1.60000000E+01  1.00800000E+00
  1.00800000E+00  1.60000000E+01  1.00800000E+00  1.00800000E+00  1.60000000E+01
  1.00800000E+00  1.00800000E+00  1.60000000E+01  1.00800000E+00  1.00800000E+00
  1.60000000E+01  1.00800000E+00  1.00800000E+00  1.60000000E+01  1.00800000E+00
  1.00800000E+00  1.60000000E+01  1.00800000E+00  1.00800000E+00  1.60000000E+01
  1.00800000E+00  1.00800000E+00  1.60000000E+01  1.00800000E+00  1.00800000E+00
  1.60000000E+01  1.00800000E+00  1.00800000E+00  1.60000000E+01  1.00800000E+00
  1.00800000E+00  1.60000000E+01  1.00800000E+00  1.00800000E+00  1.60000000E+01
  1.00800000E+00  1.00800000E+00  1.60000000E+01  1.00800000E+00  1.00800000E+00
  1.60000000E+01  1.00800000E+00  1.00800000E+00  1.60000000E+01  1.00800000E+00
  1.00800000E+00  1.60000000E+01  1.00800000E+00  1.00800000E+00  1.60000000E+01
  1.00800000E+00  1.00800000E+00  1.60000000E+01  1.00800000E+00  1.00800000E+00
  1.60000000E+01  1.00800000E+00  1.00800000E+00  1.60000000E+01  1.00800000E+00
  1.00800000E+00  1.60000000E+01  1.00800000E+00  1.00800000E+00  1.60000000E+01
  1.00800000E+00  1.00800000E+00  1.60000000E+01  1.00800000E+00  1.00800000E+00
  1.60000000E+01  1.00800000E+00  1.00800000E+00  1.60000000E+01  1.00800000E+00
  1.00800000E+00  1.60000000E+01  1.00800000E+00  1.00800000E+00  1.60000000E+01
  1.00800000E+00  1.00800000E+00  1.60000000E+01  1.00800000E+00  1.00800000E+00
  1.60000000E+01  1.00800000E+00  1.00800000E+00  1.60000000E+01  1.00800000E+00
  1.00800000E+00  1.60000000E+01  1.00800000E+00  1.00800000E+00  1.60000000E+01
  1.00800000E+00  1.00800000E+00  1.60000000E+01  1.00800000E+00  1.00800000E+00
  1.60000000E+01  1.00800000E+00  1.00800000E+00  1.60000000E+01  1.00800000E+00
  1.00800000E+00  1.60000000E+01  1.00800000E+00  1.00800000E+00  1.60000000E+01
  1.00800000E+00  1.00800000E+00  1.60000000E+01  1.00800000E+00  1.00800000E+00
  1.60000000E+01  1.00800000E+00  1.00800000E+00  1.60000000E+01  1.00800000E+00
  1.00800000E+00  1.60000000E+01  1.00800000E+00  1.00800000E+00  1.60000000E+01
  1.00800000E+00  1.00800000E+00  1.60000000E+01  1.00800000E+00  1.00800000E+00
  1.60000000E+01  1.00800000E+00  1.00800000E+00  1.60000000E+01  1.00800000E+00
  1.00800000E+00  1.60000000E+01  1.00800000E+00  1.00800000E+00  1.60000000E+01
  1.00800000E+00  1.00800000E+00  1.60000000E+01  1.00800000E+00  1.00800000E+00
  1.60000000E+01  1.00800000E+00  1.00800000E+00  1.60000000E+01  1.00800000E+00
  1.00800000E+00  1.60000000E+01  1.00800000E+00  1.00800000E+00  1.60000000E+01
  1.00800000E+00  1.00800000E+00  1.60000000E+01  1.00800000E+00  1.00800000E+00
  1.60000000E+01  1.00800000E+00  1.00800000E+00  1.60000000E+01  1.00800000E+00
  1.00800000E+00  1.60000000E+01  1.00800000E+00  1.00800000E+00  1.60000000E+01
  1.00800000E+00  1.00800000E+00  1.60000000E+01  1.00800000E+00  1.00800000E+00
  1.60000000E+01  1.00800000E+00  1.00800000E+00  1.60000000E+01  1.00800000E+00
  1.00800000E+00  1.60000000E+01  1.00800000E+00  1.00800000E+00  1.60000000E+01
  1.00800000E+00  1.00800000E+00  1.60000000E+01  1.00800000E+00  1.00800000E+00
  1.60000000E+01  1.00800000E+00  1.00800000E+00  1.60000000E+01  1.00800000E+00
  1.00800000E+00  1.60000000E+01  1.00800000E+00  1.00800000E+00  1.60000000E+01
  1.00800000E+00  1.00800000E+00  1.60000000E+01  1.00800000E+00  1.00800000E+00
  1.60000000E+01  1.00800000E+00  1.00800000E+00  1.60000000E+01  1.00800000E+00
  1.00800000E+00  1.60000000E+01  1.00800000E+00  1.00800000E+00  1.60000000E+01
  1.00800000E+00  1.00800000E+00  1.60000000E+01  1.00800000E+00  1.00800000E+00
  1.60000000E+01  1.00800000E+00  1.00800000E+00  1.60000000E+01  1.00800000E+00
  1.00800000E+00  1.60000000E+01  1.00800000E+00  1.00800000E+00  1.60000000E+01
  1.00800000E+00  1.00800000E+00  1.60000000E+01  1.00800000E+00  1.00800000E+00
  1.60000000E+01  1.00800000E+00  1.00800000E+00  1.60000000E+01  1.00800000E+00
  1.00800000E+00  1.60000000E+01  1.00800000E+00  1.00800000E+00  1.60000000E+01
  1.00800000E+00  1.00800000E+00  1.60000000E+01  1.00800000E+00  1.00800000E+00
  1.60000000E+01  1.00800000E+00  1.00800000E+00  1.60000000E+01  1.00800000E+00
  1.00800000E+00  1.60000000E+01  1.00800000E+00  1.00800000E+00  1.60000000E+01
  1.00800000E+00  1.00800000E+00  1.60000000E+01  1.00800000E+00  1.00800000E+00
  1.60000000E+01  1.00800000E+00  1.00800000E+00  1.60000000E+01  1.00800000E+00
  1.00800000E+00  1.60000000E+01  1.00800000E+00  1.00800000E+00  1.60000000E+01
  1.00800000E+00  1.00800000E+00  1.60000000E+01  1.00800000E+00  1.00800000E+00
  1.60000000E+01  1.00800000E+00  1.00800000E+00  1.60000000E+01  1.00800000E+00
  1.00800000E+00  1.60000000E+01  1.00800000E+00  1.00800000E+00  1.60000000E+01
  1.00800000E+00  1.00800000E+00  1.60000000E+01  1.00800000E+00  1.00800000E+00
  1.60000000E+01  1.00800000E+00  1.00800000E+00  1.60000000E+01  1.00800000E+00
  1.00800000E+00  1.60000000E+01  1.00800000E+00  1.00800000E+00  1.60000000E+01
  1.00800000E+00  1.00800000E+00  1.60000000E+01  1.00800000E+00  1.00800000E+00
  1.60000000E+01  1.00800000E+00  1.00800000E+00  1.60000000E+01  1.00800000E+00
  1.00800000E+00  1.60000000E+01  1.00800000E+00  1.00800000E+00  1.60000000E+01
  1.00800000E+00  1.00800000E+00  1.60000000E+01  1.00800000E+00  1.00800000E+00
  1.60000000E+01  1.00800000E+00  1.00800000E+00  1.60000000E+01  1.00800000E+00
  1.00800000E+00  1.60000000E+01  1.00800000E+00  1.00800000E+00  1.60000000E+01
  1.00800000E+00  1.00800000E+00  1.60000000E+01  1.00800000E+00  1.00800000E+00
  1.60000000E+01  1.00800000E+00  1.00800000E+00  1.60000000E+01  1.00800000E+00
  1.00800000E+00  1.60000000E+01  1.00800000E+00  1.00800000E+00  1.60000000E+01
  1.00800000E+00  1.00800000E+00  1.60000000E+01  1.00800000E+00  1.00800000E+00
  1.60000000E+01  1.00800000E+00  1.00800000E+00  1.60000000E+01  1.00800000E+00
  1.00800000E+00  1.60000000E+01  1.00800000E+00  1.00800000E+00  1.60000000E+01
  1.00800000E+00  1.00800000E+00  1.60000000E+01  1.00800000E+00  1.00800000E+00
  1.60000000E+01  1.00800000E+00  1.00800000E+00  1.60000000E+01  1.00800000E+00
  1.00800000E+00  1.60000000E+01  1.00800000E+00  1.00800000E+00  1.60000000E+01
  1.00800000E+00  1.00800000E+00  1.60000000E+01  1.00800000E+00  1.00800000E+00
  1.60000000E+01  1.00800000E+00  1.00800000E+00  1.60000000E+01  1.00800000E+00
  1.00800000E+00  1.60000000E+01  1.00800000E+00  1.00800000E+00  1.60000000E+01
  1.00800000E+00  1.00800000E+00  1.60000000E+01  1.00800000E+00  1.00800000E+00
  1.60000000E+01  1.00800000E+00  1.00800000E+00  1.60000000E+01  1.00800000E+00
  1.00800000E+00  1.60000000E+01  1.00800000E+00  1.00800000E+00  1.60000000E+01
  1.00800000E+00  1.00800000E+00  1.60000000E+01  1.00800000E+00  1.00800000E+00
  1.60000000E+01  1.00800000E+00  1.00800000E+00  1.60000000E+01  1.00800000E+00
  1.00800000E+00  1.60000000E+01  1.00800000E+00  1.00800000E+00  1.60000000E+01
  1.00800000E+00  1.00800000E+00  1.60000000E+01  1.00800000E+00  1.00800000E+00
  1.60000000E+01  1.00800000E+00  1.00800000E+00  1.60000000E+01  1.00800000E+00
  1.00800000E+00  1.60000000E+01  1.00800000E+00  1.00800000E+00  1.60000000E+01
  1.00800000E+00  1.00800000E+00  1.60000000E+01  1.00800000E+00  1.00800000E+00
  1.60000000E+01  1.00800000E+00  1.00800000E+00  1.60000000E+01  1.00800000E+00
  1.00800000E+00  1.60000000E+01  1.00800000E+00  1.00800000E+00  1.60000000E+01
  1.00800000E+00  1.00800000E+00  1.60000000E+01  1.00800000E+00  1.00800000E+00
  1.60000000E+01  1.00800000E+00  1.00800000E+00  1.60000000E+01  1.00800000E+00
  1.00800000E+00  1.60000000E+01  1.00800000E+00  1.00800000E+00  1.60000000E+01
  1.00800000E+00  1.00800000E+00  1.60000000E+01  1.00800000E+00  1.00800000E+00
  1.60000000E+01  1.00800000E+00  1.00800000E+00  1.60000000E+01  1.00800000E+00
  1.00800000E+00  1.60000000E+01  1.00800000E+00  1.00800000E+00  1.60000000E+01
  1.00800000E+00  1.00800000E+00  1.60000000E+01  1.00800000E+00  1.00800000E+00
  1.60000000E+01  1.00800000E+00  1.00800000E+00  1.60000000E+01  1.00800000E+00
  1.00800000E+00  1.60000000E+01  1.00800000E+00  1.00800000E+00  1.60000000E+01
  1.00800000E+00  1.00800000E+00  1.60000000E+01  1.00800000E+00  1.00800000E+00
  1.60000000E+01  1.00800000E+00  1.00800000E+00  1.60000000E+01  1.00800000E+00
  1.00800000E+00  1.60000000E+01  1.00800000E+00  1.00800000E+00  1.60000000E+01
  1.00800000E+00  1.00800000E+00  1.60000000E+01  1.00800000E+00  1.00800000E+00
  1.60000000E+01  1.00800000E+00  1.00800000E+00  1.60000000E+01  1.00800000E+00
  1.00800000E+00  1.60000000E+01  1.00800000E+00  1.00800000E+00  1.60000000E+01
  1.00800000E+00  1.00800000E+00  1.60000000E+01  1.00800000E+00  1.00800000E+00
  1.60000000E+01  1.00800000E+00  1.00800000E+00  1.60000000E+01  1.00800000E+00
  1.00800000E+00  1.60000000E+01  1.00800000E+00  1.00800000E+00  1.60000000E+01
  1.00800000E+00  1.00800000E+00  1.60000000E+01  1.00800000E+00  1.00800000E+00
  1.60000000E+01  1.00800000E+00  1.00800000E+00  1.60000000E+01  1.00800000E+00
  1.00800000E+00  1.60000000E+01  1.00800000E+00  1.00800000E+00  1.60000000E+01
  1.00800000E+00  1.00800000E+00  1.60000000E+01  1.00800000E+00  1.00800000E+00
  1.60000000E+01  1.00800000E+00  1.00800000E+00  1.60000000E+01  1.00800000E+00
  1.00800000E+00  1.60000000E+01  1.00800000E+00  1.00800000E+00  1.60000000E+01
  1.00800000E+00  1.00800000E+00  1.60000000E+01  1.00800000E+00  1.00800000E+00
  1.60000000E+01  1.00800000E+00  1.00800000E+00  1.60000000E+01  1.00800000E+00
  1.00800000E+00  1.60000000E+01  1.00800000E+00  1.00800000E+00  1.60000000E+01
  1.00800000E+00  1.00800000E+00  1.60000000E+01  1.00800000E+00  1.00800000E+00
  1.60000000E+01  1.00800000E+00  1.00800000E+00  1.60000000E+01  1.00800000E+00
  1.00800000E+00  1.60000000E+01  1.00800000E+00  1.00800000E+00  1.60000000E+01
  1.00800000E+00  1.00800000E+00  1.60000000E+01  1.00800000E+00  1.00800000E+00
  1.60000000E+01  1.00800000E+00  1.00800000E+00  1.60000000E+01  1.00800000E+00
  1.00800000E+00  1.60000000E+01  1.00800000E+00  1.00800000E+00  1.60000000E+01
  1.00800000E+00  1.00800000E+00  1.60000000E+01  1.00800000E+00  1.00800000E+00
  1.60000000E+01  1.00800000E+00  1.00800000E+00  1.60000000E+01  1.00800000E+00
  1.00800000E+00  1.60000000E+01  1.00800000E+00  1.00800000E+00  1.60000000E+01
  1.00800000E+00  1.00800000E+00  1.60000000E+01  1.00800000E+00  1.00800000E+00
  1.60000000E+01  1.00800000E+00  1.00800000E+00  1.60000000E+01  1.00800000E+00
  1.00800000E+00  1.60000000E+01  1.00800000E+00  1.00800000E+00  1.60000000E+01
  1.00800000E+00  1.00800000E+00  1.60000000E+01  1.00800000E+00  1.00800000E+00
  1.60000000E+01  1.00800000E+00  1.00800000E+00  1.60000000E+01  1.00800000E+00
  1.00800000E+00  1.60000000E+01  1.00800000E+00  1.00800000E+00  1.60000000E+01
  1.00800000E+00  1.00800000E+00  1.60000000E+01  1.00800000E+00  1.00800000E+00
  1.60000000E+01  1.00800000E+00  1.00800000E+00  1.60000000E+01  1.00800000E+00
  1.00800000E+00  1.60000000E+01  1.00800000E+00  1.00800000E+00  1.60000000E+01
  1.00800000E+00  1.00800000E+00  1.60000000E+01  1.00800000E+00  1.00800000E+00
  1.60000000E+01  1.00800000E+00  1.00800000E+00  1.60000000E+01  1.00800000E+00
  1.00800000E+00  1.60000000E+01  1.00800000E+00  1.00800000E+00  1.60000000E+01
  1.00800000E+00  1.00800000E+00  1.60000000E+01  1.00800000E+00  1.00800000E+00
  1.60000000E+01  1.00800000E+00  1.00800000E+00  1.60000000E+01  1.00800000E+00
  1.00800000E+00  1.60000000E+01  1.00800000E+00  1.00800000E+00  1.60000000E+01
  1.00800000E+00  1.00800000E+00  1.60000000E+01  1.00800000E+00  1.00800000E+00
  1.60000000E+01  1.00800000E+00  1.00800000E+00  1.60000000E+01  1.00800000E+00
  1.00800000E+00  1.60000000E+01  1.00800000E+00  1.00800000E+00  1.60000000E+01
  1.00800000E+00  1.00800000E+00  1.60000000E+01  1.00800000E+00  1.00800000E+00
  1.60000000E+01  1.00800000E+00  1.00800000E+00  1.60000000E+01  1.00800000E+00
  1.00800000E+00  1.60000000E+01  1.00800000E+00  1.00800000E+00  1.60000000E+01
  1.00800000E+00  1.00800000E+00  1.60000000E+01  1.00800000E+00  1.00800000E+00
  1.60000000E+01  1.00800000E+00  1.00800000E+00  1.60000000E+01  1.00800000E+00
  1.00800000E+00  1.60000000E+01  1.00800000E+00  1.00800000E+00  1.60000000E+01
  1.00800000E+00  1.00800000E+00  1.60000000E+01  1.00800000E+00  1.00800000E+00
  1.60000000E+01  1.00800000E+00  1.00800000E+00  1.60000000E+01  1.00800000E+00
  1.00800000E+00  1.60000000E+01  1.00800000E+00  1.00800000E+00  1.60000000E+01
  1.00800000E+00  1.00800000E+00  1.60000000E+01  1.00800000E+00  1.00800000E+00
  1.60000000E+01  1.00800000E+00  1.00800000E+00  1.60000000E+01  1.00800000E+00
  1.00800000E+00  1.60000000E+01  1.00800000E+00  1.00800000E+00  1.60000000E+01
  1.00800000E+00  1.00800000E+00  1.60000000E+01  1.00800000E+00  1.00800000E+00
  1.60000000E+01  1.00800000E+00  1.00800000E+00  1.60000000E+01  1.00800000E+00
  1.00800000E+00  1.60000000E+01  1.00800000E+00  1.00800000E+00  1.60000000E+01
  1.00800000E+00  1.00800000E+00  1.60000000E+01  1.00800000E+00  1.00800000E+00
  1.60000000E+01  1.00800000E+00  1.00800000E+00  1.60000000E+01  1.00800000E+00
  1.00800000E+00  1.60000000E+01  1.00800000E+00  1.00800000E+00  1.60000000E+01
  1.00800000E+00  1.00800000E+00  1.60000000E+01  1.00800000E+00  1.00800000E+00
  1.60000000E+01  1.00800000E+00  1.00800000E+00  1.60000000E+01  1.00800000E+00
  1.00800000E+00  1.60000000E+01  1.00800000E+00  1.00800000E+00  1.60000000E+01
  1.00800000E+00  1.00800000E+00  1.60000000E+01  1.00800000E+00  1.00800000E+00
  1.60000000E+01  1.00800000E+00  1.00800000E+00  1.60000000E+01  1.00800000E+00
  1.00800000E+00  1.60000000E+01  1.00800000E+00  1.00800000E+00  1.60000000E+01
  1.00800000E+00  1.00800000E+00  1.60000000E+01  1.00800000E+00  1.00800000E+00
  1.60000000E+01  1.00800000E+00  1.00800000E+00  1.60000000E+01  1.00800000E+00
  1.00800000E+00  1.60000000E+01  1.00800000E+00  1.00800000E+00  1.60000000E+01
  1.00800000E+00  1.00800000E+00  1.60000000E+01  1.00800000E+00  1.00800000E+00
  1.60000000E+01  1.00800000E+00  1.00800000E+00  1.60000000E+01  1.00800000E+00
  1.00800000E+00  1.60000000E+01  1.00800000E+00  1.00800000E+00  1.60000000E+01
  1.00800000E+00  1.00800000E+00  1.60000000E+01  1.00800000E+00  1.00800000E+00
  1.60000000E+01  1.00800000E+00  1.00800000E+00  1.60000000E+01  1.00800000E+00
  1.00800000E+00  1.60000000E+01  1.00800000E+00  1.00800000E+00  1.60000000E+01
  1.00800000E+00  1.00800000E+00  1.60000000E+01  1.00800000E+00  1.00800000E+00
  1.60000000E+01  1.00800000E+00  1.00800000E+00  1.60000000E+01  1.00800000E+00
  1.00800000E+00  1.60000000E+01  1.00800000E+00  1.00800000E+00  1.60000000E+01
  1.00800000E+00  1.00800000E+00  1.60000000E+01  1.00800000E+00  1.00800000E+00
  1.60000000E+01  1.00800000E+00  1.00800000E+00  1.60000000E+01  1.00800000E+00
  1.00800000E+00  1.60000000E+01  1.00800000E+00  1.00800000E+00  1.60000000E+01
  1.00800000E+00  1.00800000E+00  1.60000000E+01  1.00800000E+00  1.00800000E+00
  1.60000000E+01  1.00800000E+00  1.00800000E+00  1.60000000E+01  1.00800000E+00
  1.00800000E+00  1.60000000E+01  1.00800000E+00  1.00800000E+00  1.60000000E+01
  1.00800000E+00  1.00800000E+00  1.60000000E+01  1.00800000E+00  1.00800000E+00
  1.60000000E+01  1.00800000E+00  1.00800000E+00  1.60000000E+01  1.00800000E+00
  1.00800000E+00  1.60000000E+01  1.00800000E+00  1.00800000E+00  1.60000000E+01
  1.00800000E+00  1.00800000E+00  1.60000000E+01  1.00800000E+00  1.00800000E+00
  1.60000000E+01  1.00800000E+00  1.00800000E+00  1.60000000E+01  1.00800000E+00
  1.00800000E+00  1.60000000E+01  1.00800000E+00  1.00800000E+00  1.60000000E+01
  1.00800000E+00  1.00800000E+00  1.60000000E+01  1.00800000E+00  1.00800000E+00
  1.60000000E+01  1.00800000E+00  1.00800000E+00  1.60000000E+01  1.00800000E+00
  1.00800000E+00  1.60000000E+01  1.00800000E+00  1.00800000E+00  1.60000000E+01
  1.00800000E+00  1.00800000E+00  1.60000000E+01  1.00800000E+00  1.00800000E+00
  1.60000000E+01  1.00800000E+00  1.00800000E+00  1.60000000E+01  1.00800000E+00
  1.00800000E+00  1.60000000E+01  1.00800000E+00  1.00800000E+00  1.60000000E+01
  1.00800000E+00  1.00800000E+00  1.60000000E+01  1.00800000E+00  1.00800000E+00
  1.60000000E+01  1.00800000E+00  1.00800000E+00  1.60000000E+01  1.00800000E+00
  1.00800000E+00  1.60000000E+01  1.00800000E+00  1.00800000E+00  1.60000000E+01
  1.00800000E+00  1.00800000E+00  1.60000000E+01  1.00800000E+00  1.00800000E+00
  1.60000000E+01  1.00800000E+00  1.00800000E+00  1.60000000E+01  1.00800000E+00
  1.00800000E+00  1.60000000E+01  1.00800000E+00  1.00800000E+00  1.60000000E+01
  1.00800000E+00  1.00800000E+00  1.60000000E+01  1.00800000E+00  1.00800000E+00
  1.60000000E+01  1.00800000E+00  1.00800000E+00  1.60000000E+01  1.00800000E+00
  1.00800000E+00  1.60000000E+01  1.00800000E+00  1.00800000E+00  1.60000000E+01
  1.00800000E+00  1.00800000E+00  1.60000000E+01  1.00800000E+00  1.00800000E+00
  1.60000000E+01  1.00800000E+00  1.00800000E+00  1.60000000E+01  1.00800000E+00
  1.00800000E+00  1.60000000E+01  1.00800000E+00  1.00800000E+00  1.60000000E+01
  1.00800000E+00  1.00800000E+00  1.60000000E+01  1.00800000E+00  1.00800000E+00
  1.60000000E+01  1.00800000E+00  1.00800000E+00  1.60000000E+01  1.00800000E+00
  1.00800000E+00  1.60000000E+01  1.00800000E+00  1.00800000E+00  1.60000000E+01
  1.00800000E+00  1.00800000E+00  1.60000000E+01  1.00800000E+00  1.00800000E+00
  1.60000000E+01  1.00800000E+00  1.00800000E+00  1.60000000E+01  1.00800000E+00
  1.00800000E+00  1.60000000E+01  1.00800000E+00  1.00800000E+00  1.60000000E+01
  1.00800000E+00  1.00800000E+00  1.60000000E+01  1.00800000E+00  1.00800000E+00
  1.60000000E+01  1.00800000E+00  1.00800000E+00  1.60000000E+01  1.00800000E+00
  1.00800000E+00  1.60000000E+01  1.00800000E+00  1.00800000E+00  1.60000000E+01
  1.00800000E+00  1.00800000E+00  1.60000000E+01  1.00800000E+00  1.00800000E+00
  1.60000000E+01  1.00800000E+00  1.00800000E+00  1.60000000E+01  1.00800000E+00
  1.00800000E+00  1.60000000E+01  1.00800000E+00  1.00800000E+00  1.60000000E+01
  1.00800000E+00  1.00800000E+00  1.60000000E+01  1.00800000E+00  1.00800000E+00
  1.60000000E+01  1.00800000E+00  1.00800000E+00  1.60000000E+01  1.00800000E+00
  1.00800000E+00  1.60000000E+01  1.00800000E+00  1.00800000E+00  1.60000000E+01
  1.00800000E+00  1.00800000E+00  1.60000000E+01  1.00800000E+00  1.00800000E+00
  1.60000000E+01  1.00800000E+00  1.00800000E+00  1.60000000E+01  1.00800000E+00
  1.00800000E+00  1.60000000E+01  1.00800000E+00  1.00800000E+00  1.60000000E+01
  1.00800000E+00  1.00800000E+00  1.60000000E+01  1.00800000E+00  1.00800000E+00
  1.60000000E+01  1.00800000E+00  1.00800000E+00  1.60000000E+01  1.00800000E+00
  1.00800000E+00  1.60000000E+01  1.00800000E+00  1.00800000E+00  1.60000000E+01
  1.00800000E+00  1.00800000E+00  1.60000000E+01  1.00800000E+00  1.00800000E+00
  1.60000000E+01  1.00800000E+00  1.00800000E+00  1.60000000E+01  1.00800000E+00
  1.00800000E+00  1.60000000E+01  1.00800000E+00  1.00800000E+00  1.60000000E+01
  1.00800000E+00  1.00800000E+00  1.60000000E+01  1.00800000E+00  1.00800000E+00
  1.60000000E+01  1.00800000E+00  1.00800000E+00  1.60000000E+01  1.00800000E+00
  1.00800000E+00  1.60000000E+01  1.00800000E+00  1.00800000E+00  1.60000000E+01
  1.00800000E+00  1.00800000E+00  1.60000000E+01  1.00800000E+00  1.00800000E+00
  1.60000000E+01  1.00800000E+00  1.00800000E+00  1.60000000E+01  1.00800000E+00
  1.00800000E+00  1.60000000E+01  1.00800000E+00  1.00800000E+00  1.60000000E+01
  1.00800000E+00  1.00800000E+00  1.60000000E+01  1.00800000E+00  1.00800000E+00
  1.60000000E+01  1.00800000E+00  1.00800000E+00  1.60000000E+01  1.00800000E+00
  1.00800000E+00  1.60000000E+01  1.00800000E+00  1.00800000E+00  1.60000000E+01
  1.00800000E+00  1.00800000E+00  1.60000000E+01  1.00800000E+00  1.00800000E+00
  1.60000000E+01  1.00800000E+00  1.00800000E+00  1.60000000E+01  1.00800000E+00
  1.00800000E+00  1.60000000E+01  1.00800000E+00  1.00800000E+00  1.60000000E+01
  1.00800000E+00  1.00800000E+00  1.60000000E+01  1.00800000E+00  1.00800000E+00
  1.60000000E+01  1.00800000E+00  1.00800000E+00  1.60000000E+01  1.00800000E+00
  1.00800000E+00  1.60000000E+01  1.00800000E+00  1.00800000E+00  1.60000000E+01
  1.00800000E+00  1.00800000E+00  1.60000000E+01  1.00800000E+00  1.00800000E+00
  1.60000000E+01  1.00800000E+00  1.00800000E+00  1.60000000E+01  1.00800000E+00
  1.00800000E+00  1.60000000E+01  1.00800000E+00  1.00800000E+00  1.60000000E+01
  1.00800000E+00  1.00800000E+00  1.60000000E+01  1.00800000E+00  1.00800000E+00
  1.60000000E+01  1.00800000E+00  1.00800000E+00  1.60000000E+01  1.00800000E+00
  1.00800000E+00  1.60000000E+01  1.00800000E+00  1.00800000E+00  1.60000000E+01
  1.00800000E+00  1.00800000E+00  1.60000000E+01  1.00800000E+00  1.00800000E+00
  1.60000000E+01  1.00800000E+00  1.00800000E+00  1.60000000E+01  1.00800000E+00
  1.00800000E+00  1.60000000E+01  1.00800000E+00  1.00800000E+00  1.60000000E+01
  1.00800000E+00  1.00800000E+00  1.60000000E+01  1.00800000E+00  1.00800000E+00
  1.60000000E+01  1.00800000E+00  1.00800000E+00  1.60000000E+01  1.00800000E+00
  1.00800000E+00  1.60000000E+01  1.00800000E+00  1.00800000E+00  1.60000000E+01
  1.00800000E+00  1.00800000E+00  1.60000000E+01  1.00800000E+00  1.00800000E+00
  1.60000000E+01  1.00800000E+00  1.00800000E+00  1.60000000E+01  1.00800000E+00
  1.00800000E+00  1.60000000E+01  1.00800000E+00  1.00800000E+00  1.60000000E+01
  1.00800000E+00  1.00800000E+00  1.60000000E+01  1.00800000E+00  1.00800000E+00
  1.60000000E+01  1.00800000E+00  1.00800000E+00  1.60000000E+01  1.00800000E+00
  1.00800000E+00  1.60000000E+01  1.00800000E+00  1.00800000E+00  1.60000000E+01
  1.00800000E+00  1.00800000E+00  1.60000000E+01  1.00800000E+00  1.00800000E+00
  1.60000000E+01  1.00800000E+00  1.00800000E+00  1.60000000E+01  1.00800000E+00
  1.00800000E+00  1.60000000E+01  1.00800000E+00  1.00800000E+00  1.60000000E+01
  1.00800000E+00  1.00800000E+00  1.60000000E+01  1.00800000E+00  1.00800000E+00
  1.60000000E+01  1.00800000E+00  1.00800000E+00  1.60000000E+01  1.00800000E+00
  1.00800000E+00  1.60000000E+01  1.00800000E+00  1.00800000E+00  1.60000000E+01
  1.00800000E+00  1.00800000E+00  1.60000000E+01  1.00800000E+00  1.00800000E+00
  1.60000000E+01  1.00800000E+00  1.00800000E+00  1.60000000E+01  1.00800000E+00
  1.00800000E+00  1.60000000E+01  1.00800000E+00  1.00800000E+00  1.60000000E+01
  1.00800000E+00  1.00800000E+00  1.60000000E+01  1.00800000E+00  1.00800000E+00
  1.60000000E+01  1.00800000E+00  1.00800000E+00  1.60000000E+01  1.00800000E+00
  1.00800000E+00  1.60000000E+01  1.00800000E+00  1.00800000E+00  1.60000000E+01
  1.00800000E+00  1.00800000E+00  1.60000000E+01  1.00800000E+00  1.00800000E+00
  1.60000000E+01  1.00800000E+00  1.00800000E+00  1.60000000E+01  1.00800000E+00
  1.00800000E+00  1.60000000E+01  1.00800000E+00  1.00800000E+00  1.60000000E+01
  1.00800000E+00  1.00800000E+00  1.60000000E+01  1.00800000E+00  1.00800000E+00
  1.60000000E+01  1.00800000E+00  1.00800000E+00  1.60000000E+01  1.00800000E+00
  1.00800000E+00  1.60000000E+01  1.00800000E+00  1.00800000E+00  1.60000000E+01
  1.00800000E+00  1.00800000E+00  1.60000000E+01  1.00800000E+00  1.00800000E+00
  1.60000000E+01  1.00800000E+00  1.00800000E+00  1.60000000E+01  1.00800000E+00
  1.00800000E+00  1.60000000E+01  1.00800000E+00  1.00800000E+00  1.60000000E+01
  1.00800000E+00  1.00800000E+00  1.60000000E+01  1.00800000E+00  1.00800000E+00
  1.60000000E+01  1.00800000E+00  1.00800000E+00  1.60000000E+01  1.00800000E+00
  1.00800000E+00  1.60000000E+01  1.00800000E+00  1.00800000E+00  1.60000000E+01
  1.00800000E+00  1.00800000E+00  1.60000000E+01  1.00800000E+00  1.00800000E+00
  1.60000000E+01  1.00800000E+00  1.00800000E+00  1.60000000E+01  1.00800000E+00
  1.00800000E+00  1.60000000E+01  1.00800000E+00  1.00800000E+00  1.60000000E+01
  1.00800000E+00  1.00800000E+00  1.60000000E+01  1.00800000E+00  1.00800000E+00
  1.60000000E+01  1.00800000E+00  1.00800000E+00  1.60000000E+01  1.00800000E+00
  1.00800000E+00  1.60000000E+01  1.00800000E+00  1.00800000E+00  1.60000000E+01
  1.00800000E+00  1.00800000E+00  1.60000000E+01  1.00800000E+00  1.00800000E+00
  1.60000000E+01  1.00800000E+00  1.00800000E+00  1.60000000E+01  1.00800000E+00
  1.00800000E+00  1.60000000E+01  1.00800000E+00  1.00800000E+00  1.60000000E+01
  1.00800000E+00  1.00800000E+00  1.60000000E+01  1.00800000E+00  1.00800000E+00
  1.60000000E+01  1.00800000E+00  1.00800000E+00  1.60000000E+01  1.00800000E+00
  1.00800000E+00  1.60000000E+01  1.00800000E+00  1.00800000E+00  1.60000000E+01
  1.00800000E+00  1.00800000E+00  1.60000000E+01  1.00800000E+00  1.00800000E+00
  1.60000000E+01  1.00800000E+00  1.00800000E+00  1.60000000E+01  1.00800000E+00
  1.00800000E+00  1.60000000E+01  1.00800000E+00  1.00800000E+00  1.60000000E+01
  1.00800000E+00  1.00800000E+00  1.60000000E+01  1.00800000E+00  1.00800000E+00
  1.60000000E+01  1.00800000E+00  1.00800000E+00  1.60000000E+01  1.00800000E+00
  1.00800000E+00  1.60000000E+01  1.00800000E+00  1.00800000E+00  1.60000000E+01
  1.00800000E+00  1.00800000E+00  1.60000000E+01  1.00800000E+00  1.00800000E+00
  1.60000000E+01  1.00800000E+00  1.00800000E+00  1.60000000E+01  1.00800000E+00
  1.00800000E+00  1.60000000E+01  1.00800000E+00  1.00800000E+00  1.60000000E+01
  1.00800000E+00  1.00800000E+00  1.60000000E+01  1.00800000E+00  1.00800000E+00
  1.60000000E+01  1.00800000E+00  1.00800000E+00  1.60000000E+01  1.00800000E+00
  1.00800000E+00  1.60000000E+01  1.00800000E+00  1.00800000E+00  1.60000000E+01
  1.00800000E+00  1.00800000E+00  1.60000000E+01  1.00800000E+00  1.00800000E+00
  1.60000000E+01  1.00800000E+00  1.00800000E+00  1.60000000E+01  1.00800000E+00
  1.00800000E+00  1.60000000E+01  1.00800000E+00  1.00800000E+00  1.60000000E+01
  1.00800000E+00  1.00800000E+00  1.60000000E+01  1.00800000E+00  1.00800000E+00
  1.60000000E+01  1.00800000E+00  1.00800000E+00  1.60000000E+01  1.00800000E+00
  1.00800000E+00  1.60000000E+01  1.00800000E+00  1.00800000E+00  1.60000000E+01
  1.00800000E+00  1.00800000E+00  1.60000000E+01  1.00800000E+00  1.00800000E+00
  1.60000000E+01  1.00800000E+00  1.00800000E+00  1.60000000E+01  1.00800000E+00
  1.00800000E+00  1.60000000E+01  1.00800000E+00  1.00800000E+00  1.60000000E+01
  1.00800000E+00  1.00800000E+00  1.60000000E+01  1.00800000E+00  1.00800000E+00
  1.60000000E+01  1.00800000E+00  1.00800000E+00  1.60000000E+01  1.00800000E+00
  1.00800000E+00  1.60000000E+01  1.00800000E+00  1.00800000E+00  1.60000000E+01
  1.00800000E+00  1.00800000E+00  1.60000000E+01  1.00800000E+00  1.00800000E+00
  1.60000000E+01  1.00800000E+00  1.00800000E+00  1.60000000E+01  1.00800000E+00
  1.00800000E+00  1.60000000E+01  1.00800000E+00  1.00800000E+00  1.60000000E+01
  1.00800000E+00  1.00800000E+00  1.60000000E+01  1.00800000E+00  1.00800000E+00
  1.60000000E+01  1.00800000E+00  1.00800000E+00  1.60000000E+01  1.00800000E+00
  1.00800000E+00  1.60000000E+01  1.00800000E+00  1.00800000E+00  1.60000000E+01
  1.00800000E+00  1.00800000E+00  1.60000000E+01  1.00800000E+00  1.00800000E+00
  1.60000000E+01  1.00800000E+00  1.00800000E+00  1.60000000E+01  1.00800000E+00
  1.00800000E+00  1.60000000E+01  1.00800000E+00  1.00800000E+00  1.60000000E+01
  1.00800000E+00  1.00800000E+00  1.60000000E+01  1.00800000E+00  1.00800000E+00
  1.60000000E+01  1.00800000E+00  1.00800000E+00  1.60000000E+01  1.00800000E+00
  1.00800000E+00  1.60000000E+01  1.00800000E+00  1.00800000E+00  1.60000000E+01
  1.00800000E+00  1.00800000E+00  1.60000000E+01  1.00800000E+00  1.00800000E+00
  1.60000000E+01  1.00800000E+00  1.00800000E+00  1.60000000E+01  1.00800000E+00
  1.00800000E+00  1.60000000E+01  1.00800000E+00  1.00800000E+00  1.60000000E+01
  1.00800000E+00  1.00800000E+00  1.60000000E+01  1.00800000E+00  1.00800000E+00
  1.60000000E+01  1.00800000E+00  1.00800000E+00  1.60000000E+01  1.00800000E+00
  1.00800000E+00  1.60000000E+01  1.00800000E+00  1.00800000E+00  1.60000000E+01
  1.00800000E+00  1.00800000E+00  1.60000000E+01  1.00800000E+00  1.00800000E+00
  1.60000000E+01  1.00800000E+00  1.00800000E+00  1.60000000E+01  1.00800000E+00
  1.00800000E+00  1.60000000E+01  1.00800000E+00  1.00800000E+00  1.60000000E+01
  1.00800000E+00  1.00800000E+00  1.60000000E+01  1.00800000E+00  1.00800000E+00
  1.60000000E+01  1.00800000E+00  1.00800000E+00  1.60000000E+01  1.00800000E+00
  1.00800000E+00  1.60000000E+01  1.00800000E+00  1.00800000E+00  1.60000000E+01
  1.00800000E+00  1.00800000E+00  1.60000000E+01  1.00800000E+00  1.00800000E+00
  1.60000000E+01  1.00800000E+00  1.00800000E+00  1.60000000E+01  1.00800000E+00
  1.00800000E+00  1.60000000E+01  1.00800000E+00  1.00800000E+00  1.60000000E+01
  1.00800000E+00  1.00800000E+00  1.60000000E+01  1.00800000E+00  1.00800000E+00
  1.60000000E+01  1.00800000E+00  1.00800000E+00  1.60000000E+01  1.00800000E+00
  1.00800000E+00  1.60000000E+01  1.00800000E+00  1.00800000E+00  1.60000000E+01
  1.00800000E+00  1.00800000E+00  1.60000000E+01  1.00800000E+00  1.00800000E+00
  1.60000000E+01  1.00800000E+00  1.00800000E+00  1.60000000E+01  1.00800000E+00
  1.00800000E+00  1.60000000E+01  1.00800000E+00  1.00800000E+00  1.60000000E+01
  1.00800000E+00  1.00800000E+00  1.60000000E+01  1.00800000E+00  1.00800000E+00
  1.60000000E+01  1.00800000E+00  1.00800000E+00  1.60000000E+01  1.00800000E+00
  1.00800000E+00  1.60000000E+01  1.00800000E+00  1.00800000E+00  1.60000000E+01
  1.00800000E+00  1.00800000E+00  1.60000000E+01  1.00800000E+00  1.00800000E+00
  1.60000000E+01  1.00800000E+00  1.00800000E+00  1.60000000E+01  1.00800000E+00
  1.00800000E+00  1.60000000E+01  1.00800000E+00  1.00800000E+00  1.60000000E+01
  1.00800000E+00  1.00800000E+00  1.60000000E+01  1.00800000E+00  1.00800000E+00
  1.60000000E+01  1.00800000E+00  1.00800000E+00  1.60000000E+01  1.00800000E+00
  1.00800000E+00  1.60000000E+01  1.00800000E+00  1.00800000E+00  1.60000000E+01
  1.00800000E+00  1.00800000E+00  1.60000000E+01  1.00800000E+00  1.00800000E+00
  1.60000000E+01  1.00800000E+00  1.00800000E+00  1.60000000E+01  1.00800000E+00
  1.00800000E+00  1.60000000E+01  1.00800000E+00  1.00800000E+00  1.60000000E+01
  1.00800000E+00  1.00800000E+00  1.60000000E+01  1.00800000E+00  1.00800000E+00
  1.60000000E+01  1.00800000E+00  1.00800000E+00  1.60000000E+01  1.00800000E+00
  1.00800000E+00  1.60000000E+01  1.00800000E+00  1.00800000E+00  1.60000000E+01
  1.00800000E+00  1.00800000E+00  1.60000000E+01  1.00800000E+00  1.00800000E+00
  1.60000000E+01  1.00800000E+00  1.00800000E+00  1.60000000E+01  1.00800000E+00
  1.00800000E+00  1.60000000E+01  1.00800000E+00  1.00800000E+00  1.60000000E+01
  1.00800000E+00  1.00800000E+00  1.60000000E+01  1.00800000E+00  1.00800000E+00
  1.60000000E+01  1.00800000E+00  1.00800000E+00  1.60000000E+01  1.00800000E+00
  1.00800000E+00  1.60000000E+01  1.00800000E+00  1.00800000E+00  1.60000000E+01
  1.00800000E+00  1.00800000E+00  1.60000000E+01  1.00800000E+00  1.00800000E+00
  1.60000000E+01  1.00800000E+00  1.00800000E+00  1.60000000E+01  1.00800000E+00
  1.00800000E+00  1.60000000E+01  1.00800000E+00  1.00800000E+00  1.60000000E+01
  1.00800000E+00  1.00800000E+00  1.60000000E+01  1.00800000E+00  1.00800000E+00
  1.60000000E+01  1.00800000E+00  1.00800000E+00  1.60000000E+01  1.00800000E+00
  1.00800000E+00  1.60000000E+01  1.00800000E+00  1.00800000E+00  1.60000000E+01
  1.00800000E+00  1.00800000E+00  1.60000000E+01  1.00800000E+00  1.00800000E+00
  1.60000000E+01  1.00800000E+00  1.00800000E+00  1.60000000E+01  1.00800000E+00
  1.00800000E+00  1.60000000E+01  1.00800000E+00  1.00800000E+00  1.60000000E+01
  1.00800000E+00  1.00800000E+00  1.60000000E+01  1.00800000E+00  1.00800000E+00
  1.60000000E+01  1.00800000E+00  1.00800000E+00  1.60000000E+01  1.00800000E+00
  1.00800000E+00  1.60000000E+01  1.00800000E+00  1.00800000E+00  1.60000000E+01
  1.00800000E+00  1.00800000E+00  1.60000000E+01  1.00800000E+00  1.00800000E+00
  1.60000000E+01  1.00800000E+00  1.00800000E+00  1.60000000E+01  1.00800000E+00
  1.00800000E+00  1.60000000E+01  1.00800000E+00  1.00800000E+00  1.60000000E+01
  1.00800000E+00  1.00800000E+00  1.60000000E+01  1.00800000E+00  1.00800000E+00
  1.60000000E+01  1.00800000E+00  1.00800000E+00  1.60000000E+01  1.00800000E+00
  1.00800000E+00  1.60000000E+01  1.00800000E+00  1.00800000E+00  1.60000000E+01
  1.00800000E+00  1.00800000E+00  1.60000000E+01  1.00800000E+00  1.00800000E+00
  1.60000000E+01  1.00800000E+00  1.00800000E+00  1.60000000E+01  1.00800000E+00
  1.00800000E+00  1.60000000E+01  1.00800000E+00  1.00800000E+00  1.60000000E+01
  1.00800000E+00  1.00800000E+00  1.60000000E+01  1.00800000E+00  1.00800000E+00
  1.60000000E+01  1.00800000E+00  1.00800000E+00  1.60000000E+01  1.00800000E+00
  1.00800000E+00  1.60000000E+01  1.00800000E+00  1.00800000E+00  1.60000000E+01
  1.00800000E+00  1.00800000E+00  1.60000000E+01  1.00800000E+00  1.00800000E+00
  1.60000000E+01  1.00800000E+00  1.00800000E+00  1.60000000E+01  1.00800000E+00
  1.00800000E+00  1.60000000E+01  1.00800000E+00  1.00800000E+00  1.60000000E+01
  1.00800000E+00  1.00800000E+00  1.60000000E+01  1.00800000E+00  1.00800000E+00
  1.60000000E+01  1.00800000E+00  1.00800000E+00  1.60000000E+01  1.00800000E+00
  1.00800000E+00  1.60000000E+01  1.00800000E+00  1.00800000E+00  1.60000000E+01
  1.00800000E+00  1.00800000E+00  1.60000000E+01  1.00800000E+00  1.00800000E+00
  1.60000000E+01  1.00800000E+00  1.00800000E+00  1.60000000E+01  1.00800000E+00
  1.00800000E+00  1.60000000E+01  1.00800000E+00  1.00800000E+00  1.60000000E+01
  1.00800000E+00  1.00800000E+00  1.60000000E+01  1.00800000E+00  1.00800000E+00
  1.60000000E+01  1.00800000E+00  1.00800000E+00  1.60000000E+01  1.00800000E+00
  1.00800000E+00  1.60000000E+01  1.00800000E+00  1.00800000E+00  1.60000000E+01
  1.00800000E+00  1.00800000E+00  1.60000000E+01  1.00800000E+00  1.00800000E+00
  1.60000000E+01  1.00800000E+00  1.00800000E+00  1.60000000E+01  1.00800000E+00
  1.00800000E+00  1.60000000E+01  1.00800000E+00  1.00800000E+00  1.60000000E+01
  1.00800000E+00  1.00800000E+00  1.60000000E+01  1.00800000E+00  1.00800000E+00
  1.60000000E+01  1.00800000E+00  1.00800000E+00  1.60000000E+01  1.00800000E+00
  1.00800000E+00  1.60000000E+01  1.00800000E+00  1.00800000E+00  1.60000000E+01
  1.00800000E+00  1.00800000E+00  1.60000000E+01  1.00800000E+00  1.00800000E+00
  1.60000000E+01  1.00800000E+00  1.00800000E+00  1.60000000E+01  1.00800000E+00
  1.00800000E+00  1.60000000E+01  1.00800000E+00  1.00800000E+00  1.60000000E+01
  1.00800000E+00  1.00800000E+00  1.60000000E+01  1.00800000E+00  1.00800000E+00
  1.60000000E+01  1.00800000E+00  1.00800000E+00  1.60000000E+01  1.00800000E+00
  1.00800000E+00  1.60000000E+01  1.00800000E+00  1.00800000E+00  1.60000000E+01
  1.00800000E+00  1.00800000E+00  1.60000000E+01  1.00800000E+00  1.00800000E+00
  1.60000000E+01  1.00800000E+00  1.00800000E+00  1.60000000E+01  1.00800000E+00
  1.00800000E+00  1.60000000E+01  1.00800000E+00  1.00800000E+00  1.60000000E+01
  1.00800000E+00  1.00800000E+00  1.60000000E+01  1.00800000E+00  1.00800000E+00
  1.60000000E+01  1.00800000E+00  1.00800000E+00  1.60000000E+01  1.00800000E+00
  1.00800000E+00  1.60000000E+01  1.00800000E+00  1.00800000E+00  1.60000000E+01
  1.00800000E+00  1.00800000E+00  1.60000000E+01  1.00800000E+00  1.00800000E+00
  1.60000000E+01  1.00800000E+00  1.00800000E+00  1.60000000E+01  1.00800000E+00
  1.00800000E+00  1.60000000E+01  1.00800000E+00  1.00800000E+00  1.60000000E+01
  1.00800000E+00  1.00800000E+00  1.60000000E+01  1.00800000E+00  1.00800000E+00
  1.60000000E+01  1.00800000E+00  1.00800000E+00  1.60000000E+01  1.00800000E+00
  1.00800000E+00  1.60000000E+01  1.00800000E+00  1.00800000E+00  1.60000000E+01
  1.00800000E+00  1.00800000E+00  1.60000000E+01  1.00800000E+00  1.00800000E+00
  1.60000000E+01  1.00800000E+00  1.00800000E+00  1.60000000E+01  1.00800000E+00
  1.00800000E+00  1.60000000E+01  1.00800000E+00  1.00800000E+00  1.60000000E+01
  1.00800000E+00  1.00800000E+00  1.60000000E+01  1.00800000E+00  1.00800000E+00
  1.60000000E+01  1.00800000E+00  1.00800000E+00  1.60000000E+01  1.00800000E+00
  1.00800000E+00  1.60000000E+01  1.00800000E+00  1.00800000E+00  1.60000000E+01
  1.00800000E+00  1.00800000E+00  1.60000000E+01  1.00800000E+00  1.00800000E+00
  1.60000000E+01  1.00800000E+00  1.00800000E+00  1.60000000E+01  1.00800000E+00
  1.00800000E+00  1.60000000E+01  1.00800000E+00  1.00800000E+00  1.60000000E+01
  1.00800000E+00  1.00800000E+00  1.60000000E+01  1.00800000E+00  1.00800000E+00
  1.60000000E+01  1.00800000E+00  1.00800000E+00  1.60000000E+01  1.00800000E+00
  1.00800000E+00  1.60000000E+01  1.00800000E+00  1.00800000E+00  1.60000000E+01
  1.00800000E+00  1.00800000E+00  1.60000000E+01  1.00800000E+00  1.00800000E+00
  1.60000000E+01  1.00800000E+00  1.00800000E+00  1.60000000E+01  1.00800000E+00
  1.00800000E+00  1.60000000E+01  1.00800000E+00  1.00800000E+00  1.60000000E+01
  1.00800000E+00  1.00800000E+00  1.60000000E+01  1.00800000E+00  1.00800000E+00
  1.60000000E+01  1.00800000E+00  1.00800000E+00  1.60000000E+01  1.00800000E+00
  1.00800000E+00  1.60000000E+01  1.00800000E+00  1.00800000E+00  1.60000000E+01
  1.00800000E+00  1.00800000E+00  1.60000000E+01  1.00800000E+00  1.00800000E+00
  1.60000000E+01  1.00800000E+00  1.00800000E+00  1.60000000E+01  1.00800000E+00
  1.00800000E+00  1.60000000E+01  1.00800000E+00  1.00800000E+00  1.60000000E+01
  1.00800000E+00  1.00800000E+00  1.60000000E+01  1.00800000E+00  1.00800000E+00
  1.60000000E+01  1.00800000E+00  1.00800000E+00  1.60000000E+01  1.00800000E+00
  1.00800000E+00  1.60000000E+01  1.00800000E+00  1.00800000E+00  1.60000000E+01
  1.00800000E+00  1.00800000E+00  1.60000000E+01  1.00800000E+00  1.00800000E+00
  1.60000000E+01  1.00800000E+00  1.00800000E+00  1.60000000E+01  1.00800000E+00
  1.00800000E+00  1.60000000E+01  1.00800000E+00  1.00800000E+00  1.60000000E+01
  1.00800000E+00  1.00800000E+00  1.60000000E+01  1.00800000E+00  1.00800000E+00
  1.60000000E+01  1.00800000E+00  1.00800000E+00  1.60000000E+01  1.00800000E+00
  1.00800000E+00  1.60000000E+01  1.00800000E+00  1.00800000E+00  1.60000000E+01
  1.00800000E+00  1.00800000E+00  1.60000000E+01  1.00800000E+00  1.00800000E+00
  1.60000000E+01  1.00800000E+00  1.00800000E+00  1.60000000E+01  1.00800000E+00
  1.00800000E+00  1.60000000E+01  1.00800000E+00  1.00800000E+00  1.60000000E+01
  1.00800000E+00  1.00800000E+00  1.60000000E+01  1.00800000E+00  1.00800000E+00
  1.60000000E+01  1.00800000E+00  1.00800000E+00  1.60000000E+01  1.00800000E+00
  1.00800000E+00  1.60000000E+01  1.00800000E+00  1.00800000E+00  1.60000000E+01
  1.00800000E+00  1.00800000E+00  1.60000000E+01  1.00800000E+00  1.00800000E+00
  1.60000000E+01  1.00800000E+00  1.00800000E+00  1.60000000E+01  1.00800000E+00
  1.00800000E+00  1.60000000E+01  1.00800000E+00  1.00800000E+00  1.60000000E+01
  1.00800000E+00  1.00800000E+00  1.60000000E+01  1.00800000E+00  1.00800000E+00
  1.60000000E+01  1.00800000E+00  1.00800000E+00  1.60000000E+01  1.00800000E+00
  1.00800000E+00  1.60000000E+01  1.00800000E+00  1.00800000E+00  1.60000000E+01
  1.00800000E+00  1.00800000E+00  1.60000000E+01  1.00800000E+00  1.00800000E+00
  1.60000000E+01  1.00800000E+00  1.00800000E+00  1.60000000E+01  1.00800000E+00
  1.00800000E+00  1.60000000E+01  1.00800000E+00  1.00800000E+00  1.60000000E+01
  1.00800000E+00  1.00800000E+00  1.60000000E+01  1.00800000E+00  1.00800000E+00
  1.60000000E+01  1.00800000E+00  1.00800000E+00  1.60000000E+01  1.00800000E+00
  1.00800000E+00  1.60000000E+01  1.00800000E+00  1.00800000E+00  1.60000000E+01
  1.00800000E+00  1.00800000E+00  1.60000000E+01  1.00800000E+00  1.00800000E+00
  1.60000000E+01  1.00800000E+00  1.00800000E+00  1.60000000E+01  1.00800000E+00
  1.00800000E+00  1.60000000E+01  1.00800000E+00  1.00800000E+00  1.60000000E+01
  1.00800000E+00  1.00800000E+00  1.60000000E+01  1.00800000E+00  1.00800000E+00
  1.60000000E+01  1.00800000E+00  1.00800000E+00  1.60000000E+01  1.00800000E+00
  1.00800000E+00  1.60000000E+01  1.00800000E+00  1.00800000E+00  1.60000000E+01
  1.00800000E+00  1.00800000E+00  1.60000000E+01  1.00800000E+00  1.00800000E+00
  1.60000000E+01  1.00800000E+00  1.00800000E+00  1.60000000E+01  1.00800000E+00
  1.00800000E+00  1.60000000E+01  1.00800000E+00  1.00800000E+00  1.60000000E+01
  1.00800000E+00  1.00800000E+00  1.60000000E+01  1.00800000E+00  1.00800000E+00
  1.60000000E+01  1.00800000E+00  1.00800000E+00  1.60000000E+01  1.00800000E+00
  1.00800000E+00  1.60000000E+01  1.00800000E+00  1.00800000E+00  1.60000000E+01
  1.00800000E+00  1.00800000E+00  1.60000000E+01  1.00800000E+00  1.00800000E+00
  1.60000000E+01  1.00800000E+00  1.00800000E+00  1.60000000E+01  1.00800000E+00
  1.00800000E+00  1.60000000E+01  1.00800000E+00  1.00800000E+00  1.60000000E+01
  1.00800000E+00  1.00800000E+00  1.60000000E+01  1.00800000E+00  1.00800000E+00
  1.60000000E+01  1.00800000E+00  1.00800000E+00  1.60000000E+01  1.00800000E+00
  1.00800000E+00  1.60000000E+01  1.00800000E+00  1.00800000E+00  1.60000000E+01
  1.00800000E+00  1.00800000E+00  1.60000000E+01  1.00800000E+00  1.00800000E+00
  1.60000000E+01  1.00800000E+00  1.00800000E+00  1.60000000E+01  1.00800000E+00
  1.00800000E+00  1.60000000E+01  1.00800000E+00  1.00800000E+00  1.60000000E+01
  1.00800000E+00  1.00800000E+00  1.60000000E+01  1.00800000E+00  1.00800000E+00
  1.60000000E+01  1.00800000E+00  1.00800000E+00  1.60000000E+01  1.00800000E+00
  1.00800000E+00  1.60000000E+01  1.00800000E+00  1.00800000E+00  1.60000000E+01
  1.00800000E+00  1.00800000E+00  1.60000000E+01  1.00800000E+00  1.00800000E+00
  1.60000000E+01  1.00800000E+00  1.00800000E+00  1.60000000E+01  1.00800000E+00
  1.00800000E+00  1.60000000E+01  1.00800000E+00  1.00800000E+00  1.60000000E+01
  1.00800000E+00  1.00800000E+00  1.60000000E+01  1.00800000E+00  1.00800000E+00
  1.60000000E+01  1.00800000E+00  1.00800000E+00  1.60000000E+01  1.00800000E+00
  1.00800000E+00  1.60000000E+01  1.00800000E+00  1.00800000E+00  1.60000000E+01
  1.00800000E+00  1.00800000E+00  1.60000000E+01  1.00800000E+00  1.00800000E+00
  1.60000000E+01  1.00800000E+00  1.00800000E+00  1.60000000E+01  1.00800000E+00
  1.00800000E+00  1.60000000E+01  1.00800000E+00  1.00800000E+00  1.60000000E+01
  1.00800000E+00  1.00800000E+00  1.60000000E+01  1.00800000E+00  1.00800000E+00
  1.60000000E+01  1.00800000E+00  1.00800000E+00  1.60000000E+01  1.00800000E+00
  1.00800000E+00  1.60000000E+01  1.00800000E+00  1.00800000E+00  1.60000000E+01
  1.00800000E+00  1.00800000E+00  1.60000000E+01  1.00800000E+00  1.00800000E+00
  1.60000000E+01  1.00800000E+00  1.00800000E+00  1.60000000E+01  1.00800000E+00
  1.00800000E+00  1.60000000E+01  1.00800000E+00  1.00800000E+00  1.60000000E+01
  1.00800000E+00  1.00800000E+00  1.60000000E+01  1.00800000E+00  1.00800000E+00
  1.60000000E+01  1.00800000E+00  1.00800000E+00  1.60000000E+01  1.00800000E+00
  1.00800000E+00  1.60000000E+01  1.00800000E+00  1.00800000E+00  1.60000000E+01
  1.00800000E+00  1.00800000E+00  1.60000000E+01  1.00800000E+00  1.00800000E+00
  1.60000000E+01  1.00800000E+00  1.00800000E+00  1.60000000E+01  1.00800000E+00
  1.00800000E+00  1.60000000E+01  1.00800000E+00  1.00800000E+00  1.60000000E+01
  1.00800000E+00  1.00800000E+00  1.60000000E+01  1.00800000E+00  1.00800000E+00
  1.60000000E+01  1.00800000E+00  1.00800000E+00  1.60000000E+01  1.00800000E+00
  1.00800000E+00  1.60000000E+01  1.00800000E+00  1.00800000E+00  1.60000000E+01
  1.00800000E+00  1.00800000E+00  1.60000000E+01  1.00800000E+00  1.00800000E+00
  1.60000000E+01  1.00800000E+00  1.00800000E+00  1.60000000E+01  1.00800000E+00
  1.00800000E+00  1.60000000E+01  1.00800000E+00  1.00800000E+00  1.60000000E+01
  1.00800000E+00  1.00800000E+00  1.60000000E+01  1.00800000E+00  1.00800000E+00
  1.60000000E+01  1.00800000E+00  1.00800000E+00  1.60000000E+01  1.00800000E+00
  1.00800000E+00  1.60000000E+01  1.00800000E+00  1.00800000E+00  1.60000000E+01
  1.00800000E+00  1.00800000E+00  1.60000000E+01  1.00800000E+00  1.00800000E+00
  1.60000000E+01  1.00800000E+00  1.00800000E+00  1.60000000E+01  1.00800000E+00
  1.00800000E+00  1.60000000E+01  1.00800000E+00  1.00800000E+00  1.60000000E+01
  1.00800000E+00  1.00800000E+00  1.60000000E+01  1.00800000E+00  1.00800000E+00
  1.60000000E+01  1.00800000E+00  1.00800000E+00  1.60000000E+01  1.00800000E+00
  1.00800000E+00  1.60000000E+01  1.00800000E+00  1.00800000E+00  1.60000000E+01
  1.00800000E+00  1.00800000E+00  1.60000000E+01  1.00800000E+00  1.00800000E+00
  1.60000000E+01  1.00800000E+00  1.00800000E+00  1.60000000E+01  1.00800000E+00
  1.00800000E+00  1.60000000E+01  1.00800000E+00  1.00800000E+00  1.60000000E+01
  1.00800000E+00  1.00800000E+00  1.60000000E+01  1.00800000E+00  1.00800000E+00
  1.60000000E+01  1.00800000E+00  1.00800000E+00  1.60000000E+01  1.00800000E+00
  1.00800000E+00  1.60000000E+01  1.00800000E+00  1.00800000E+00  1.60000000E+01
  1.00800000E+00  1.00800000E+00  1.60000000E+01  1.00800000E+00  1.00800000E+00
  1.60000000E+01  1.00800000E+00  1.00800000E+00  1.60000000E+01  1.00800000E+00
  1.00800000E+00  1.60000000E+01  1.00800000E+00  1.00800000E+00  1.60000000E+01
  1.00800000E+00  1.00800000E+00  1.60000000E+01  1.00800000E+00  1.00800000E+00
  1.60000000E+01  1.00800000E+00  1.00800000E+00  1.60000000E+01  1.00800000E+00
  1.00800000E+00  1.60000000E+01  1.00800000E+00  1.00800000E+00  1.60000000E+01
  1.00800000E+00  1.00800000E+00  1.60000000E+01  1.00800000E+00  1.00800000E+00
  1.60000000E+01  1.00800000E+00  1.00800000E+00  1.60000000E+01  1.00800000E+00
  1.00800000E+00  1.60000000E+01  1.00800000E+00  1.00800000E+00  1.60000000E+01
  1.00800000E+00  1.00800000E+00  1.60000000E+01  1.00800000E+00  1.00800000E+00
  1.60000000E+01  1.00800000E+00  1.00800000E+00  1.60000000E+01  1.00800000E+00
  1.00800000E+00  1.60000000E+01  1.00800000E+00  1.00800000E+00  1.60000000E+01
  1.00800000E+00  1.00800000E+00  1.60000000E+01  1.00800000E+00  1.00800000E+00
  1.60000000E+01  1.00800000E+00  1.00800000E+00  1.60000000E+01  1.00800000E+00
  1.00800000E+00  1.60000000E+01  1.00800000E+00  1.00800000E+00  1.60000000E+01
  1.00800000E+00  1.00800000E+00  1.60000000E+01  1.00800000E+00  1.00800000E+00
  1.60000000E+01  1.00800000E+00  1.00800000E+00  1.60000000E+01  1.00800000E+00
  1.00800000E+00  1.60000000E+01  1.00800000E+00  1.00800000E+00  1.60000000E+01
  1.00800000E+00  1.00800000E+00  1.60000000E+01  1.00800000E+00  1.00800000E+00
  1.60000000E+01  1.00800000E+00  1.00800000E+00  1.60000000E+01  1.00800000E+00
  1.00800000E+00  1.60000000E+01  1.00800000E+00  1.00800000E+00  1.60000000E+01
  1.00800000E+00  1.00800000E+00  1.60000000E+01  1.00800000E+00  1.00800000E+00
  1.60000000E+01  1.00800000E+00  1.00800000E+00  1.60000000E+01  1.00800000E+00
  1.00800000E+00  1.60000000E+01  1.00800000E+00  1.00800000E+00  1.60000000E+01
  1.00800000E+00  1.00800000E+00  1.60000000E+01  1.00800000E+00  1.00800000E+00
  1.60000000E+01  1.00800000E+00  1.00800000E+00  1.60000000E+01  1.00800000E+00
  1.00800000E+00  1.60000000E+01  1.00800000E+00  1.00800000E+00  1.60000000E+01
  1.00800000E+00  1.00800000E+00  1.60000000E+01  1.00800000E+00  1.00800000E+00
  1.60000000E+01  1.00800000E+00  1.00800000E+00  1.60000000E+01  1.00800000E+00
  1.00800000E+00  1.60000000E+01  1.00800000E+00  1.00800000E+00  1.60000000E+01
  1.00800000E+00  1.00800000E+00  1.60000000E+01  1.00800000E+00  1.00800000E+00
  1.60000000E+01  1.00800000E+00  1.00800000E+00  1.60000000E+01  1.00800000E+00
  1.00800000E+00  1.60000000E+01  1.00800000E+00  1.00800000E+00  1.60000000E+01
  1.00800000E+00  1.00800000E+00  1.60000000E+01  1.00800000E+00  1.00800000E+00
  1.60000000E+01  1.00800000E+00  1.00800000E+00  1.60000000E+01  1.00800000E+00
  1.00800000E+00  1.60000000E+01  1.00800000E+00  1.00800000E+00  1.60000000E+01
  1.00800000E+00  1.00800000E+00  1.60000000E+01  1.00800000E+00  1.00800000E+00
  1.60000000E+01  1.00800000E+00  1.00800000E+00  1.60000000E+01  1.00800000E+00
  1.00800000E+00  1.60000000E+01  1.00800000E+00  1.00800000E+00  1.60000000E+01
  1.00800000E+00  1.00800000E+00  1.60000000E+01  1.00800000E+00  1.00800000E+00
  1.60000000E+01  1.00800000E+00  1.00800000E+00  1.60000000E+01  1.00800000E+00
  1.00800000E+00  1.60000000E+01  1.00800000E+00  1.00800000E+00  1.60000000E+01
  1.00800000E+00  1.00800000E+00  1.60000000E+01  1.00800000E+00  1.00800000E+00
  1.60000000E+01  1.00800000E+00  1.00800000E+00  1.60000000E+01  1.00800000E+00
  1.00800000E+00  1.60000000E+01  1.00800000E+00  1.00800000E+00  1.60000000E+01
  1.00800000E+00  1.00800000E+00  1.60000000E+01  1.00800000E+00  1.00800000E+00
  1.60000000E+01  1.00800000E+00  1.00800000E+00  1.60000000E+01  1.00800000E+00
  1.00800000E+00  1.60000000E+01  1.00800000E+00  1.00800000E+00  1.60000000E+01
  1.00800000E+00  1.00800000E+00  1.60000000E+01  1.00800000E+00  1.00800000E+00
  1.60000000E+01  1.00800000E+00  1.00800000E+00  1.60000000E+01  1.00800000E+00
  1.00800000E+00  1.60000000E+01  1.00800000E+00  1.00800000E+00  1.60000000E+01
  1.00800000E+00  1.00800000E+00  1.60000000E+01  1.00800000E+00  1.00800000E+00
  1.60000000E+01  1.00800000E+00  1.00800000E+00  1.60000000E+01  1.00800000E+00
  1.00800000E+00  1.60000000E+01  1.00800000E+00  1.00800000E+00  1.60000000E+01
  1.00800000E+00  1.00800000E+00  1.60000000E+01  1.00800000E+00  1.00800000E+00
  1.60000000E+01  1.00800000E+00  1.00800000E+00  1.60000000E+01  1.00800000E+00
  1.00800000E+00  1.60000000E+01  1.00800000E+00  1.00800000E+00  1.60000000E+01
  1.00800000E+00  1.00800000E+00  1.60000000E+01  1.00800000E+00  1.00800000E+00
  1.60000000E+01  1.00800000E+00  1.00800000E+00  1.60000000E+01  1.00800000E+00
  1.00800000E+00  1.60000000E+01  1.00800000E+00  1.00800000E+00  1.60000000E+01
  1.00800000E+00  1.00800000E+00  1.60000000E+01  1.00800000E+00  1.00800000E+00
  1.60000000E+01  1.00800000E+00  1.00800000E+00  1.60000000E+01  1.00800000E+00
  1.00800000E+00  1.60000000E+01  1.00800000E+00  1.00800000E+00  1.60000000E+01
  1.00800000E+00  1.00800000E+00  1.60000000E+01  1.00800000E+00  1.00800000E+00
  1.60000000E+01  1.00800000E+00  1.00800000E+00  1.60000000E+01  1.00800000E+00
  1.00800000E+00  1.60000000E+01  1.00800000E+00  1.00800000E+00  1.60000000E+01
  1.00800000E+00  1.00800000E+00  1.60000000E+01  1.00800000E+00  1.00800000E+00
  1.60000000E+01  1.00800000E+00  1.00800000E+00  1.60000000E+01  1.00800000E+00
  1.00800000E+00  1.60000000E+01  1.00800000E+00  1.00800000E+00  1.60000000E+01
  1.00800000E+00  1.00800000E+00  1.60000000E+01  1.00800000E+00  1.00800000E+00
  1.60000000E+01  1.00800000E+00  1.00800000E+00  1.60000000E+01  1.00800000E+00
  1.00800000E+00  1.60000000E+01  1.00800000E+00  1.00800000E+00  1.60000000E+01
  1.00800000E+00  1.00800000E+00  1.60000000E+01  1.00800000E+00  1.00800000E+00
  1.60000000E+01  1.00800000E+00  1.00800000E+00  1.60000000E+01  1.00800000E+00
  1.00800000E+00  1.60000000E+01  1.00800000E+00  1.00800000E+00  1.60000000E+01
  1.00800000E+00  1.00800000E+00  1.60000000E+01  1.00800000E+00  1.00800000E+00
  1.60000000E+01  1.00800000E+00  1.00800000E+00  1.60000000E+01  1.00800000E+00
  1.00800000E+00  1.60000000E+01  1.00800000E+00  1.00800000E+00  1.60000000E+01
  1.00800000E+00  1.00800000E+00  1.60000000E+01  1.00800000E+00  1.00800000E+00
  1.60000000E+01  1.00800000E+00  1.00800000E+00  1.60000000E+01  1.00800000E+00
  1.00800000E+00  1.60000000E+01  1.00800000E+00  1.00800000E+00  1.60000000E+01
  1.00800000E+00  1.00800000E+00  1.60000000E+01  1.00800000E+00  1.00800000E+00
  1.60000000E+01  1.00800000E+00  1.00800000E+00  1.60000000E+01  1.00800000E+00
  1.00800000E+00  1.60000000E+01  1.00800000E+00  1.00800000E+00  1.60000000E+01
  1.00800000E+00  1.00800000E+00  1.60000000E+01  1.00800000E+00  1.00800000E+00
  1.60000000E+01  1.00800000E+00  1.00800000E+00  1.60000000E+01  1.00800000E+00
  1.00800000E+00  1.60000000E+01  1.00800000E+00  1.00800000E+00  1.60000000E+01
  1.00800000E+00  1.00800000E+00  1.60000000E+01  1.00800000E+00  1.00800000E+00
  1.60000000E+01  1.00800000E+00  1.00800000E+00  1.60000000E+01  1.00800000E+00
  1.00800000E+00  1.60000000E+01  1.00800000E+00  1.00800000E+00  1.60000000E+01
  1.00800000E+00  1.00800000E+00  1.60000000E+01  1.00800000E+00  1.00800000E+00
  1.60000000E+01  1.00800000E+00  1.00800000E+00  1.60000000E+01  1.00800000E+00
  1.00800000E+00  1.60000000E+01  1.00800000E+00  1.00800000E+00  1.60000000E+01
  1.00800000E+00  1.00800000E+00  1.60000000E+01  1.00800000E+00  1.00800000E+00
  1.60000000E+01  1.00800000E+00  1.00800000E+00  1.60000000E+01  1.00800000E+00
  1.00800000E+00  1.60000000E+01  1.00800000E+00  1.00800000E+00  1.60000000E+01
  1.00800000E+00  1.00800000E+00  1.60000000E+01  1.00800000E+00  1.00800000E+00
  1.60000000E+01  1.00800000E+00  1.00800000E+00  1.60000000E+01  1.00800000E+00
  1.00800000E+00  1.60000000E+01  1.00800000E+00  1.00800000E+00  1.60000000E+01
  1.00800000E+00  1.00800000E+00  1.60000000E+01  1.00800000E+00  1.00800000E+00
  1.60000000E+01  1.00800000E+00  1.00800000E+00  1.60000000E+01  1.00800000E+00
  1.00800000E+00  1.60000000E+01  1.00800000E+00  1.00800000E+00  1.60000000E+01
  1.00800000E+00  1.00800000E+00  1.60000000E+01  1.00800000E+00  1.00800000E+00
  1.60000000E+01  1.00800000E+00  1.00800000E+00  1.60000000E+01  1.00800000E+00
  1.00800000E+00  1.60000000E+01  1.00800000E+00  1.00800000E+00  1.60000000E+01
  1.00800000E+00  1.00800000E+00  1.60000000E+01  1.00800000E+00  1.00800000E+00
  1.60000000E+01  1.00800000E+00  1.00800000E+00  1.60000000E+01  1.00800000E+00
  1.00800000E+00  1.60000000E+01  1.00800000E+00  1.00800000E+00  1.60000000E+01
  1.00800000E+00  1.00800000E+00  1.60000000E+01  1.00800000E+00  1.00800000E+00
  1.60000000E+01  1.00800000E+00  1.00800000E+00  1.60000000E+01  1.00800000E+00
  1.00800000E+00  1.60000000E+01  1.00800000E+00  1.00800000E+00  1.60000000E+01
  1.00800000E+00  1.00800000E+00  1.60000000E+01  1.00800000E+00  1.00800000E+00
  1.60000000E+01  1.00800000E+00  1.00800000E+00  1.60000000E+01  1.00800000E+00
  1.00800000E+00  1.60000000E+01  1.00800000E+00  1.00800000E+00  1.60000000E+01
  1.00800000E+00  1.00800000E+00  1.60000000E+01  1.00800000E+00  1.00800000E+00
  1.60000000E+01  1.00800000E+00  1.00800000E+00  1.60000000E+01  1.00800000E+00
  1.00800000E+00  1.60000000E+01  1.00800000E+00  1.00800000E+00  1.60000000E+01
  1.00800000E+00  1.00800000E+00  1.60000000E+01  1.00800000E+00  1.00800000E+00
  1.60000000E+01  1.00800000E+00  1.00800000E+00  1.60000000E+01  1.00800000E+00
  1.00800000E+00  1.60000000E+01  1.00800000E+00  1.00800000E+00  1.60000000E+01
  1.00800000E+00  1.00800000E+00  1.60000000E+01  1.00800000E+00  1.00800000E+00
  1.60000000E+01  1.00800000E+00  1.00800000E+00  1.60000000E+01  1.00800000E+00
  1.00800000E+00  1.60000000E+01  1.00800000E+00  1.00800000E+00  1.60000000E+01
  1.00800000E+00  1.00800000E+00  1.60000000E+01  1.00800000E+00  1.00800000E+00
  1.60000000E+01  1.00800000E+00  1.00800000E+00  1.60000000E+01  1.00800000E+00
  1.00800000E+00  1.60000000E+01  1.00800000E+00  1.00800000E+00  1.60000000E+01
  1.00800000E+00  1.00800000E+00  1.60000000E+01  1.00800000E+00  1.00800000E+00
  1.60000000E+01  1.00800000E+00  1.00800000E+00  1.60000000E+01  1.00800000E+00
  1.00800000E+00  1.60000000E+01  1.00800000E+00  1.00800000E+00  1.60000000E+01
  1.00800000E+00  1.00800000E+00  1.60000000E+01  1.00800000E+00  1.00800000E+00
  1.60000000E+01  1.00800000E+00  1.00800000E+00  1.60000000E+01  1.00800000E+00
  1.00800000E+00  1.60000000E+01  1.00800000E+00  1.00800000E+00  1.60000000E+01
  1.00800000E+00  1.00800000E+00  1.60000000E+01  1.00800000E+00  1.00800000E+00
  1.60000000E+01  1.00800000E+00  1.00800000E+00  1.60000000E+01  1.00800000E+00
  1.00800000E+00  1.60000000E+01  1.00800000E+00  1.00800000E+00  1.60000000E+01
  1.00800000E+00  1.00800000E+00  1.60000000E+01  1.00800000E+00  1.00800000E+00
  1.60000000E+01  1.00800000E+00  1.00800000E+00  1.60000000E+01  1.00800000E+00
  1.00800000E+00  1.60000000E+01  1.00800000E+00  1.00800000E+00  1.60000000E+01
  1.00800000E+00  1.00800000E+00  1.60000000E+01  1.00800000E+00  1.00800000E+00
  1.60000000E+01  1.00800000E+00  1.00800000E+00  1.60000000E+01  1.00800000E+00
  1.00800000E+00  1.60000000E+01  1.00800000E+00  1.00800000E+00  1.60000000E+01
  1.00800000E+00  1.00800000E+00  1.60000000E+01  1.00800000E+00  1.00800000E+00
  1.60000000E+01  1.00800000E+00  1.00800000E+00  1.60000000E+01  1.00800000E+00
  1.00800000E+00  1.60000000E+01  1.00800000E+00  1.00800000E+00  1.60000000E+01
  1.00800000E+00  1.00800000E+00  1.60000000E+01  1.00800000E+00  1.00800000E+00
  1.60000000E+01  1.00800000E+00  1.00800000E+00  1.60000000E+01  1.00800000E+00
  1.00800000E+00  1.60000000E+01  1.00800000E+00  1.00800000E+00  1.60000000E+01
  1.00800000E+00  1.00800000E+00  1.60000000E+01  1.00800000E+00  1.00800000E+00
  1.60000000E+01  1.00800000E+00  1.00800000E+00  1.60000000E+01  1.00800000E+00
  1.00800000E+00  1.60000000E+01  1.00800000E+00  1.00800000E+00  1.60000000E+01
  1.00800000E+00  1.00800000E+00  1.60000000E+01  1.00800000E+00  1.00800000E+00
  1.60000000E+01  1.00800000E+00  1.00800000E+00  1.60000000E+01  1.00800000E+00
  1.00800000E+00  1.60000000E+01  1.00800000E+00  1.00800000E+00  1.60000000E+01
  1.00800000E+00  1.00800000E+00  1.60000000E+01  1.00800000E+00  1.00800000E+00
  1.60000000E+01  1.00800000E+00  1.00800000E+00  1.60000000E+01  1.00800000E+00
  1.00800000E+00  1.60000000E+01  1.00800000E+00  1.00800000E+00  1.60000000E+01
  1.00800000E+00  1.00800000E+00  1.60000000E+01  1.00800000E+00  1.00800000E+00
  1.60000000E+01  1.00800000E+00  1.00800000E+00  1.60000000E+01  1.00800000E+00
  1.00800000E+00  1.60000000E+01  1.00800000E+00  1.00800000E+00  1.60000000E+01
  1.00800000E+00  1.00800000E+00  1.60000000E+01  1.00800000E+00  1.00800000E+00
  1.60000000E+01  1.00800000E+00  1.00800000E+00  1.60000000E+01  1.00800000E+00
  1.00800000E+00  1.60000000E+01  1.00800000E+00  1.00800000E+00  1.60000000E+01
  1.00800000E+00  1.00800000E+00  1.60000000E+01  1.00800000E+00  1.00800000E+00
  1.60000000E+01  1.00800000E+00  1.00800000E+00  1.60000000E+01  1.00800000E+00
  1.00800000E+00  1.60000000E+01  1.00800000E+00  1.00800000E+00  1.60000000E+01
  1.00800000E+00  1.00800000E+00  1.60000000E+01  1.00800000E+00  1.00800000E+00
  1.60000000E+01  1.00800000E+00  1.00800000E+00  1.60000000E+01  1.00800000E+00
  1.00800000E+00  1.60000000E+01  1.00800000E+00  1.00800000E+00  1.60000000E+01
  1.00800000E+00  1.00800000E+00  1.60000000E+01  1.00800000E+00  1.00800000E+00
  1.60000000E+01  1.00800000E+00  1.00800000E+00  1.60000000E+01  1.00800000E+00
  1.00800000E+00  1.60000000E+01  1.00800000E+00  1.00800000E+00  1.60000000E+01
  1.00800000E+00  1.00800000E+00  1.60000000E+01  1.00800000E+00  1.00800000E+00
  1.60000000E+01  1.00800000E+00  1.00800000E+00  1.60000000E+01  1.00800000E+00
  1.00800000E+00  1.60000000E+01  1.00800000E+00  1.00800000E+00  1.60000000E+01
  1.00800000E+00  1.00800000E+00  1.60000000E+01  1.00800000E+00  1.00800000E+00
  1.60000000E+01  1.00800000E+00  1.00800000E+00  1.60000000E+01  1.00800000E+00
  1.00800000E+00  1.60000000E+01  1.00800000E+00  1.00800000E+00  1.60000000E+01
  1.00800000E+00  1.00800000E+00  1.60000000E+01  1.00800000E+00  1.00800000E+00
  1.60000000E+01  1.00800000E+00  1.00800000E+00  1.60000000E+01  1.00800000E+00
  1.00800000E+00  1.60000000E+01  1.00800000E+00  1.00800000E+00  1.60000000E+01
  1.00800000E+00  1.00800000E+00  1.60000000E+01  1.00800000E+00  1.00800000E+00
  1.60000000E+01  1.00800000E+00  1.00800000E+00  1.60000000E+01  1.00800000E+00
  1.00800000E+00  1.60000000E+01  1.00800000E+00  1.00800000E+00  1.60000000E+01
  1.00800000E+00  1.00800000E+00  1.60000000E+01  1.00800000E+00  1.00800000E+00
  1.60000000E+01  1.00800000E+00  1.00800000E+00  1.60000000E+01  1.00800000E+00
  1.00800000E+00  1.60000000E+01  1.00800000E+00  1.00800000E+00  1.60000000E+01
  1.00800000E+00  1.00800000E+00  1.60000000E+01  1.00800000E+00  1.00800000E+00
  1.60000000E+01  1.00800000E+00  1.00800000E+00  1.60000000E+01  1.00800000E+00
  1.00800000E+00  1.60000000E+01  1.00800000E+00  1.00800000E+00  1.60000000E+01
  1.00800000E+00  1.00800000E+00  1.60000000E+01  1.00800000E+00  1.00800000E+00
  1.60000000E+01  1.00800000E+00  1.00800000E+00  1.60000000E+01  1.00800000E+00
  1.00800000E+00  1.60000000E+01  1.00800000E+00  1.00800000E+00  1.60000000E+01
  1.00800000E+00  1.00800000E+00  1.60000000E+01  1.00800000E+00  1.00800000E+00
  1.60000000E+01  1.00800000E+00  1.00800000E+00  1.60000000E+01  1.00800000E+00
  1.00800000E+00  1.60000000E+01  1.00800000E+00  1.00800000E+00  1.60000000E+01
  1.00800000E+00  1.00800000E+00  1.60000000E+01  1.00800000E+00  1.00800000E+00
  1.60000000E+01  1.00800000E+00  1.00800000E+00  1.60000000E+01  1.00800000E+00
  1.00800000E+00  1.60000000E+01  1.00800000E+00  1.00800000E+00  1.60000000E+01
  1.00800000E+00  1.00800000E+00  1.60000000E+01  1.00800000E+00  1.00800000E+00
  1.60000000E+01  1.00800000E+00  1.00800000E+00  1.60000000E+01  1.00800000E+00
  1.00800000E+00  1.60000000E+01  1.00800000E+00  1.00800000E+00  1.60000000E+01
  1.00800000E+00  1.00800000E+00  1.60000000E+01  1.00800000E+00  1.00800000E+00
  1.60000000E+01  1.00800000E+00  1.00800000E+00  1.60000000E+01  1.00800000E+00
  1.00800000E+00  1.60000000E+01  1.00800000E+00  1.00800000E+00  1.60000000E+01
  1.00800000E+00  1.00800000E+00  1.60000000E+01  1.00800000E+00  1.00800000E+00
  1.60000000E+01  1.00800000E+00  1.00800000E+00  1.60000000E+01  1.00800000E+00
  1.00800000E+00  1.60000000E+01  1.00800000E+00  1.00800000E+00  1.60000000E+01
  1.00800000E+00  1.00800000E+00  1.60000000E+01  1.00800000E+00  1.00800000E+00
  1.60000000E+01  1.00800000E+00  1.00800000E+00  1.60000000E+01  1.00800000E+00
  1.00800000E+00  1.60000000E+01  1.00800000E+00  1.00800000E+00  1.60000000E+01
  1.00800000E+00  1.00800000E+00  1.60000000E+01  1.00800000E+00  1.00800000E+00
  1.60000000E+01  1.00800000E+00  1.00800000E+00  1.60000000E+01  1.00800000E+00
  1.00800000E+00  1.60000000E+01  1.00800000E+00  1.00800000E+00  1.60000000E+01
  1.00800000E+00  1.00800000E+00  1.60000000E+01  1.00800000E+00  1.00800000E+00
  1.60000000E+01  1.00800000E+00  1.00800000E+00  1.60000000E+01  1.00800000E+00
  1.00800000E+00  1.60000000E+01  1.00800000E+00  1.00800000E+00  1.60000000E+01
  1.00800000E+00  1.00800000E+00  1.60000000E+01  1.00800000E+00  1.00800000E+00
  1.60000000E+01  1.00800000E+00  1.00800000E+00  1.60000000E+01  1.00800000E+00
  1.00800000E+00  1.60000000E+01  1.00800000E+00  1.00800000E+00  1.60000000E+01
  1.00800000E+00  1.00800000E+00  1.60000000E+01  1.00800000E+00  1.00800000E+00
  1.60000000E+01  1.00800000E+00  1.00800000E+00  1.60000000E+01  1.00800000E+00
  1.00800000E+00  1.60000000E+01  1.00800000E+00  1.00800000E+00  1.60000000E+01
  1.00800000E+00  1.00800000E+00  1.60000000E+01  1.00800000E+00  1.00800000E+00
  1.60000000E+01  1.00800000E+00  1.00800000E+00  1.60000000E+01  1.00800000E+00
  1.00800000E+00  1.60000000E+01  1.00800000E+00  1.00800000E+00  1.60000000E+01
  1.00800000E+00  1.00800000E+00  1.60000000E+01  1.00800000E+00  1.00800000E+00
  1.60000000E+01  1.00800000E+00  1.00800000E+00  1.60000000E+01  1.00800000E+00
  1.00800000E+00  1.60000000E+01  1.00800000E+00  1.00800000E+00  1.60000000E+01
  1.00800000E+00  1.00800000E+00  1.60000000E+01  1.00800000E+00  1.00800000E+00
  1.60000000E+01  1.00800000E+00  1.00800000E+00  1.60000000E+01  1.00800000E+00
  1.00800000E+00  1.60000000E+01  1.00800000E+00  1.00800000E+00  1.60000000E+01
  1.00800000E+00  1.00800000E+00  1.60000000E+01  1.00800000E+00  1.00800000E+00
  1.60000000E+01  1.00800000E+00  1.00800000E+00  1.60000000E+01  1.00800000E+00
  1.00800000E+00  1.60000000E+01  1.00800000E+00  1.00800000E+00  1.60000000E+01
  1.00800000E+00  1.00800000E+00  1.60000000E+01  1.00800000E+00  1.00800000E+00
  1.60000000E+01  1.00800000E+00  1.00800000E+00  1.60000000E+01  1.00800000E+00
  1.00800000E+00  1.60000000E+01  1.00800000E+00  1.00800000E+00  1.60000000E+01
  1.00800000E+00  1.00800000E+00  1.60000000E+01  1.00800000E+00  1.00800000E+00
  1.60000000E+01  1.00800000E+00  1.00800000E+00  1.60000000E+01  1.00800000E+00
  1.00800000E+00  1.60000000E+01  1.00800000E+00  1.00800000E+00  1.60000000E+01
  1.00800000E+00  1.00800000E+00  1.60000000E+01  1.00800000E+00  1.00800000E+00
  1.60000000E+01  1.00800000E+00  1.00800000E+00  1.60000000E+01  1.00800000E+00
  1.00800000E+00  1.60000000E+01  1.00800000E+00  1.00800000E+00  1.60000000E+01
  1.00800000E+00  1.00800000E+00  1.60000000E+01  1.00800000E+00  1.00800000E+00
  1.60000000E+01  1.00800000E+00  1.00800000E+00  1.60000000E+01  1.00800000E+00
  1.00800000E+00  1.60000000E+01  1.00800000E+00  1.00800000E+00  1.60000000E+01
  1.00800000E+00  1.00800000E+00  1.60000000E+01  1.00800000E+00  1.00800000E+00
  1.60000000E+01  1.00800000E+00  1.00800000E+00  1.60000000E+01  1.00800000E+00
  1.00800000E+00  1.60000000E+01  1.00800000E+00  1.00800000E+00  1.60000000E+01
  1.00800000E+00  1.00800000E+00  1.60000000E+01  1.00800000E+00  1.00800000E+00
  1.60000000E+01  1.00800000E+00  1.00800000E+00  1.60000000E+01  1.00800000E+00
  1.00800000E+00  1.60000000E+01  1.00800000E+00  1.00800000E+00  1.60000000E+01
  1.00800000E+00  1.00800000E+00  1.60000000E+01  1.00800000E+00  1.00800000E+00
  1.60000000E+01  1.00800000E+00  1.00800000E+00  1.60000000E+01  1.00800000E+00
  1.00800000E+00  1.60000000E+01  1.00800000E+00  1.00800000E+00  1.60000000E+01
  1.00800000E+00  1.00800000E+00  1.60000000E+01  1.00800000E+00  1.00800000E+00
  1.60000000E+01  1.00800000E+00  1.00800000E+00  1.60000000E+01  1.00800000E+00
  1.00800000E+00  1.60000000E+01  1.00800000E+00  1.00800000E+00  1.60000000E+01
  1.00800000E+00  1.00800000E+00  1.60000000E+01  1.00800000E+00  1.00800000E+00
  1.60000000E+01  1.00800000E+00  1.00800000E+00  1.60000000E+01  1.00800000E+00
  1.00800000E+00  1.60000000E+01  1.00800000E+00  1.00800000E+00  1.60000000E+01
  1.00800000E+00  1.00800000E+00  1.60000000E+01  1.00800000E+00  1.00800000E+00
  1.60000000E+01  1.00800000E+00  1.00800000E+00  1.60000000E+01  1.00800000E+00
  1.00800000E+00  1.60000000E+01  1.00800000E+00  1.00800000E+00  1.60000000E+01
  1.00800000E+00  1.00800000E+00  1.60000000E+01  1.00800000E+00  1.00800000E+00
  1.60000000E+01  1.00800000E+00  1.00800000E+00  1.60000000E+01  1.00800000E+00
  1.00800000E+00  1.60000000E+01  1.00800000E+00  1.00800000E+00  1.60000000E+01
  1.00800000E+00  1.00800000E+00  1.60000000E+01  1.00800000E+00  1.00800000E+00
  1.60000000E+01  1.00800000E+00  1.00800000E+00  1.60000000E+01  1.00800000E+00
  1.00800000E+00  1.60000000E+01  1.00800000E+00  1.00800000E+00  1.60000000E+01
  1.00800000E+00  1.00800000E+00  1.60000000E+01  1.00800000E+00  1.00800000E+00
  1.60000000E+01  1.00800000E+00  1.00800000E+00  1.60000000E+01  1.00800000E+00
  1.00800000E+00  1.60000000E+01  1.00800000E+00  1.00800000E+00  1.60000000E+01
  1.00800000E+00  1.00800000E+00  1.60000000E+01  1.00800000E+00  1.00800000E+00
  1.60000000E+01  1.00800000E+00  1.00800000E+00  1.60000000E+01  1.00800000E+00
  1.00800000E+00  1.60000000E+01  1.00800000E+00  1.00800000E+00  1.60000000E+01
  1.00800000E+00  1.00800000E+00  1.60000000E+01  1.00800000E+00  1.00800000E+00
  1.60000000E+01  1.00800000E+00  1.00800000E+00  1.60000000E+01  1.00800000E+00
  1.00800000E+00  1.60000000E+01  1.00800000E+00  1.00800000E+00  1.60000000E+01
  1.00800000E+00  1.00800000E+00  1.60000000E+01  1.00800000E+00  1.00800000E+00
  1.60000000E+01  1.00800000E+00  1.00800000E+00  1.60000000E+01  1.00800000E+00
  1.00800000E+00  1.60000000E+01  1.00800000E+00  1.00800000E+00  1.60000000E+01
  1.00800000E+00  1.00800000E+00  1.60000000E+01  1.00800000E+00  1.00800000E+00
  1.60000000E+01  1.00800000E+00  1.00800000E+00  1.60000000E+01  1.00800000E+00
  1.00800000E+00  1.60000000E+01  1.00800000E+00  1.00800000E+00  1.60000000E+01
  1.00800000E+00  1.00800000E+00  1.60000000E+01  1.00800000E+00  1.00800000E+00
  1.60000000E+01  1.00800000E+00  1.00800000E+00  1.60000000E+01  1.00800000E+00
  1.00800000E+00  1.60000000E+01  1.00800000E+00  1.00800000E+00  1.60000000E+01
  1.00800000E+00  1.00800000E+00  1.60000000E+01  1.00800000E+00  1.00800000E+00
  1.60000000E+01  1.00800000E+00  1.00800000E+00  1.60000000E+01  1.00800000E+00
  1.00800000E+00  1.60000000E+01  1.00800000E+00  1.00800000E+00  1.60000000E+01
  1.00800000E+00  1.00800000E+00  1.60000000E+01  1.00800000E+00  1.00800000E+00
  1.60000000E+01  1.00800000E+00  1.00800000E+00  1.60000000E+01  1.00800000E+00
  1.00800000E+00  1.60000000E+01  1.00800000E+00  1.00800000E+00  1.60000000E+01
  1.00800000E+00  1.00800000E+00  1.60000000E+01  1.00800000E+00  1.00800000E+00
  1.60000000E+01  1.00800000E+00  1.00800000E+00  1.60000000E+01  1.00800000E+00
  1.00800000E+00  1.60000000E+01  1.00800000E+00  1.00800000E+00  1.60000000E+01
  1.00800000E+00  1.00800000E+00  1.60000000E+01  1.00800000E+00  1.00800000E+00
  1.60000000E+01  1.00800000E+00  1.00800000E+00  1.60000000E+01  1.00800000E+00
  1.00800000E+00  1.60000000E+01  1.00800000E+00  1.00800000E+00  1.60000000E+01
  1.00800000E+00  1.00800000E+00  1.60000000E+01  1.00800000E+00  1.00800000E+00
  1.60000000E+01  1.00800000E+00  1.00800000E+00  1.60000000E+01  1.00800000E+00
  1.00800000E+00  1.60000000E+01  1.00800000E+00  1.00800000E+00  1.60000000E+01
  1.00800000E+00  1.00800000E+00  1.60000000E+01  1.00800000E+00  1.00800000E+00
  1.60000000E+01  1.00800000E+00  1.00800000E+00  1.60000000E+01  1.00800000E+00
  1.00800000E+00  1.60000000E+01  1.00800000E+00  1.00800000E+00  1.60000000E+01
  1.00800000E+00  1.00800000E+00  1.60000000E+01  1.00800000E+00  1.00800000E+00
  1.60000000E+01  1.00800000E+00  1.00800000E+00  1.60000000E+01  1.00800000E+00
  1.00800000E+00  1.60000000E+01  1.00800000E+00  1.00800000E+00  1.60000000E+01
  1.00800000E+00  1.00800000E+00  1.60000000E+01  1.00800000E+00  1.00800000E+00
  1.60000000E+01  1.00800000E+00  1.00800000E+00  1.60000000E+01  1.00800000E+00
  1.00800000E+00  1.60000000E+01  1.00800000E+00  1.00800000E+00  1.60000000E+01
  1.00800000E+00  1.00800000E+00  1.60000000E+01  1.00800000E+00  1.00800000E+00
  1.60000000E+01  1.00800000E+00  1.00800000E+00  1.60000000E+01  1.00800000E+00
  1.00800000E+00  1.60000000E+01  1.00800000E+00  1.00800000E+00  1.60000000E+01
  1.00800000E+00  1.00800000E+00  1.60000000E+01  1.00800000E+00  1.00800000E+00
  1.60000000E+01  1.00800000E+00  1.00800000E+00  1.60000000E+01  1.00800000E+00
  1.00800000E+00  1.60000000E+01  1.00800000E+00  1.00800000E+00  1.60000000E+01
  1.00800000E+00  1.00800000E+00  1.60000000E+01  1.00800000E+00  1.00800000E+00
  1.60000000E+01  1.00800000E+00  1.00800000E+00  1.60000000E+01  1.00800000E+00
  1.00800000E+00  1.60000000E+01  1.00800000E+00  1.00800000E+00  1.60000000E+01
  1.00800000E+00  1.00800000E+00  1.60000000E+01  1.00800000E+00  1.00800000E+00
  1.60000000E+01  1.00800000E+00  1.00800000E+00  1.60000000E+01  1.00800000E+00
  1.00800000E+00  1.60000000E+01  1.00800000E+00  1.00800000E+00  1.60000000E+01
  1.00800000E+00  1.00800000E+00  1.60000000E+01  1.00800000E+00  1.00800000E+00
  1.60000000E+01  1.00800000E+00  1.00800000E+00  1.60000000E+01  1.00800000E+00
  1.00800000E+00  1.60000000E+01  1.00800000E+00  1.00800000E+00  1.60000000E+01
  1.00800000E+00  1.00800000E+00  1.60000000E+01  1.00800000E+00  1.00800000E+00
  1.60000000E+01  1.00800000E+00  1.00800000E+00  1.60000000E+01  1.00800000E+00
  1.00800000E+00  1.60000000E+01  1.00800000E+00  1.00800000E+00  1.60000000E+01
  1.00800000E+00  1.00800000E+00  1.60000000E+01  1.00800000E+00  1.00800000E+00
  1.60000000E+01  1.00800000E+00  1.00800000E+00  1.60000000E+01  1.00800000E+00
  1.00800000E+00  1.60000000E+01  1.00800000E+00  1.00800000E+00  1.60000000E+01
  1.00800000E+00  1.00800000E+00  1.60000000E+01  1.00800000E+00  1.00800000E+00
  1.60000000E+01  1.00800000E+00  1.00800000E+00  1.60000000E+01  1.00800000E+00
  1.00800000E+00  1.60000000E+01  1.00800000E+00  1.00800000E+00  1.60000000E+01
  1.00800000E+00  1.00800000E+00  1.60000000E+01  1.00800000E+00  1.00800000E+00
  1.60000000E+01  1.00800000E+00  1.00800000E+00  1.60000000E+01  1.00800000E+00
  1.00800000E+00  1.60000000E+01  1.00800000E+00  1.00800000E+00  1.60000000E+01
  1.00800000E+00  1.00800000E+00  1.60000000E+01  1.00800000E+00  1.00800000E+00
  1.60000000E+01  1.00800000E+00  1.00800000E+00  1.60000000E+01  1.00800000E+00
  1.00800000E+00  1.60000000E+01  1.00800000E+00  1.00800000E+00  1.60000000E+01
  1.00800000E+00  1.00800000E+00  1.60000000E+01  1.00800000E+00  1.00800000E+00
  1.60000000E+01  1.00800000E+00  1.00800000E+00  1.60000000E+01  1.00800000E+00
  1.00800000E+00  1.60000000E+01  1.00800000E+00  1.00800000E+00  1.60000000E+01
  1.00800000E+00  1.00800000E+00  1.60000000E+01  1.00800000E+00  1.00800000E+00
  1.60000000E+01  1.00800000E+00  1.00800000E+00  1.60000000E+01  1.00800000E+00
  1.00800000E+00  1.60000000E+01  1.00800000E+00  1.00800000E+00  1.60000000E+01
  1.00800000E+00  1.00800000E+00  1.60000000E+01  1.00800000E+00  1.00800000E+00
  1.60000000E+01  1.00800000E+00  1.00800000E+00  1.60000000E+01  1.00800000E+00
  1.00800000E+00  1.60000000E+01  1.00800000E+00  1.00800000E+00  1.60000000E+01
  1.00800000E+00  1.00800000E+00  1.60000000E+01  1.00800000E+00  1.00800000E+00
  1.60000000E+01  1.00800000E+00  1.00800000E+00  1.60000000E+01  1.00800000E+00
  1.00800000E+00  1.60000000E+01  1.00800000E+00  1.00800000E+00  1.60000000E+01
  1.00800000E+00  1.00800000E+00  1.60000000E+01  1.00800000E+00  1.00800000E+00
  1.60000000E+01  1.00800000E+00  1.00800000E+00  1.60000000E+01  1.00800000E+00
  1.00800000E+00  1.60000000E+01  1.00800000E+00  1.00800000E+00  1.60000000E+01
  1.00800000E+00  1.00800000E+00  1.60000000E+01  1.00800000E+00  1.00800000E+00
  1.60000000E+01  1.00800000E+00  1.00800000E+00  1.60000000E+01  1.00800000E+00
  1.00800000E+00  1.60000000E+01  1.00800000E+00  1.00800000E+00  1.60000000E+01
  1.00800000E+00  1.00800000E+00  1.60000000E+01  1.00800000E+00  1.00800000E+00
  1.60000000E+01  1.00800000E+00  1.00800000E+00  1.60000000E+01  1.00800000E+00
  1.00800000E+00  1.60000000E+01  1.00800000E+00  1.00800000E+00  1.60000000E+01
  1.00800000E+00  1.00800000E+00  1.60000000E+01  1.00800000E+00  1.00800000E+00
  1.60000000E+01  1.00800000E+00  1.00800000E+00  1.60000000E+01  1.00800000E+00
  1.00800000E+00  1.60000000E+01  1.00800000E+00  1.00800000E+00  1.60000000E+01
  1.00800000E+00  1.00800000E+00  1.60000000E+01  1.00800000E+00  1.00800000E+00
  1.60000000E+01  1.00800000E+00  1.00800000E+00  1.60000000E+01  1.00800000E+00
  1.00800000E+00  1.60000000E+01  1.00800000E+00  1.00800000E+00  1.60000000E+01
  1.00800000E+00  1.00800000E+00  1.60000000E+01  1.00800000E+00  1.00800000E+00
  1.60000000E+01  1.00800000E+00  1.00800000E+00  1.60000000E+01  1.00800000E+00
  1.00800000E+00  1.60000000E+01  1.00800000E+00  1.00800000E+00  1.60000000E+01
  1.00800000E+00  1.00800000E+00  1.60000000E+01  1.00800000E+00  1.00800000E+00
  1.60000000E+01  1.00800000E+00  1.00800000E+00  1.60000000E+01  1.00800000E+00
  1.00800000E+00  1.60000000E+01  1.00800000E+00  1.00800000E+00  1.60000000E+01
  1.00800000E+00  1.00800000E+00  1.60000000E+01  1.00800000E+00  1.00800000E+00
  1.60000000E+01  1.00800000E+00  1.00800000E+00  1.60000000E+01  1.00800000E+00
  1.00800000E+00  1.60000000E+01  1.00800000E+00  1.00800000E+00  1.60000000E+01
  1.00800000E+00  1.00800000E+00  1.60000000E+01  1.00800000E+00  1.00800000E+00
  1.60000000E+01  1.00800000E+00  1.00800000E+00  1.60000000E+01  1.00800000E+00
  1.00800000E+00  1.60000000E+01  1.00800000E+00  1.00800000E+00  1.60000000E+01
  1.00800000E+00  1.00800000E+00  1.60000000E+01  1.00800000E+00  1.00800000E+00
  1.60000000E+01  1.00800000E+00  1.00800000E+00  1.60000000E+01  1.00800000E+00
  1.00800000E+00  1.60000000E+01  1.00800000E+00  1.00800000E+00  1.60000000E+01
  1.00800000E+00  1.00800000E+00  1.60000000E+01  1.00800000E+00  1.00800000E+00
  1.60000000E+01  1.00800000E+00  1.00800000E+00  1.60000000E+01  1.00800000E+00
  1.00800000E+00  1.60000000E+01  1.00800000E+00  1.00800000E+00  1.60000000E+01
  1.00800000E+00  1.00800000E+00  1.60000000E+01  1.00800000E+00  1.00800000E+00
  1.60000000E+01  1.00800000E+00  1.00800000E+00  1.60000000E+01  1.00800000E+00
  1.00800000E+00  1.60000000E+01  1.00800000E+00  1.00800000E+00  1.60000000E+01
  1.00800000E+00  1.00800000E+00  1.60000000E+01  1.00800000E+00  1.00800000E+00
  1.60000000E+01  1.00800000E+00  1.00800000E+00  1.60000000E+01  1.00800000E+00
  1.00800000E+00  1.60000000E+01  1.00800000E+00  1.00800000E+00  1.60000000E+01
  1.00800000E+00  1.00800000E+00  1.60000000E+01  1.00800000E+00  1.00800000E+00
  1.60000000E+01  1.00800000E+00  1.00800000E+00  1.60000000E+01  1.00800000E+00
  1.00800000E+00  1.60000000E+01  1.00800000E+00  1.00800000E+00  1.60000000E+01
  1.00800000E+00  1.00800000E+00  1.60000000E+01  1.00800000E+00  1.00800000E+00
  1.60000000E+01  1.00800000E+00  1.00800000E+00  1.60000000E+01  1.00800000E+00
  1.00800000E+00  1.60000000E+01  1.00800000E+00  1.00800000E+00  1.60000000E+01
  1.00800000E+00  1.00800000E+00  1.60000000E+01  1.00800000E+00  1.00800000E+00
  1.60000000E+01  1.00800000E+00  1.00800000E+00  1.60000000E+01  1.00800000E+00
  1.00800000E+00  1.60000000E+01  1.00800000E+00  1.00800000E+00  1.60000000E+01
  1.00800000E+00  1.00800000E+00  1.60000000E+01  1.00800000E+00  1.00800000E+00
  1.60000000E+01  1.00800000E+00  1.00800000E+00  1.60000000E+01  1.00800000E+00
  1.00800000E+00  1.60000000E+01  1.00800000E+00  1.00800000E+00  1.60000000E+01
  1.00800000E+00  1.00800000E+00  1.60000000E+01  1.00800000E+00  1.00800000E+00
  1.60000000E+01  1.00800000E+00  1.00800000E+00  1.60000000E+01  1.00800000E+00
  1.00800000E+00  1.60000000E+01  1.00800000E+00  1.00800000E+00  1.60000000E+01
  1.00800000E+00  1.00800000E+00  1.60000000E+01  1.00800000E+00  1.00800000E+00
  1.60000000E+01  1.00800000E+00  1.00800000E+00  1.60000000E+01  1.00800000E+00
  1.00800000E+00  1.60000000E+01  1.00800000E+00  1.00800000E+00  1.60000000E+01
  1.00800000E+00  1.00800000E+00  1.60000000E+01  1.00800000E+00  1.00800000E+00
  1.60000000E+01  1.00800000E+00  1.00800000E+00  1.60000000E+01  1.00800000E+00
  1.00800000E+00  1.60000000E+01  1.00800000E+00  1.00800000E+00  1.60000000E+01
  1.00800000E+00  1.00800000E+00  1.60000000E+01  1.00800000E+00  1.00800000E+00
  1.60000000E+01  1.00800000E+00  1.00800000E+00  1.60000000E+01  1.00800000E+00
  1.00800000E+00  1.60000000E+01  1.00800000E+00  1.00800000E+00  1.60000000E+01
  1.00800000E+00  1.00800000E+00  1.60000000E+01  1.00800000E+00  1.00800000E+00
  1.60000000E+01  1.00800000E+00  1.00800000E+00  1.60000000E+01  1.00800000E+00
  1.00800000E+00  1.60000000E+01  1.00800000E+00  1.00800000E+00  1.60000000E+01
  1.00800000E+00  1.00800000E+00  1.60000000E+01  1.00800000E+00  1.00800000E+00
  1.60000000E+01  1.00800000E+00  1.00800000E+00  1.60000000E+01  1.00800000E+00
  1.00800000E+00  1.60000000E+01  1.00800000E+00  1.00800000E+00  1.60000000E+01
  1.00800000E+00  1.00800000E+00  1.60000000E+01  1.00800000E+00  1.00800000E+00
  1.60000000E+01  1.00800000E+00  1.00800000E+00  1.60000000E+01  1.00800000E+00
  1.00800000E+00  1.60000000E+01  1.00800000E+00  1.00800000E+00  1.60000000E+01
  1.00800000E+00  1.00800000E+00  1.60000000E+01  1.00800000E+00  1.00800000E+00
  1.60000000E+01  1.00800000E+00  1.00800000E+00  1.60000000E+01  1.00800000E+00
  1.00800000E+00  1.60000000E+01  1.00800000E+00  1.00800000E+00  1.60000000E+01
  1.00800000E+00  1.00800000E+00  1.60000000E+01  1.00800000E+00  1.00800000E+00
  1.60000000E+01  1.00800000E+00  1.00800000E+00  1.60000000E+01  1.00800000E+00
  1.00800000E+00  1.60000000E+01  1.00800000E+00  1.00800000E+00  1.60000000E+01
  1.00800000E+00  1.00800000E+00  1.60000000E+01  1.00800000E+00  1.00800000E+00
  1.60000000E+01  1.00800000E+00  1.00800000E+00  1.60000000E+01  1.00800000E+00
  1.00800000E+00  1.60000000E+01  1.00800000E+00  1.00800000E+00  1.60000000E+01
  1.00800000E+00  1.00800000E+00  1.60000000E+01  1.00800000E+00  1.00800000E+00
  1.60000000E+01  1.00800000E+00  1.00800000E+00  1.60000000E+01  1.00800000E+00
  1.00800000E+00  1.60000000E+01  1.00800000E+00  1.00800000E+00  1.60000000E+01
  1.00800000E+00  1.00800000E+00  1.60000000E+01  1.00800000E+00  1.00800000E+00
  1.60000000E+01  1.00800000E+00  1.00800000E+00  1.60000000E+01  1.00800000E+00
  1.00800000E+00  1.60000000E+01  1.00800000E+00  1.00800000E+00  1.60000000E+01
  1.00800000E+00  1.00800000E+00  1.60000000E+01  1.00800000E+00  1.00800000E+00
  1.60000000E+01  1.00800000E+00  1.00800000E+00  1.60000000E+01  1.00800000E+00
  1.00800000E+00  1.60000000E+01  1.00800000E+00  1.00800000E+00  1.60000000E+01
  1.00800000E+00  1.00800000E+00  1.60000000E+01  1.00800000E+00  1.00800000E+00
  1.60000000E+01  1.00800000E+00  1.00800000E+00  1.60000000E+01  1.00800000E+00
  1.00800000E+00  1.60000000E+01  1.00800000E+00  1.00800000E+00  1.60000000E+01
  1.00800000E+00  1.00800000E+00  1.60000000E+01  1.00800000E+00  1.00800000E+00
  1.60000000E+01  1.00800000E+00  1.00800000E+00  1.60000000E+01  1.00800000E+00
  1.00800000E+00  1.60000000E+01  1.00800000E+00  1.00800000E+00  1.60000000E+01
  1.00800000E+00  1.00800000E+00  1.60000000E+01  1.00800000E+00  1.00800000E+00
  1.60000000E+01  1.00800000E+00  1.00800000E+00  1.60000000E+01  1.00800000E+00
  1.00800000E+00  1.60000000E+01  1.00800000E+00  1.00800000E+00  1.60000000E+01
  1.00800000E+00  1.00800000E+00  1.60000000E+01  1.00800000E+00  1.00800000E+00
  1.60000000E+01  1.00800000E+00  1.00800000E+00  1.60000000E+01  1.00800000E+00
  1.00800000E+00  1.60000000E+01  1.00800000E+00  1.00800000E+00  1.60000000E+01
  1.00800000E+00  1.00800000E+00  1.60000000E+01  1.00800000E+00  1.00800000E+00
  1.60000000E+01  1.00800000E+00  1.00800000E+00  1.60000000E+01  1.00800000E+00
  1.00800000E+00  1.60000000E+01  1.00800000E+00  1.00800000E+00  1.60000000E+01
  1.00800000E+00  1.00800000E+00  1.60000000E+01  1.00800000E+00  1.00800000E+00
  1.60000000E+01  1.00800000E+00  1.00800000E+00  1.60000000E+01  1.00800000E+00
  1.00800000E+00  1.60000000E+01  1.00800000E+00  1.00800000E+00  1.60000000E+01
  1.00800000E+00  1.00800000E+00  1.60000000E+01  1.00800000E+00  1.00800000E+00
  1.60000000E+01  1.00800000E+00  1.00800000E+00  1.60000000E+01  1.00800000E+00
  1.00800000E+00  1.60000000E+01  1.00800000E+00  1.00800000E+00  1.60000000E+01
  1.00800000E+00  1.00800000E+00  1.60000000E+01  1.00800000E+00  1.00800000E+00
  1.60000000E+01  1.00800000E+00  1.00800000E+00  1.60000000E+01  1.00800000E+00
  1.00800000E+00  1.60000000E+01  1.00800000E+00  1.00800000E+00  1.60000000E+01
  1.00800000E+00  1.00800000E+00  1.60000000E+01  1.00800000E+00  1.00800000E+00
  1.60000000E+01  1.00800000E+00  1.00800000E+00  1.60000000E+01  1.00800000E+00
  1.00800000E+00  1.60000000E+01  1.00800000E+00  1.00800000E+00  1.60000000E+01
  1.00800000E+00  1.00800000E+00  1.60000000E+01  1.00800000E+00  1.00800000E+00
  1.60000000E+01  1.00800000E+00  1.00800000E+00  1.60000000E+01  1.00800000E+00
  1.00800000E+00  1.60000000E+01  1.00800000E+00  1.00800000E+00  1.60000000E+01
  1.00800000E+00  1.00800000E+00  1.60000000E+01  1.00800000E+00  1.00800000E+00
  1.60000000E+01  1.00800000E+00  1.00800000E+00  1.60000000E+01  1.00800000E+00
  1.00800000E+00  1.60000000E+01  1.00800000E+00  1.00800000E+00  1.60000000E+01
  1.00800000E+00  1.00800000E+00  1.60000000E+01  1.00800000E+00  1.00800000E+00
  1.60000000E+01  1.00800000E+00  1.00800000E+00  1.60000000E+01  1.00800000E+00
  1.00800000E+00  1.60000000E+01  1.00800000E+00  1.00800000E+00  1.60000000E+01
  1.00800000E+00  1.00800000E+00  1.60000000E+01  1.00800000E+00  1.00800000E+00
  1.60000000E+01  1.00800000E+00  1.00800000E+00  1.60000000E+01  1.00800000E+00
  1.00800000E+00  1.60000000E+01  1.00800000E+00  1.00800000E+00  1.60000000E+01
  1.00800000E+00  1.00800000E+00  1.60000000E+01  1.00800000E+00  1.00800000E+00
  1.60000000E+01  1.00800000E+00  1.00800000E+00  1.60000000E+01  1.00800000E+00
  1.00800000E+00  1.60000000E+01  1.00800000E+00  1.00800000E+00  1.60000000E+01
  1.00800000E+00  1.00800000E+00  1.60000000E+01  1.00800000E+00  1.00800000E+00
  1.60000000E+01  1.00800000E+00  1.00800000E+00  1.60000000E+01  1.00800000E+00
  1.00800000E+00  1.60000000E+01  1.00800000E+00  1.00800000E+00  1.60000000E+01
  1.00800000E+00  1.00800000E+00  1.60000000E+01  1.00800000E+00  1.00800000E+00
  1.60000000E+01  1.00800000E+00  1.00800000E+00  1.60000000E+01  1.00800000E+00
  1.00800000E+00  1.60000000E+01  1.00800000E+00  1.00800000E+00  1.60000000E+01
  1.00800000E+00  1.00800000E+00  1.60000000E+01  1.00800000E+00  1.00800000E+00
  1.60000000E+01  1.00800000E+00  1.00800000E+00  1.60000000E+01  1.00800000E+00
  1.00800000E+00  1.60000000E+01  1.00800000E+00  1.00800000E+00  1.60000000E+01
  1.00800000E+00  1.00800000E+00  1.60000000E+01  1.00800000E+00  1.00800000E+00
  1.60000000E+01  1.00800000E+00  1.00800000E+00  1.60000000E+01  1.00800000E+00
  1.00800000E+00  1.60000000E+01  1.00800000E+00  1.00800000E+00  1.60000000E+01
  1.00800000E+00  1.00800000E+00  1.60000000E+01  1.00800000E+00  1.00800000E+00
  1.60000000E+01  1.00800000E+00  1.00800000E+00  1.60000000E+01  1.00800000E+00
  1.00800000E+00  1.60000000E+01  1.00800000E+00  1.00800000E+00  1.60000000E+01
  1.00800000E+00  1.00800000E+00  1.60000000E+01  1.00800000E+00  1.00800000E+00
  1.60000000E+01  1.00800000E+00  1.00800000E+00  1.60000000E+01  1.00800000E+00
  1.00800000E+00  1.60000000E+01  1.00800000E+00  1.00800000E+00  1.60000000E+01
  1.00800000E+00  1.00800000E+00  1.60000000E+01  1.00800000E+00  1.00800000E+00
  1.60000000E+01  1.00800000E+00  1.00800000E+00  1.60000000E+01  1.00800000E+00
  1.00800000E+00  1.60000000E+01  1.00800000E+00  1.00800000E+00  1.60000000E+01
  1.00800000E+00  1.00800000E+00  1.60000000E+01  1.00800000E+00  1.00800000E+00
  1.60000000E+01  1.00800000E+00  1.00800000E+00  1.60000000E+01  1.00800000E+00
  1.00800000E+00  1.60000000E+01  1.00800000E+00  1.00800000E+00  1.60000000E+01
  1.00800000E+00  1.00800000E+00  1.60000000E+01  1.00800000E+00  1.00800000E+00
  1.60000000E+01  1.00800000E+00  1.00800000E+00  1.60000000E+01  1.00800000E+00
  1.00800000E+00  1.60000000E+01  1.00800000E+00  1.00800000E+00  1.60000000E+01
  1.00800000E+00  1.00800000E+00  1.60000000E+01  1.00800000E+00  1.00800000E+00
  1.60000000E+01  1.00800000E+00  1.00800000E+00  1.60000000E+01  1.00800000E+00
  1.00800000E+00  1.60000000E+01  1.00800000E+00  1.00800000E+00  1.60000000E+01
  1.00800000E+00  1.00800000E+00  1.60000000E+01  1.00800000E+00  1.00800000E+00
  1.60000000E+01  1.00800000E+00  1.00800000E+00  1.60000000E+01  1.00800000E+00
  1.00800000E+00  1.60000000E+01  1.00800000E+00  1.00800000E+00  1.60000000E+01
  1.00800000E+00  1.00800000E+00  1.60000000E+01  1.00800000E+00  1.00800000E+00
  1.60000000E+01  1.00800000E+00  1.00800000E+00  1.60000000E+01  1.00800000E+00
  1.00800000E+00  1.60000000E+01  1.00800000E+00  1.00800000E+00  1.60000000E+01
  1.00800000E+00  1.00800000E+00  1.60000000E+01  1.00800000E+00  1.00800000E+00
  1.60000000E+01  1.00800000E+00  1.00800000E+00  1.60000000E+01  1.00800000E+00
  1.00800000E+00  1.60000000E+01  1.00800000E+00  1.00800000E+00  1.60000000E+01
  1.00800000E+00  1.00800000E+00  1.60000000E+01  1.00800000E+00  1.00800000E+00
  1.60000000E+01  1.00800000E+00  1.00800000E+00  1.60000000E+01  1.00800000E+00
  1.00800000E+00  1.60000000E+01  1.00800000E+00  1.00800000E+00  1.60000000E+01
  1.00800000E+00  1.00800000E+00  1.60000000E+01  1.00800000E+00  1.00800000E+00
  1.60000000E+01  1.00800000E+00  1.00800000E+00  1.60000000E+01  1.00800000E+00
  1.00800000E+00  1.60000000E+01  1.00800000E+00  1.00800000E+00  1.60000000E+01
  1.00800000E+00  1.00800000E+00  1.60000000E+01  1.00800000E+00  1.00800000E+00
  1.60000000E+01  1.00800000E+00  1.00800000E+00  1.60000000E+01  1.00800000E+00
  1.00800000E+00  1.60000000E+01  1.00800000E+00  1.00800000E+00  1.60000000E+01
  1.00800000E+00  1.00800000E+00  1.60000000E+01  1.00800000E+00  1.00800000E+00
  1.60000000E+01  1.00800000E+00  1.00800000E+00  1.60000000E+01  1.00800000E+00
  1.00800000E+00  1.60000000E+01  1.00800000E+00  1.00800000E+00  1.60000000E+01
  1.00800000E+00  1.00800000E+00  1.60000000E+01  1.00800000E+00  1.00800000E+00
  1.60000000E+01  1.00800000E+00  1.00800000E+00  1.60000000E+01  1.00800000E+00
  1.00800000E+00  1.60000000E+01  1.00800000E+00  1.00800000E+00  1.60000000E+01
  1.00800000E+00  1.00800000E+00  1.60000000E+01  1.00800000E+00  1.00800000E+00
  1.60000000E+01  1.00800000E+00  1.00800000E+00  1.60000000E+01  1.00800000E+00
  1.00800000E+00  1.60000000E+01  1.00800000E+00  1.00800000E+00  1.60000000E+01
  1.00800000E+00  1.00800000E+00  1.60000000E+01  1.00800000E+00  1.00800000E+00
  1.60000000E+01  1.00800000E+00  1.00800000E+00  1.60000000E+01  1.00800000E+00
  1.00800000E+00  1.60000000E+01  1.00800000E+00  1.00800000E+00  1.60000000E+01
  1.00800000E+00  1.00800000E+00  1.60000000E+01  1.00800000E+00  1.00800000E+00
  1.60000000E+01  1.00800000E+00  1.00800000E+00  1.60000000E+01  1.00800000E+00
  1.00800000E+00  1.60000000E+01  1.00800000E+00  1.00800000E+00  1.60000000E+01
  1.00800000E+00  1.00800000E+00  1.60000000E+01  1.00800000E+00  1.00800000E+00
  1.60000000E+01  1.00800000E+00  1.00800000E+00  1.60000000E+01  1.00800000E+00
  1.00800000E+00  1.60000000E+01  1.00800000E+00  1.00800000E+00  1.60000000E+01
  1.00800000E+00  1.00800000E+00  1.60000000E+01  1.00800000E+00  1.00800000E+00
  1.60000000E+01  1.00800000E+00  1.00800000E+00  1.60000000E+01  1.00800000E+00
  1.00800000E+00  1.60000000E+01  1.00800000E+00  1.00800000E+00  1.60000000E+01
  1.00800000E+00  1.00800000E+00  1.60000000E+01  1.00800000E+00  1.00800000E+00
  1.60000000E+01  1.00800000E+00  1.00800000E+00  1.60000000E+01  1.00800000E+00
  1.00800000E+00  1.60000000E+01  1.00800000E+00  1.00800000E+00  1.60000000E+01
  1.00800000E+00  1.00800000E+00  1.60000000E+01  1.00800000E+00  1.00800000E+00
  1.60000000E+01  1.00800000E+00  1.00800000E+00  1.60000000E+01  1.00800000E+00
  1.00800000E+00  1.60000000E+01  1.00800000E+00  1.00800000E+00  1.60000000E+01
  1.00800000E+00  1.00800000E+00  1.60000000E+01  1.00800000E+00  1.00800000E+00
  1.60000000E+01  1.00800000E+00  1.00800000E+00  1.60000000E+01  1.00800000E+00
  1.00800000E+00  1.60000000E+01  1.00800000E+00  1.00800000E+00  1.60000000E+01
  1.00800000E+00  1.00800000E+00  1.60000000E+01  1.00800000E+00  1.00800000E+00
  1.60000000E+01  1.00800000E+00  1.00800000E+00  1.60000000E+01  1.00800000E+00
  1.00800000E+00  1.60000000E+01  1.00800000E+00  1.00800000E+00  1.60000000E+01
  1.00800000E+00  1.00800000E+00  1.60000000E+01  1.00800000E+00  1.00800000E+00
  1.60000000E+01  1.00800000E+00  1.00800000E+00  1.60000000E+01  1.00800000E+00
  1.00800000E+00  1.60000000E+01  1.00800000E+00  1.00800000E+00  1.60000000E+01
  1.00800000E+00  1.00800000E+00  1.60000000E+01  1.00800000E+00  1.00800000E+00
  1.60000000E+01  1.00800000E+00  1.00800000E+00  1.60000000E+01  1.00800000E+00
  1.00800000E+00  1.60000000E+01  1.00800000E+00  1.00800000E+00  1.60000000E+01
  1.00800000E+00  1.00800000E+00  1.60000000E+01  1.00800000E+00  1.00800000E+00
  1.60000000E+01  1.00800000E+00  1.00800000E+00  1.60000000E+01  1.00800000E+00
  1.00800000E+00  1.60000000E+01  1.00800000E+00  1.00800000E+00  1.60000000E+01
  1.00800000E+00  1.00800000E+00  1.60000000E+01  1.00800000E+00  1.00800000E+00
  1.60000000E+01  1.00800000E+00  1.00800000E+00  1.60000000E+01  1.00800000E+00
  1.00800000E+00  1.60000000E+01  1.00800000E+00  1.00800000E+00  1.60000000E+01
  1.00800000E+00  1.00800000E+00  1.60000000E+01  1.00800000E+00  1.00800000E+00
  1.60000000E+01  1.00800000E+00  1.00800000E+00  1.60000000E+01  1.00800000E+00
  1.00800000E+00  1.60000000E+01  1.00800000E+00  1.00800000E+00  1.60000000E+01
  1.00800000E+00  1.00800000E+00  1.60000000E+01  1.00800000E+00  1.00800000E+00
  1.60000000E+01  1.00800000E+00  1.00800000E+00  1.60000000E+01  1.00800000E+00
  1.00800000E+00  1.60000000E+01  1.00800000E+00  1.00800000E+00  1.60000000E+01
  1.00800000E+00  1.00800000E+00  1.60000000E+01  1.00800000E+00  1.00800000E+00
  1.60000000E+01  1.00800000E+00  1.00800000E+00  1.60000000E+01  1.00800000E+00
  1.00800000E+00  1.60000000E+01  1.00800000E+00  1.00800000E+00  1.60000000E+01
  1.00800000E+00  1.00800000E+00  1.60000000E+01  1.00800000E+00  1.00800000E+00
  1.60000000E+01  1.00800000E+00  1.00800000E+00  1.60000000E+01  1.00800000E+00
  1.00800000E+00  1.60000000E+01  1.00800000E+00  1.00800000E+00  1.60000000E+01
  1.00800000E+00  1.00800000E+00  1.60000000E+01  1.00800000E+00  1.00800000E+00
  1.60000000E+01  1.00800000E+00  1.00800000E+00  1.60000000E+01  1.00800000E+00
  1.00800000E+00  1.60000000E+01  1.00800000E+00  1.00800000E+00  1.60000000E+01
  1.00800000E+00  1.00800000E+00  1.60000000E+01  1.00800000E+00  1.00800000E+00
  1.60000000E+01  1.00800000E+00  1.00800000E+00  1.60000000E+01  1.00800000E+00
  1.00800000E+00  1.60000000E+01  1.00800000E+00  1.00800000E+00  1.60000000E+01
  1.00800000E+00  1.00800000E+00  1.60000000E+01  1.00800000E+00  1.00800000E+00
  1.60000000E+01  1.00800000E+00  1.00800000E+00  1.60000000E+01  1.00800000E+00
  1.00800000E+00  1.60000000E+01  1.00800000E+00  1.00800000E+00  1.60000000E+01
  1.00800000E+00  1.00800000E+00  1.60000000E+01  1.00800000E+00  1.00800000E+00
  1.60000000E+01  1.00800000E+00  1.00800000E+00  1.60000000E+01  1.00800000E+00
  1.00800000E+00  1.60000000E+01  1.00800000E+00  1.00800000E+00  1.60000000E+01
  1.00800000E+00  1.00800000E+00  1.60000000E+01  1.00800000E+00  1.00800000E+00
  1.60000000E+01  1.00800000E+00  1.00800000E+00  1.60000000E+01  1.00800000E+00
  1.00800000E+00  1.60000000E+01  1.00800000E+00  1.00800000E+00  1.60000000E+01
  1.00800000E+00  1.00800000E+00  1.60000000E+01  1.00800000E+00  1.00800000E+00
  1.60000000E+01  1.00800000E+00  1.00800000E+00  1.60000000E+01  1.00800000E+00
  1.00800000E+00  1.60000000E+01  1.00800000E+00  1.00800000E+00  1.60000000E+01
  1.00800000E+00  1.00800000E+00  1.60000000E+01  1.00800000E+00  1.00800000E+00
  1.60000000E+01  1.00800000E+00  1.00800000E+00  1.60000000E+01  1.00800000E+00
  1.00800000E+00  1.60000000E+01  1.00800000E+00  1.00800000E+00  1.60000000E+01
  1.00800000E+00  1.00800000E+00  1.60000000E+01  1.00800000E+00  1.00800000E+00
  1.60000000E+01  1.00800000E+00  1.00800000E+00  1.60000000E+01  1.00800000E+00
  1.00800000E+00  1.60000000E+01  1.00800000E+00  1.00800000E+00  1.60000000E+01
  1.00800000E+00  1.00800000E+00  1.60000000E+01  1.00800000E+00  1.00800000E+00
  1.60000000E+01  1.00800000E+00  1.00800000E+00  1.60000000E+01  1.00800000E+00
  1.00800000E+00  1.60000000E+01  1.00800000E+00  1.00800000E+00  1.60000000E+01
  1.00800000E+00  1.00800000E+00  1.60000000E+01  1.00800000E+00  1.00800000E+00
  1.60000000E+01  1.00800000E+00  1.00800000E+00  1.60000000E+01  1.00800000E+00
  1.00800000E+00  1.60000000E+01  1.00800000E+00  1.00800000E+00  1.60000000E+01
  1.00800000E+00  1.00800000E+00  1.60000000E+01  1.00800000E+00  1.00800000E+00
  1.60000000E+01  1.00800000E+00  1.00800000E+00  1.60000000E+01  1.00800000E+00
  1.00800000E+00  1.60000000E+01  1.00800000E+00  1.00800000E+00  1.60000000E+01
  1.00800000E+00  1.00800000E+00  1.60000000E+01  1.00800000E+00  1.00800000E+00
  1.60000000E+01  1.00800000E+00  1.00800000E+00  1.60000000E+01  1.00800000E+00
  1.00800000E+00  1.60000000E+01  1.00800000E+00  1.00800000E+00  1.60000000E+01
  1.00800000E+00  1.00800000E+00  1.60000000E+01  1.00800000E+00  1.00800000E+00
  1.60000000E+01  1.00800000E+00  1.00800000E+00  1.60000000E+01  1.00800000E+00
  1.00800000E+00  1.60000000E+01  1.00800000E+00  1.00800000E+00  1.60000000E+01
  1.00800000E+00  1.00800000E+00  1.60000000E+01  1.00800000E+00  1.00800000E+00
  1.60000000E+01  1.00800000E+00  1.00800000E+00  1.60000000E+01  1.00800000E+00
  1.00800000E+00  1.60000000E+01  1.00800000E+00  1.00800000E+00  1.60000000E+01
  1.00800000E+00  1.00800000E+00  1.60000000E+01  1.00800000E+00  1.00800000E+00
  1.60000000E+01  1.00800000E+00  1.00800000E+00  1.60000000E+01  1.00800000E+00
  1.00800000E+00  1.60000000E+01  1.00800000E+00  1.00800000E+00  1.60000000E+01
  1.00800000E+00  1.00800000E+00  1.60000000E+01  1.00800000E+00  1.00800000E+00
  1.60000000E+01  1.00800000E+00  1.00800000E+00  1.60000000E+01  1.00800000E+00
  1.00800000E+00  1.60000000E+01  1.00800000E+00  1.00800000E+00  1.60000000E+01
  1.00800000E+00  1.00800000E+00  1.60000000E+01  1.00800000E+00  1.00800000E+00
  1.60000000E+01  1.00800000E+00  1.00800000E+00  1.60000000E+01  1.00800000E+00
  1.00800000E+00  1.60000000E+01  1.00800000E+00  1.00800000E+00  1.60000000E+01
  1.00800000E+00  1.00800000E+00  1.60000000E+01  1.00800000E+00  1.00800000E+00
  1.60000000E+01  1.00800000E+00  1.00800000E+00  1.60000000E+01  1.00800000E+00
  1.00800000E+00  1.60000000E+01  1.00800000E+00  1.00800000E+00  1.60000000E+01
  1.00800000E+00  1.00800000E+00  1.60000000E+01  1.00800000E+00  1.00800000E+00
  1.60000000E+01  1.00800000E+00  1.00800000E+00  1.60000000E+01  1.00800000E+00
  1.00800000E+00  1.60000000E+01  1.00800000E+00  1.00800000E+00  1.60000000E+01
  1.00800000E+00  1.00800000E+00  1.60000000E+01  1.00800000E+00  1.00800000E+00
  1.60000000E+01  1.00800000E+00  1.00800000E+00  1.60000000E+01  1.00800000E+00
  1.00800000E+00  1.60000000E+01  1.00800000E+00  1.00800000E+00  1.60000000E+01
  1.00800000E+00  1.00800000E+00  1.60000000E+01  1.00800000E+00  1.00800000E+00
  1.60000000E+01  1.00800000E+00  1.00800000E+00  1.60000000E+01  1.00800000E+00
  1.00800000E+00  1.60000000E+01  1.00800000E+00  1.00800000E+00  1.60000000E+01
  1.00800000E+00  1.00800000E+00  1.60000000E+01  1.00800000E+00  1.00800000E+00
  1.60000000E+01  1.00800000E+00  1.00800000E+00  1.60000000E+01  1.00800000E+00
  1.00800000E+00  1.60000000E+01  1.00800000E+00  1.00800000E+00  1.60000000E+01
  1.00800000E+00  1.00800000E+00  1.60000000E+01  1.00800000E+00  1.00800000E+00
  1.60000000E+01  1.00800000E+00  1.00800000E+00  1.60000000E+01  1.00800000E+00
  1.00800000E+00  1.60000000E+01  1.00800000E+00  1.00800000E+00  1.60000000E+01
  1.00800000E+00  1.00800000E+00  1.60000000E+01  1.00800000E+00  1.00800000E+00
  1.60000000E+01  1.00800000E+00  1.00800000E+00  1.60000000E+01  1.00800000E+00
  1.00800000E+00  1.60000000E+01  1.00800000E+00  1.00800000E+00  1.60000000E+01
  1.00800000E+00  1.00800000E+00  1.60000000E+01  1.00800000E+00  1.00800000E+00
  1.60000000E+01  1.00800000E+00  1.00800000E+00  1.60000000E+01  1.00800000E+00
  1.00800000E+00  1.60000000E+01  1.00800000E+00  1.00800000E+00  1.60000000E+01
  1.00800000E+00  1.00800000E+00  1.60000000E+01  1.00800000E+00  1.00800000E+00
  1.60000000E+01  1.00800000E+00  1.00800000E+00  1.60000000E+01  1.00800000E+00
  1.00800000E+00  1.60000000E+01  1.00800000E+00  1.00800000E+00  1.60000000E+01
  1.00800000E+00  1.00800000E+00  1.60000000E+01  1.00800000E+00  1.00800000E+00
  1.60000000E+01  1.00800000E+00  1.00800000E+00  1.60000000E+01  1.00800000E+00
  1.00800000E+00  1.60000000E+01  1.00800000E+00  1.00800000E+00  1.60000000E+01
  1.00800000E+00  1.00800000E+00  1.60000000E+01  1.00800000E+00  1.00800000E+00
  1.60000000E+01  1.00800000E+00  1.00800000E+00  1.60000000E+01  1.00800000E+00
  1.00800000E+00  1.60000000E+01  1.00800000E+00  1.00800000E+00  1.60000000E+01
  1.00800000E+00  1.00800000E+00  1.60000000E+01  1.00800000E+00  1.00800000E+00
  1.60000000E+01  1.00800000E+00  1.00800000E+00  1.60000000E+01  1.00800000E+00
  1.00800000E+00  1.60000000E+01  1.00800000E+00  1.00800000E+00  1.60000000E+01
  1.00800000E+00  1.00800000E+00  1.60000000E+01  1.00800000E+00  1.00800000E+00
  1.60000000E+01  1.00800000E+00  1.00800000E+00  1.60000000E+01  1.00800000E+00
  1.00800000E+00  1.60000000E+01  1.00800000E+00  1.00800000E+00  1.60000000E+01
  1.00800000E+00  1.00800000E+00  1.60000000E+01  1.00800000E+00  1.00800000E+00
  1.60000000E+01  1.00800000E+00  1.00800000E+00  1.60000000E+01  1.00800000E+00
  1.00800000E+00  1.60000000E+01  1.00800000E+00  1.00800000E+00  1.60000000E+01
  1.00800000E+00  1.00800000E+00  1.60000000E+01  1.00800000E+00  1.00800000E+00
  1.60000000E+01  1.00800000E+00  1.00800000E+00  1.60000000E+01  1.00800000E+00
  1.00800000E+00  1.60000000E+01  1.00800000E+00  1.00800000E+00  1.60000000E+01
  1.00800000E+00  1.00800000E+00  1.60000000E+01  1.00800000E+00  1.00800000E+00
  1.60000000E+01  1.00800000E+00  1.00800000E+00  1.60000000E+01  1.00800000E+00
  1.00800000E+00  1.60000000E+01  1.00800000E+00  1.00800000E+00  1.60000000E+01
  1.00800000E+00  1.00800000E+00  1.60000000E+01  1.00800000E+00  1.00800000E+00
  1.60000000E+01  1.00800000E+00  1.00800000E+00  1.60000000E+01  1.00800000E+00
  1.00800000E+00  1.60000000E+01  1.00800000E+00  1.00800000E+00  1.60000000E+01
  1.00800000E+00  1.00800000E+00  1.60000000E+01  1.00800000E+00  1.00800000E+00
  1.60000000E+01  1.00800000E+00  1.00800000E+00  1.60000000E+01  1.00800000E+00
  1.00800000E+00  1.60000000E+01  1.00800000E+00  1.00800000E+00  1.60000000E+01
  1.00800000E+00  1.00800000E+00  1.60000000E+01  1.00800000E+00  1.00800000E+00
  1.60000000E+01  1.00800000E+00  1.00800000E+00  1.60000000E+01  1.00800000E+00
  1.00800000E+00  1.60000000E+01  1.00800000E+00  1.00800000E+00  1.60000000E+01
  1.00800000E+00  1.00800000E+00  1.60000000E+01  1.00800000E+00  1.00800000E+00
  1.60000000E+01  1.00800000E+00  1.00800000E+00  1.60000000E+01  1.00800000E+00
  1.00800000E+00  1.60000000E+01  1.00800000E+00  1.00800000E+00  1.60000000E+01
  1.00800000E+00  1.00800000E+00  1.60000000E+01  1.00800000E+00  1.00800000E+00
  1.60000000E+01  1.00800000E+00  1.00800000E+00  1.60000000E+01  1.00800000E+00
  1.00800000E+00  1.60000000E+01  1.00800000E+00  1.00800000E+00  1.60000000E+01
  1.00800000E+00  1.00800000E+00  1.60000000E+01  1.00800000E+00  1.00800000E+00
  1.60000000E+01  1.00800000E+00  1.00800000E+00  1.60000000E+01  1.00800000E+00
  1.00800000E+00  1.60000000E+01  1.00800000E+00  1.00800000E+00  1.60000000E+01
  1.00800000E+00  1.00800000E+00  1.60000000E+01  1.00800000E+00  1.00800000E+00
  1.60000000E+01  1.00800000E+00  1.00800000E+00  1.60000000E+01  1.00800000E+00
  1.00800000E+00  1.60000000E+01  1.00800000E+00  1.00800000E+00  1.60000000E+01
  1.00800000E+00  1.00800000E+00  1.60000000E+01  1.00800000E+00  1.00800000E+00
  1.60000000E+01  1.00800000E+00  1.00800000E+00  1.60000000E+01  1.00800000E+00
  1.00800000E+00  1.60000000E+01  1.00800000E+00  1.00800000E+00  1.60000000E+01
  1.00800000E+00  1.00800000E+00  1.60000000E+01  1.00800000E+00  1.00800000E+00
  1.60000000E+01  1.00800000E+00  1.00800000E+00  1.60000000E+01  1.00800000E+00
  1.00800000E+00  1.60000000E+01  1.00800000E+00  1.00800000E+00  1.60000000E+01
  1.00800000E+00  1.00800000E+00  1.60000000E+01  1.00800000E+00  1.00800000E+00
  1.60000000E+01  1.00800000E+00  1.00800000E+00  1.60000000E+01  1.00800000E+00
  1.00800000E+00  1.60000000E+01  1.00800000E+00  1.00800000E+00  1.60000000E+01
  1.00800000E+00  1.00800000E+00  1.60000000E+01  1.00800000E+00  1.00800000E+00
  1.60000000E+01  1.00800000E+00  1.00800000E+00  1.60000000E+01  1.00800000E+00
  1.00800000E+00  1.60000000E+01  1.00800000E+00  1.00800000E+00  1.60000000E+01
  1.00800000E+00  1.00800000E+00  1.60000000E+01  1.00800000E+00  1.00800000E+00
  1.60000000E+01  1.00800000E+00  1.00800000E+00  1.60000000E+01  1.00800000E+00
  1.00800000E+00  1.60000000E+01  1.00800000E+00  1.00800000E+00  1.60000000E+01
  1.00800000E+00  1.00800000E+00  1.60000000E+01  1.00800000E+00  1.00800000E+00
  1.60000000E+01  1.00800000E+00  1.00800000E+00  1.60000000E+01  1.00800000E+00
  1.00800000E+00  1.60000000E+01  1.00800000E+00  1.00800000E+00  1.60000000E+01
  1.00800000E+00  1.00800000E+00  1.60000000E+01  1.00800000E+00  1.00800000E+00
  1.60000000E+01  1.00800000E+00  1.00800000E+00  1.60000000E+01  1.00800000E+00
  1.00800000E+00  1.60000000E+01  1.00800000E+00  1.00800000E+00  1.60000000E+01
  1.00800000E+00  1.00800000E+00  1.60000000E+01  1.00800000E+00  1.00800000E+00
  1.60000000E+01  1.00800000E+00  1.00800000E+00  1.60000000E+01  1.00800000E+00
  1.00800000E+00  1.60000000E+01  1.00800000E+00  1.00800000E+00  1.60000000E+01
  1.00800000E+00  1.00800000E+00  1.60000000E+01  1.00800000E+00  1.00800000E+00
  1.60000000E+01  1.00800000E+00  1.00800000E+00  1.60000000E+01  1.00800000E+00
  1.00800000E+00  1.60000000E+01  1.00800000E+00  1.00800000E+00  1.60000000E+01
  1.00800000E+00  1.00800000E+00  1.60000000E+01  1.00800000E+00  1.00800000E+00
  1.60000000E+01  1.00800000E+00  1.00800000E+00  1.60000000E+01  1.00800000E+00
  1.00800000E+00  1.60000000E+01  1.00800000E+00  1.00800000E+00  1.60000000E+01
  1.00800000E+00  1.00800000E+00  1.60000000E+01  1.00800000E+00  1.00800000E+00
  1.60000000E+01  1.00800000E+00  1.00800000E+00  1.60000000E+01  1.00800000E+00
  1.00800000E+00  1.60000000E+01  1.00800000E+00  1.00800000E+00  1.60000000E+01
  1.00800000E+00  1.00800000E+00  1.60000000E+01  1.00800000E+00  1.00800000E+00
  1.60000000E+01  1.00800000E+00  1.00800000E+00  1.60000000E+01  1.00800000E+00
  1.00800000E+00  1.60000000E+01  1.00800000E+00  1.00800000E+00  1.60000000E+01
  1.00800000E+00  1.00800000E+00  1.60000000E+01  1.00800000E+00  1.00800000E+00
  1.60000000E+01  1.00800000E+00  1.00800000E+00  1.60000000E+01  1.00800000E+00
  1.00800000E+00  1.60000000E+01  1.00800000E+00  1.00800000E+00  1.60000000E+01
  1.00800000E+00  1.00800000E+00  1.60000000E+01  1.00800000E+00  1.00800000E+00
  1.60000000E+01  1.00800000E+00  1.00800000E+00  1.60000000E+01  1.00800000E+00
  1.00800000E+00  1.60000000E+01  1.00800000E+00  1.00800000E+00  1.60000000E+01
  1.00800000E+00  1.00800000E+00  1.60000000E+01  1.00800000E+00  1.00800000E+00
  1.60000000E+01  1.00800000E+00  1.00800000E+00  1.60000000E+01  1.00800000E+00
  1.00800000E+00  1.60000000E+01  1.00800000E+00  1.00800000E+00  1.60000000E+01
  1.00800000E+00  1.00800000E+00  1.60000000E+01  1.00800000E+00  1.00800000E+00
  1.60000000E+01  1.00800000E+00  1.00800000E+00  1.60000000E+01  1.00800000E+00
  1.00800000E+00  1.60000000E+01  1.00800000E+00  1.00800000E+00  1.60000000E+01
  1.00800000E+00  1.00800000E+00  1.60000000E+01  1.00800000E+00  1.00800000E+00
  1.60000000E+01  1.00800000E+00  1.00800000E+00  1.60000000E+01  1.00800000E+00
  1.00800000E+00  1.60000000E+01  1.00800000E+00  1.00800000E+00  1.60000000E+01
  1.00800000E+00  1.00800000E+00  1.60000000E+01  1.00800000E+00  1.00800000E+00
  1.60000000E+01  1.00800000E+00  1.00800000E+00  1.60000000E+01  1.00800000E+00
  1.00800000E+00  1.60000000E+01  1.00800000E+00  1.00800000E+00  1.60000000E+01
  1.00800000E+00  1.00800000E+00  1.60000000E+01  1.00800000E+00  1.00800000E+00
  1.60000000E+01  1.00800000E+00  1.00800000E+00  1.60000000E+01  1.00800000E+00
  1.00800000E+00  1.60000000E+01  1.00800000E+00  1.00800000E+00  1.60000000E+01
  1.00800000E+00  1.00800000E+00  1.60000000E+01  1.00800000E+00  1.00800000E+00
  1.60000000E+01  1.00800000E+00  1.00800000E+00  1.60000000E+01  1.00800000E+00
  1.00800000E+00  1.60000000E+01  1.00800000E+00  1.00800000E+00  1.60000000E+01
  1.00800000E+00  1.00800000E+00  1.60000000E+01  1.00800000E+00  1.00800000E+00
  1.60000000E+01  1.00800000E+00  1.00800000E+00  1.60000000E+01  1.00800000E+00
  1.00800000E+00  1.60000000E+01  1.00800000E+00  1.00800000E+00  1.60000000E+01
  1.00800000E+00  1.00800000E+00  1.60000000E+01  1.00800000E+00  1.00800000E+00
  1.60000000E+01  1.00800000E+00  1.00800000E+00  1.60000000E+01  1.00800000E+00
  1.00800000E+00  1.60000000E+01  1.00800000E+00  1.00800000E+00  1.60000000E+01
  1.00800000E+00  1.00800000E+00  1.60000000E+01  1.00800000E+00  1.00800000E+00
  1.60000000E+01  1.00800000E+00  1.00800000E+00  1.60000000E+01  1.00800000E+00
  1.00800000E+00  1.60000000E+01  1.00800000E+00  1.00800000E+00  1.60000000E+01
  1.00800000E+00  1.00800000E+00  1.60000000E+01  1.00800000E+00  1.00800000E+00
  1.60000000E+01  1.00800000E+00  1.00800000E+00  1.60000000E+01  1.00800000E+00
  1.00800000E+00  1.60000000E+01  1.00800000E+00  1.00800000E+00  1.60000000E+01
  1.00800000E+00  1.00800000E+00  1.60000000E+01  1.00800000E+00  1.00800000E+00
  1.60000000E+01  1.00800000E+00  1.00800000E+00  1.60000000E+01  1.00800000E+00
  1.00800000E+00  1.60000000E+01  1.00800000E+00  1.00800000E+00  1.60000000E+01
  1.00800000E+00  1.00800000E+00  1.60000000E+01  1.00800000E+00  1.00800000E+00
  1.60000000E+01  1.00800000E+00  1.00800000E+00  1.60000000E+01  1.00800000E+00
  1.00800000E+00  1.60000000E+01  1.00800000E+00  1.00800000E+00  1.60000000E+01
  1.00800000E+00  1.00800000E+00  1.60000000E+01  1.00800000E+00  1.00800000E+00
  1.60000000E+01  1.00800000E+00  1.00800000E+00  1.60000000E+01  1.00800000E+00
  1.00800000E+00  1.60000000E+01  1.00800000E+00  1.00800000E+00  1.60000000E+01
  1.00800000E+00  1.00800000E+00  1.60000000E+01  1.00800000E+00  1.00800000E+00
  1.60000000E+01  1.00800000E+00  1.00800000E+00  1.60000000E+01  1.00800000E+00
  1.00800000E+00  1.60000000E+01  1.00800000E+00  1.00800000E+00  1.60000000E+01
  1.00800000E+00  1.00800000E+00  1.60000000E+01  1.00800000E+00  1.00800000E+00
  1.60000000E+01  1.00800000E+00  1.00800000E+00  1.60000000E+01  1.00800000E+00
  1.00800000E+00  1.60000000E+01  1.00800000E+00  1.00800000E+00  1.60000000E+01
  1.00800000E+00  1.00800000E+00  1.60000000E+01  1.00800000E+00  1.00800000E+00
  1.60000000E+01  1.00800000E+00  1.00800000E+00  1.60000000E+01  1.00800000E+00
  1.00800000E+00  1.60000000E+01  1.00800000E+00  1.00800000E+00  1.60000000E+01
  1.00800000E+00  1.00800000E+00  1.60000000E+01  1.00800000E+00  1.00800000E+00
  1.60000000E+01  1.00800000E+00  1.00800000E+00  1.60000000E+01  1.00800000E+00
  1.00800000E+00  1.60000000E+01  1.00800000E+00  1.00800000E+00  1.60000000E+01
  1.00800000E+00  1.00800000E+00  1.60000000E+01  1.00800000E+00  1.00800000E+00
  1.60000000E+01  1.00800000E+00  1.00800000E+00  1.60000000E+01  1.00800000E+00
  1.00800000E+00  1.60000000E+01  1.00800000E+00  1.00800000E+00  1.60000000E+01
  1.00800000E+00  1.00800000E+00  1.60000000E+01  1.00800000E+00  1.00800000E+00
  1.60000000E+01  1.00800000E+00  1.00800000E+00  1.60000000E+01  1.00800000E+00
  1.00800000E+00  1.60000000E+01  1.00800000E+00  1.00800000E+00  1.60000000E+01
  1.00800000E+00  1.00800000E+00  1.60000000E+01  1.00800000E+00  1.00800000E+00
  1.60000000E+01  1.00800000E+00  1.00800000E+00  1.60000000E+01  1.00800000E+00
  1.00800000E+00  1.60000000E+01  1.00800000E+00  1.00800000E+00  1.60000000E+01
  1.00800000E+00  1.00800000E+00  1.60000000E+01  1.00800000E+00  1.00800000E+00
  1.60000000E+01  1.00800000E+00  1.00800000E+00  1.60000000E+01  1.00800000E+00
  1.00800000E+00  1.60000000E+01  1.00800000E+00  1.00800000E+00  1.60000000E+01
  1.00800000E+00  1.00800000E+00  1.60000000E+01  1.00800000E+00  1.00800000E+00
  1.60000000E+01  1.00800000E+00  1.00800000E+00  1.60000000E+01  1.00800000E+00
  1.00800000E+00  1.60000000E+01  1.00800000E+00  1.00800000E+00  1.60000000E+01
  1.00800000E+00  1.00800000E+00  1.60000000E+01  1.00800000E+00  1.00800000E+00
  1.60000000E+01  1.00800000E+00  1.00800000E+00  1.60000000E+01  1.00800000E+00
  1.00800000E+00  1.60000000E+01  1.00800000E+00  1.00800000E+00  1.60000000E+01
  1.00800000E+00  1.00800000E+00  1.60000000E+01  1.00800000E+00  1.00800000E+00
  1.60000000E+01  1.00800000E+00  1.00800000E+00  1.60000000E+01  1.00800000E+00
  1.00800000E+00  1.60000000E+01  1.00800000E+00  1.00800000E+00  1.60000000E+01
  1.00800000E+00  1.00800000E+00  1.60000000E+01  1.00800000E+00  1.00800000E+00
  1.60000000E+01  1.00800000E+00  1.00800000E+00  1.60000000E+01  1.00800000E+00
  1.00800000E+00  1.60000000E+01  1.00800000E+00  1.00800000E+00  1.60000000E+01
  1.00800000E+00  1.00800000E+00  1.60000000E+01  1.00800000E+00  1.00800000E+00
  1.60000000E+01  1.00800000E+00  1.00800000E+00  1.60000000E+01  1.00800000E+00
  1.00800000E+00  1.60000000E+01  1.00800000E+00  1.00800000E+00  1.60000000E+01
  1.00800000E+00  1.00800000E+00  1.60000000E+01  1.00800000E+00  1.00800000E+00
  1.60000000E+01  1.00800000E+00  1.00800000E+00  1.60000000E+01  1.00800000E+00
  1.00800000E+00  1.60000000E+01  1.00800000E+00  1.00800000E+00  1.60000000E+01
  1.00800000E+00  1.00800000E+00  1.60000000E+01  1.00800000E+00  1.00800000E+00
  1.60000000E+01  1.00800000E+00  1.00800000E+00  1.60000000E+01  1.00800000E+00
  1.00800000E+00  1.60000000E+01  1.00800000E+00  1.00800000E+00  1.60000000E+01
  1.00800000E+00  1.00800000E+00  1.60000000E+01  1.00800000E+00  1.00800000E+00
  1.60000000E+01  1.00800000E+00  1.00800000E+00  1.60000000E+01  1.00800000E+00
  1.00800000E+00  1.60000000E+01  1.00800000E+00  1.00800000E+00  1.60000000E+01
  1.00800000E+00  1.00800000E+00  1.60000000E+01  1.00800000E+00  1.00800000E+00
  1.60000000E+01  1.00800000E+00  1.00800000E+00  1.60000000E+01  1.00800000E+00
  1.00800000E+00  1.60000000E+01  1.00800000E+00  1.00800000E+00  1.60000000E+01
  1.00800000E+00  1.00800000E+00  1.60000000E+01  1.00800000E+00  1.00800000E+00
  1.60000000E+01  1.00800000E+00  1.00800000E+00  1.60000000E+01  1.00800000E+00
  1.00800000E+00  1.60000000E+01  1.00800000E+00  1.00800000E+00  1.60000000E+01
  1.00800000E+00  1.00800000E+00  1.60000000E+01  1.00800000E+00  1.00800000E+00
  1.60000000E+01  1.00800000E+00  1.00800000E+00  1.60000000E+01  1.00800000E+00
  1.00800000E+00  1.60000000E+01  1.00800000E+00  1.00800000E+00  1.60000000E+01
  1.00800000E+00  1.00800000E+00  1.60000000E+01  1.00800000E+00  1.00800000E+00
  1.60000000E+01  1.00800000E+00  1.00800000E+00  1.60000000E+01  1.00800000E+00
  1.00800000E+00  1.60000000E+01  1.00800000E+00  1.00800000E+00  1.60000000E+01
  1.00800000E+00  1.00800000E+00  1.60000000E+01  1.00800000E+00  1.00800000E+00
  1.60000000E+01  1.00800000E+00  1.00800000E+00  1.60000000E+01  1.00800000E+00
  1.00800000E+00  1.60000000E+01  1.00800000E+00  1.00800000E+00  1.60000000E+01
  1.00800000E+00  1.00800000E+00  1.60000000E+01  1.00800000E+00  1.00800000E+00
  1.60000000E+01  1.00800000E+00  1.00800000E+00  1.60000000E+01  1.00800000E+00
  1.00800000E+00  1.60000000E+01  1.00800000E+00  1.00800000E+00  1.60000000E+01
  1.00800000E+00  1.00800000E+00  1.60000000E+01  1.00800000E+00  1.00800000E+00
  1.60000000E+01  1.00800000E+00  1.00800000E+00  1.60000000E+01  1.00800000E+00
  1.00800000E+00  1.60000000E+01  1.00800000E+00  1.00800000E+00  1.60000000E+01
  1.00800000E+00  1.00800000E+00  1.60000000E+01  1.00800000E+00  1.00800000E+00
  1.60000000E+01  1.00800000E+00  1.00800000E+00  1.60000000E+01  1.00800000E+00
  1.00800000E+00  1.60000000E+01  1.00800000E+00  1.00800000E+00  1.60000000E+01
  1.00800000E+00  1.00800000E+00  1.60000000E+01  1.00800000E+00  1.00800000E+00
  1.60000000E+01  1.00800000E+00  1.00800000E+00  1.60000000E+01  1.00800000E+00
  1.00800000E+00  1.60000000E+01  1.00800000E+00  1.00800000E+00  1.60000000E+01
  1.00800000E+00  1.00800000E+00  1.60000000E+01  1.00800000E+00  1.00800000E+00
  1.60000000E+01  1.00800000E+00  1.00800000E+00  1.60000000E+01  1.00800000E+00
  1.00800000E+00  1.60000000E+01  1.00800000E+00  1.00800000E+00  1.60000000E+01
  1.00800000E+00  1.00800000E+00  1.60000000E+01  1.00800000E+00  1.00800000E+00
  1.60000000E+01  1.00800000E+00  1.00800000E+00  1.60000000E+01  1.00800000E+00
  1.00800000E+00  1.60000000E+01  1.00800000E+00  1.00800000E+00  1.60000000E+01
  1.00800000E+00  1.00800000E+00  1.60000000E+01  1.00800000E+00  1.00800000E+00
  1.60000000E+01  1.00800000E+00  1.00800000E+00  1.60000000E+01  1.00800000E+00
  1.00800000E+00  1.60000000E+01  1.00800000E+00  1.00800000E+00  1.60000000E+01
  1.00800000E+00  1.00800000E+00  1.60000000E+01  1.00800000E+00  1.00800000E+00
  1.60000000E+01  1.00800000E+00  1.00800000E+00  1.60000000E+01  1.00800000E+00
  1.00800000E+00  1.60000000E+01  1.00800000E+00  1.00800000E+00  1.60000000E+01
  1.00800000E+00  1.00800000E+00  1.60000000E+01  1.00800000E+00  1.00800000E+00
  1.60000000E+01  1.00800000E+00  1.00800000E+00  1.60000000E+01  1.00800000E+00
  1.00800000E+00  1.60000000E+01  1.00800000E+00  1.00800000E+00  1.60000000E+01
  1.00800000E+00  1.00800000E+00  1.60000000E+01  1.00800000E+00  1.00800000E+00
  1.60000000E+01  1.00800000E+00  1.00800000E+00  1.60000000E+01  1.00800000E+00
  1.00800000E+00  1.60000000E+01  1.00800000E+00  1.00800000E+00  1.60000000E+01
  1.00800000E+00  1.00800000E+00  1.60000000E+01  1.00800000E+00  1.00800000E+00
  1.60000000E+01  1.00800000E+00  1.00800000E+00  1.60000000E+01  1.00800000E+00
  1.00800000E+00  1.60000000E+01  1.00800000E+00  1.00800000E+00  1.60000000E+01
  1.00800000E+00  1.00800000E+00  1.60000000E+01  1.00800000E+00  1.00800000E+00
  1.60000000E+01  1.00800000E+00  1.00800000E+00  1.60000000E+01  1.00800000E+00
  1.00800000E+00  1.60000000E+01  1.00800000E+00  1.00800000E+00  1.60000000E+01
  1.00800000E+00  1.00800000E+00  1.60000000E+01  1.00800000E+00  1.00800000E+00
  1.60000000E+01  1.00800000E+00  1.00800000E+00  1.60000000E+01  1.00800000E+00
  1.00800000E+00  1.60000000E+01  1.00800000E+00  1.00800000E+00  1.60000000E+01
  1.00800000E+00  1.00800000E+00  1.60000000E+01  1.00800000E+00  1.00800000E+00
  1.60000000E+01  1.00800000E+00  1.00800000E+00  1.60000000E+01  1.00800000E+00
  1.00800000E+00  1.60000000E+01  1.00800000E+00  1.00800000E+00  1.60000000E+01
  1.00800000E+00  1.00800000E+00  1.60000000E+01  1.00800000E+00  1.00800000E+00
  1.60000000E+01  1.00800000E+00  1.00800000E+00  1.60000000E+01  1.00800000E+00
  1.00800000E+00  1.60000000E+01  1.00800000E+00  1.00800000E+00  1.60000000E+01
  1.00800000E+00  1.00800000E+00  1.60000000E+01  1.00800000E+00  1.00800000E+00
  1.60000000E+01  1.00800000E+00  1.00800000E+00  1.60000000E+01  1.00800000E+00
  1.00800000E+00  1.60000000E+01  1.00800000E+00  1.00800000E+00  1.60000000E+01
  1.00800000E+00  1.00800000E+00  1.60000000E+01  1.00800000E+00  1.00800000E+00
  1.60000000E+01  1.00800000E+00  1.00800000E+00  1.60000000E+01  1.00800000E+00
  1.00800000E+00  1.60000000E+01  1.00800000E+00  1.00800000E+00  1.60000000E+01
  1.00800000E+00  1.00800000E+00  1.60000000E+01  1.00800000E+00  1.00800000E+00
  1.60000000E+01  1.00800000E+00  1.00800000E+00  1.60000000E+01  1.00800000E+00
  1.00800000E+00  1.60000000E+01  1.00800000E+00  1.00800000E+00  1.60000000E+01
  1.00800000E+00  1.00800000E+00  1.60000000E+01  1.00800000E+00  1.00800000E+00
  1.60000000E+01  1.00800000E+00  1.00800000E+00  1.60000000E+01  1.00800000E+00
  1.00800000E+00  1.60000000E+01  1.00800000E+00  1.00800000E+00  1.60000000E+01
  1.00800000E+00  1.00800000E+00  1.60000000E+01  1.00800000E+00  1.00800000E+00
  1.60000000E+01  1.00800000E+00  1.00800000E+00  1.60000000E+01  1.00800000E+00
  1.00800000E+00  1.60000000E+01  1.00800000E+00  1.00800000E+00  1.60000000E+01
  1.00800000E+00  1.00800000E+00  1.60000000E+01  1.00800000E+00  1.00800000E+00
  1.60000000E+01  1.00800000E+00  1.00800000E+00  1.60000000E+01  1.00800000E+00
  1.00800000E+00  1.60000000E+01  1.00800000E+00  1.00800000E+00  1.60000000E+01
  1.00800000E+00  1.00800000E+00  1.60000000E+01  1.00800000E+00  1.00800000E+00
  1.60000000E+01  1.00800000E+00  1.00800000E+00  1.60000000E+01  1.00800000E+00
  1.00800000E+00  1.60000000E+01  1.00800000E+00  1.00800000E+00  1.60000000E+01
  1.00800000E+00  1.00800000E+00  1.60000000E+01  1.00800000E+00  1.00800000E+00
  1.60000000E+01  1.00800000E+00  1.00800000E+00  1.60000000E+01  1.00800000E+00
  1.00800000E+00  1.60000000E+01  1.00800000E+00  1.00800000E+00  1.60000000E+01
  1.00800000E+00  1.00800000E+00  1.60000000E+01  1.00800000E+00  1.00800000E+00
  1.60000000E+01  1.00800000E+00  1.00800000E+00  1.60000000E+01  1.00800000E+00
  1.00800000E+00  1.60000000E+01  1.00800000E+00  1.00800000E+00  1.60000000E+01
  1.00800000E+00  1.00800000E+00  1.60000000E+01  1.00800000E+00  1.00800000E+00
  1.60000000E+01  1.00800000E+00  1.00800000E+00  1.60000000E+01  1.00800000E+00
  1.00800000E+00  1.60000000E+01  1.00800000E+00  1.00800000E+00  1.60000000E+01
  1.00800000E+00  1.00800000E+00  1.60000000E+01  1.00800000E+00  1.00800000E+00
  1.60000000E+01  1.00800000E+00  1.00800000E+00  1.60000000E+01  1.00800000E+00
  1.00800000E+00  1.60000000E+01  1.00800000E+00  1.00800000E+00  1.60000000E+01
  1.00800000E+00  1.00800000E+00  1.60000000E+01  1.00800000E+00  1.00800000E+00
  1.60000000E+01  1.00800000E+00  1.00800000E+00  1.60000000E+01  1.00800000E+00
  1.00800000E+00  1.60000000E+01  1.00800000E+00  1.00800000E+00  1.60000000E+01
  1.00800000E+00  1.00800000E+00  1.60000000E+01  1.00800000E+00  1.00800000E+00
  1.60000000E+01  1.00800000E+00  1.00800000E+00  1.60000000E+01  1.00800000E+00
  1.00800000E+00  1.60000000E+01  1.00800000E+00  1.00800000E+00  1.60000000E+01
  1.00800000E+00  1.00800000E+00  1.60000000E+01  1.00800000E+00  1.00800000E+00
  1.60000000E+01  1.00800000E+00  1.00800000E+00  1.60000000E+01  1.00800000E+00
  1.00800000E+00  1.60000000E+01  1.00800000E+00  1.00800000E+00  1.60000000E+01
  1.00800000E+00  1.00800000E+00  1.60000000E+01  1.00800000E+00  1.00800000E+00
  1.60000000E+01  1.00800000E+00  1.00800000E+00  1.60000000E+01  1.00800000E+00
  1.00800000E+00  1.60000000E+01  1.00800000E+00  1.00800000E+00  1.60000000E+01
  1.00800000E+00  1.00800000E+00  1.60000000E+01  1.00800000E+00  1.00800000E+00
  1.60000000E+01  1.00800000E+00  1.00800000E+00  1.60000000E+01  1.00800000E+00
  1.00800000E+00  1.60000000E+01  1.00800000E+00  1.00800000E+00  1.60000000E+01
  1.00800000E+00  1.00800000E+00  1.60000000E+01  1.00800000E+00  1.00800000E+00
  1.60000000E+01  1.00800000E+00  1.00800000E+00  1.60000000E+01  1.00800000E+00
  1.00800000E+00  1.60000000E+01  1.00800000E+00  1.00800000E+00  1.60000000E+01
  1.00800000E+00  1.00800000E+00  1.60000000E+01  1.00800000E+00  1.00800000E+00
  1.60000000E+01  1.00800000E+00  1.00800000E+00  1.60000000E+01  1.00800000E+00
  1.00800000E+00  1.60000000E+01  1.00800000E+00  1.00800000E+00  1.60000000E+01
  1.00800000E+00  1.00800000E+00  1.60000000E+01  1.00800000E+00  1.00800000E+00
  1.60000000E+01  1.00800000E+00  1.00800000E+00  1.60000000E+01  1.00800000E+00
  1.00800000E+00  1.60000000E+01  1.00800000E+00  1.00800000E+00  1.60000000E+01
  1.00800000E+00  1.00800000E+00  1.60000000E+01  1.00800000E+00  1.00800000E+00
  1.60000000E+01  1.00800000E+00  1.00800000E+00  1.60000000E+01  1.00800000E+00
  1.00800000E+00  1.60000000E+01  1.00800000E+00  1.00800000E+00  1.60000000E+01
  1.00800000E+00  1.00800000E+00  1.60000000E+01  1.00800000E+00  1.00800000E+00
  1.60000000E+01  1.00800000E+00  1.00800000E+00  1.60000000E+01  1.00800000E+00
  1.00800000E+00  1.60000000E+01  1.00800000E+00  1.00800000E+00  1.60000000E+01
  1.00800000E+00  1.00800000E+00  1.60000000E+01  1.00800000E+00  1.00800000E+00
  1.60000000E+01  1.00800000E+00  1.00800000E+00  1.60000000E+01  1.00800000E+00
  1.00800000E+00  1.60000000E+01  1.00800000E+00  1.00800000E+00  1.60000000E+01
  1.00800000E+00  1.00800000E+00  1.60000000E+01  1.00800000E+00  1.00800000E+00
  1.60000000E+01  1.00800000E+00  1.00800000E+00  1.60000000E+01  1.00800000E+00
  1.00800000E+00  1.60000000E+01  1.00800000E+00  1.00800000E+00  1.60000000E+01
  1.00800000E+00  1.00800000E+00  1.60000000E+01  1.00800000E+00  1.00800000E+00
  1.60000000E+01  1.00800000E+00  1.00800000E+00  1.60000000E+01  1.00800000E+00
  1.00800000E+00  1.60000000E+01  1.00800000E+00  1.00800000E+00  1.60000000E+01
  1.00800000E+00  1.00800000E+00  1.60000000E+01  1.00800000E+00  1.00800000E+00
  1.60000000E+01  1.00800000E+00  1.00800000E+00  1.60000000E+01  1.00800000E+00
  1.00800000E+00  1.60000000E+01  1.00800000E+00  1.00800000E+00  1.60000000E+01
  1.00800000E+00  1.00800000E+00  1.60000000E+01  1.00800000E+00  1.00800000E+00
  1.60000000E+01  1.00800000E+00  1.00800000E+00  1.60000000E+01  1.00800000E+00
  1.00800000E+00  1.60000000E+01  1.00800000E+00  1.00800000E+00  1.60000000E+01
  1.00800000E+00  1.00800000E+00  1.60000000E+01  1.00800000E+00  1.00800000E+00
  1.60000000E+01  1.00800000E+00  1.00800000E+00  1.60000000E+01  1.00800000E+00
  1.00800000E+00  1.60000000E+01  1.00800000E+00  1.00800000E+00  1.60000000E+01
  1.00800000E+00  1.00800000E+00  1.60000000E+01  1.00800000E+00  1.00800000E+00
  1.60000000E+01  1.00800000E+00  1.00800000E+00  1.60000000E+01  1.00800000E+00
  1.00800000E+00  1.60000000E+01  1.00800000E+00  1.00800000E+00  1.60000000E+01
  1.00800000E+00  1.00800000E+00  1.60000000E+01  1.00800000E+00  1.00800000E+00
  1.60000000E+01  1.00800000E+00  1.00800000E+00  1.60000000E+01  1.00800000E+00
  1.00800000E+00  1.60000000E+01  1.00800000E+00  1.00800000E+00  1.60000000E+01
  1.00800000E+00  1.00800000E+00  1.60000000E+01  1.00800000E+00  1.00800000E+00
  1.60000000E+01  1.00800000E+00  1.00800000E+00  1.60000000E+01  1.00800000E+00
  1.00800000E+00  1.60000000E+01  1.00800000E+00  1.00800000E+00  1.60000000E+01
  1.00800000E+00  1.00800000E+00  1.60000000E+01  1.00800000E+00  1.00800000E+00
  1.60000000E+01  1.00800000E+00  1.00800000E+00  1.60000000E+01  1.00800000E+00
  1.00800000E+00  1.60000000E+01  1.00800000E+00  1.00800000E+00  1.60000000E+01
  1.00800000E+00  1.00800000E+00  1.60000000E+01  1.00800000E+00  1.00800000E+00
  1.60000000E+01  1.00800000E+00  1.00800000E+00  1.60000000E+01  1.00800000E+00
  1.00800000E+00  1.60000000E+01  1.00800000E+00  1.00800000E+00  1.60000000E+01
  1.00800000E+00  1.00800000E+00  1.60000000E+01  1.00800000E+00  1.00800000E+00
  1.60000000E+01  1.00800000E+00  1.00800000E+00  1.60000000E+01  1.00800000E+00
  1.00800000E+00  1.60000000E+01  1.00800000E+00  1.00800000E+00  1.60000000E+01
  1.00800000E+00  1.00800000E+00  1.60000000E+01  1.00800000E+00  1.00800000E+00
  1.60000000E+01  1.00800000E+00  1.00800000E+00  1.60000000E+01  1.00800000E+00
  1.00800000E+00  1.60000000E+01  1.00800000E+00  1.00800000E+00  1.60000000E+01
  1.00800000E+00  1.00800000E+00  1.60000000E+01  1.00800000E+00  1.00800000E+00
  1.60000000E+01  1.00800000E+00  1.00800000E+00  1.60000000E+01  1.00800000E+00
  1.00800000E+00  1.60000000E+01  1.00800000E+00  1.00800000E+00  1.60000000E+01
  1.00800000E+00  1.00800000E+00  1.60000000E+01  1.00800000E+00  1.00800000E+00
  1.60000000E+01  1.00800000E+00  1.00800000E+00  1.60000000E+01  1.00800000E+00
  1.00800000E+00  1.60000000E+01  1.00800000E+00  1.00800000E+00  1.60000000E+01
  1.00800000E+00  1.00800000E+00  1.60000000E+01  1.00800000E+00  1.00800000E+00
  1.60000000E+01  1.00800000E+00  1.00800000E+00  1.60000000E+01  1.00800000E+00
  1.00800000E+00  1.60000000E+01  1.00800000E+00  1.00800000E+00  1.60000000E+01
  1.00800000E+00  1.00800000E+00  1.60000000E+01  1.00800000E+00  1.00800000E+00
  1.60000000E+01  1.00800000E+00  1.00800000E+00  1.60000000E+01  1.00800000E+00
  1.00800000E+00  1.60000000E+01  1.00800000E+00  1.00800000E+00  1.60000000E+01
  1.00800000E+00  1.00800000E+00  1.60000000E+01  1.00800000E+00  1.00800000E+00
  1.60000000E+01  1.00800000E+00  1.00800000E+00  1.60000000E+01  1.00800000E+00
  1.00800000E+00  1.60000000E+01  1.00800000E+00  1.00800000E+00  1.60000000E+01
  1.00800000E+00  1.00800000E+00  1.60000000E+01  1.00800000E+00  1.00800000E+00
  1.60000000E+01  1.00800000E+00  1.00800000E+00  1.60000000E+01  1.00800000E+00
  1.00800000E+00  1.60000000E+01  1.00800000E+00  1.00800000E+00  1.60000000E+01
  1.00800000E+00  1.00800000E+00  1.60000000E+01  1.00800000E+00  1.00800000E+00
  1.60000000E+01  1.00800000E+00  1.00800000E+00  1.60000000E+01  1.00800000E+00
  1.00800000E+00  1.60000000E+01  1.00800000E+00  1.00800000E+00  1.60000000E+01
  1.00800000E+00  1.00800000E+00  1.60000000E+01  1.00800000E+00  1.00800000E+00
  1.60000000E+01  1.00800000E+00  1.00800000E+00  1.60000000E+01  1.00800000E+00
  1.00800000E+00  1.60000000E+01  1.00800000E+00  1.00800000E+00  1.60000000E+01
  1.00800000E+00  1.00800000E+00  1.60000000E+01  1.00800000E+00  1.00800000E+00
  1.60000000E+01  1.00800000E+00  1.00800000E+00  1.60000000E+01  1.00800000E+00
  1.00800000E+00  1.60000000E+01  1.00800000E+00  1.00800000E+00  1.60000000E+01
  1.00800000E+00  1.00800000E+00  1.60000000E+01  1.00800000E+00  1.00800000E+00
  1.60000000E+01  1.00800000E+00  1.00800000E+00  1.60000000E+01  1.00800000E+00
  1.00800000E+00  1.60000000E+01  1.00800000E+00  1.00800000E+00  1.60000000E+01
  1.00800000E+00  1.00800000E+00  1.60000000E+01  1.00800000E+00  1.00800000E+00
  1.60000000E+01  1.00800000E+00  1.00800000E+00  1.60000000E+01  1.00800000E+00
  1.00800000E+00  1.60000000E+01  1.00800000E+00  1.00800000E+00  1.60000000E+01
  1.00800000E+00  1.00800000E+00  1.60000000E+01  1.00800000E+00  1.00800000E+00
  1.60000000E+01  1.00800000E+00  1.00800000E+00  1.60000000E+01  1.00800000E+00
  1.00800000E+00  1.60000000E+01  1.00800000E+00  1.00800000E+00  1.60000000E+01
  1.00800000E+00  1.00800000E+00  1.60000000E+01  1.00800000E+00  1.00800000E+00
  1.60000000E+01  1.00800000E+00  1.00800000E+00  1.60000000E+01  1.00800000E+00
  1.00800000E+00  1.60000000E+01  1.00800000E+00  1.00800000E+00  1.60000000E+01
  1.00800000E+00  1.00800000E+00  1.60000000E+01  1.00800000E+00  1.00800000E+00
  1.60000000E+01  1.00800000E+00  1.00800000E+00  1.60000000E+01  1.00800000E+00
  1.00800000E+00  1.60000000E+01  1.00800000E+00  1.00800000E+00  1.60000000E+01
  1.00800000E+00  1.00800000E+00  1.60000000E+01  1.00800000E+00  1.00800000E+00
  1.60000000E+01  1.00800000E+00  1.00800000E+00  1.60000000E+01  1.00800000E+00
  1.00800000E+00  1.60000000E+01  1.00800000E+00  1.00800000E+00  1.60000000E+01
  1.00800000E+00  1.00800000E+00  1.60000000E+01  1.00800000E+00  1.00800000E+00
  1.60000000E+01  1.00800000E+00  1.00800000E+00  1.60000000E+01  1.00800000E+00
  1.00800000E+00  1.60000000E+01  1.00800000E+00  1.00800000E+00  1.60000000E+01
  1.00800000E+00  1.00800000E+00  1.60000000E+01  1.00800000E+00  1.00800000E+00
  1.60000000E+01  1.00800000E+00  1.00800000E+00  1.60000000E+01  1.00800000E+00
  1.00800000E+00  1.60000000E+01  1.00800000E+00  1.00800000E+00  1.60000000E+01
  1.00800000E+00  1.00800000E+00  1.60000000E+01  1.00800000E+00  1.00800000E+00
  1.60000000E+01  1.00800000E+00  1.00800000E+00  1.60000000E+01  1.00800000E+00
  1.00800000E+00  1.60000000E+01  1.00800000E+00  1.00800000E+00  1.60000000E+01
  1.00800000E+00  1.00800000E+00  1.60000000E+01  1.00800000E+00  1.00800000E+00
  1.60000000E+01  1.00800000E+00  1.00800000E+00  1.60000000E+01  1.00800000E+00
  1.00800000E+00  1.60000000E+01  1.00800000E+00  1.00800000E+00  1.60000000E+01
  1.00800000E+00  1.00800000E+00  1.60000000E+01  1.00800000E+00  1.00800000E+00
  1.60000000E+01  1.00800000E+00  1.00800000E+00  1.60000000E+01  1.00800000E+00
  1.00800000E+00  1.60000000E+01  1.00800000E+00  1.00800000E+00  1.60000000E+01
  1.00800000E+00  1.00800000E+00  1.60000000E+01  1.00800000E+00  1.00800000E+00
  1.60000000E+01  1.00800000E+00  1.00800000E+00  1.60000000E+01  1.00800000E+00
  1.00800000E+00  1.60000000E+01  1.00800000E+00  1.00800000E+00  1.60000000E+01
  1.00800000E+00  1.00800000E+00  1.60000000E+01  1.00800000E+00  1.00800000E+00
  1.60000000E+01  1.00800000E+00  1.00800000E+00  1.60000000E+01  1.00800000E+00
  1.00800000E+00  1.60000000E+01  1.00800000E+00  1.00800000E+00  1.60000000E+01
  1.00800000E+00  1.00800000E+00  1.60000000E+01  1.00800000E+00  1.00800000E+00
  1.60000000E+01  1.00800000E+00  1.00800000E+00  1.60000000E+01  1.00800000E+00
  1.00800000E+00  1.60000000E+01  1.00800000E+00  1.00800000E+00  1.60000000E+01
  1.00800000E+00  1.00800000E+00  1.60000000E+01  1.00800000E+00  1.00800000E+00
  1.60000000E+01  1.00800000E+00  1.00800000E+00  1.60000000E+01  1.00800000E+00
  1.00800000E+00  1.60000000E+01  1.00800000E+00  1.00800000E+00  1.60000000E+01
  1.00800000E+00  1.00800000E+00  1.60000000E+01  1.00800000E+00  1.00800000E+00
  1.60000000E+01  1.00800000E+00  1.00800000E+00  1.60000000E+01  1.00800000E+00
  1.00800000E+00  1.60000000E+01  1.00800000E+00  1.00800000E+00  1.60000000E+01
  1.00800000E+00  1.00800000E+00  1.60000000E+01  1.00800000E+00  1.00800000E+00
  1.60000000E+01  1.00800000E+00  1.00800000E+00  1.60000000E+01  1.00800000E+00
  1.00800000E+00  1.60000000E+01  1.00800000E+00  1.00800000E+00  1.60000000E+01
  1.00800000E+00  1.00800000E+00  1.60000000E+01  1.00800000E+00  1.00800000E+00
  1.60000000E+01  1.00800000E+00  1.00800000E+00  1.60000000E+01  1.00800000E+00
  1.00800000E+00  1.60000000E+01  1.00800000E+00  1.00800000E+00  1.60000000E+01
  1.00800000E+00  1.00800000E+00  1.60000000E+01  1.00800000E+00  1.00800000E+00
  1.60000000E+01  1.00800000E+00  1.00800000E+00  1.60000000E+01  1.00800000E+00
  1.00800000E+00  1.60000000E+01  1.00800000E+00  1.00800000E+00  1.60000000E+01
  1.00800000E+00  1.00800000E+00  1.60000000E+01  1.00800000E+00  1.00800000E+00
  1.60000000E+01  1.00800000E+00  1.00800000E+00  1.60000000E+01  1.00800000E+00
  1.00800000E+00  1.60000000E+01  1.00800000E+00  1.00800000E+00  1.60000000E+01
  1.00800000E+00  1.00800000E+00  1.60000000E+01  1.00800000E+00  1.00800000E+00
  1.60000000E+01  1.00800000E+00  1.00800000E+00  1.60000000E+01  1.00800000E+00
  1.00800000E+00  1.60000000E+01  1.00800000E+00  1.00800000E+00  1.60000000E+01
  1.00800000E+00  1.00800000E+00  1.60000000E+01  1.00800000E+00  1.00800000E+00
  1.60000000E+01  1.00800000E+00  1.00800000E+00  1.60000000E+01  1.00800000E+00
  1.00800000E+00  1.60000000E+01  1.00800000E+00  1.00800000E+00  1.60000000E+01
  1.00800000E+00  1.00800000E+00  1.60000000E+01  1.00800000E+00  1.00800000E+00
  1.60000000E+01  1.00800000E+00  1.00800000E+00  1.60000000E+01  1.00800000E+00
  1.00800000E+00  1.60000000E+01  1.00800000E+00  1.00800000E+00  1.60000000E+01
  1.00800000E+00  1.00800000E+00  1.60000000E+01  1.00800000E+00  1.00800000E+00
  1.60000000E+01  1.00800000E+00  1.00800000E+00  1.60000000E+01  1.00800000E+00
  1.00800000E+00  1.60000000E+01  1.00800000E+00  1.00800000E+00  1.60000000E+01
  1.00800000E+00  1.00800000E+00  1.60000000E+01  1.00800000E+00  1.00800000E+00
  1.60000000E+01  1.00800000E+00  1.00800000E+00  1.60000000E+01  1.00800000E+00
  1.00800000E+00  1.60000000E+01  1.00800000E+00  1.00800000E+00  1.60000000E+01
  1.00800000E+00  1.00800000E+00  1.60000000E+01  1.00800000E+00  1.00800000E+00
  1.60000000E+01  1.00800000E+00  1.00800000E+00  1.60000000E+01  1.00800000E+00
  1.00800000E+00  1.60000000E+01  1.00800000E+00  1.00800000E+00  1.60000000E+01
  1.00800000E+00  1.00800000E+00  1.60000000E+01  1.00800000E+00  1.00800000E+00
  1.60000000E+01  1.00800000E+00  1.00800000E+00  1.60000000E+01  1.00800000E+00
  1.00800000E+00  1.60000000E+01  1.00800000E+00  1.00800000E+00  1.60000000E+01
  1.00800000E+00  1.00800000E+00  1.60000000E+01  1.00800000E+00  1.00800000E+00
  1.60000000E+01  1.00800000E+00  1.00800000E+00  1.60000000E+01  1.00800000E+00
  1.00800000E+00  1.60000000E+01  1.00800000E+00  1.00800000E+00  1.60000000E+01
  1.00800000E+00  1.00800000E+00  1.60000000E+01  1.00800000E+00  1.00800000E+00
  1.60000000E+01  1.00800000E+00  1.00800000E+00  1.60000000E+01  1.00800000E+00
  1.00800000E+00  1.60000000E+01  1.00800000E+00  1.00800000E+00  1.60000000E+01
  1.00800000E+00  1.00800000E+00  1.60000000E+01  1.00800000E+00  1.00800000E+00
  1.60000000E+01  1.00800000E+00  1.00800000E+00  1.60000000E+01  1.00800000E+00
  1.00800000E+00  1.60000000E+01  1.00800000E+00  1.00800000E+00  1.60000000E+01
  1.00800000E+00  1.00800000E+00  1.60000000E+01  1.00800000E+00  1.00800000E+00
  1.60000000E+01  1.00800000E+00  1.00800000E+00  1.60000000E+01  1.00800000E+00
  1.00800000E+00  1.60000000E+01  1.00800000E+00  1.00800000E+00  1.60000000E+01
  1.00800000E+00  1.00800000E+00  1.60000000E+01  1.00800000E+00  1.00800000E+00
  1.60000000E+01  1.00800000E+00  1.00800000E+00  1.60000000E+01  1.00800000E+00
  1.00800000E+00  1.60000000E+01  1.00800000E+00  1.00800000E+00  1.60000000E+01
  1.00800000E+00  1.00800000E+00  1.60000000E+01  1.00800000E+00  1.00800000E+00
  1.60000000E+01  1.00800000E+00  1.00800000E+00  1.60000000E+01  1.00800000E+00
  1.00800000E+00  1.60000000E+01  1.00800000E+00  1.00800000E+00  1.60000000E+01
  1.00800000E+00  1.00800000E+00  1.60000000E+01  1.00800000E+00  1.00800000E+00
  1.60000000E+01  1.00800000E+00  1.00800000E+00  1.60000000E+01  1.00800000E+00
  1.00800000E+00  1.60000000E+01  1.00800000E+00  1.00800000E+00  1.60000000E+01
  1.00800000E+00  1.00800000E+00  1.60000000E+01  1.00800000E+00  1.00800000E+00
  1.60000000E+01  1.00800000E+00  1.00800000E+00  1.60000000E+01  1.00800000E+00
  1.00800000E+00  1.60000000E+01  1.00800000E+00  1.00800000E+00  1.60000000E+01
  1.00800000E+00  1.00800000E+00  1.60000000E+01  1.00800000E+00  1.00800000E+00
  1.60000000E+01  1.00800000E+00  1.00800000E+00  1.60000000E+01  1.00800000E+00
  1.00800000E+00  1.60000000E+01  1.00800000E+00  1.00800000E+00  1.60000000E+01
  1.00800000E+00  1.00800000E+00  1.60000000E+01  1.00800000E+00  1.00800000E+00
  1.60000000E+01  1.00800000E+00  1.00800000E+00  1.60000000E+01  1.00800000E+00
  1.00800000E+00  1.60000000E+01  1.00800000E+00  1.00800000E+00  1.60000000E+01
  1.00800000E+00  1.00800000E+00  1.60000000E+01  1.00800000E+00  1.00800000E+00
  1.60000000E+01  1.00800000E+00  1.00800000E+00  1.60000000E+01  1.00800000E+00
  1.00800000E+00  1.60000000E+01  1.00800000E+00  1.00800000E+00  1.60000000E+01
  1.00800000E+00  1.00800000E+00  1.60000000E+01  1.00800000E+00  1.00800000E+00
  1.60000000E+01  1.00800000E+00  1.00800000E+00  1.60000000E+01  1.00800000E+00
  1.00800000E+00  1.60000000E+01  1.00800000E+00  1.00800000E+00  1.60000000E+01
  1.00800000E+00  1.00800000E+00  1.60000000E+01  1.00800000E+00  1.00800000E+00
  1.60000000E+01  1.00800000E+00  1.00800000E+00  1.60000000E+01  1.00800000E+00
  1.00800000E+00  1.60000000E+01  1.00800000E+00  1.00800000E+00  1.60000000E+01
  1.00800000E+00  1.00800000E+00  1.60000000E+01  1.00800000E+00  1.00800000E+00
  1.60000000E+01  1.00800000E+00  1.00800000E+00  1.60000000E+01  1.00800000E+00
  1.00800000E+00  1.60000000E+01  1.00800000E+00  1.00800000E+00  1.60000000E+01
  1.00800000E+00  1.00800000E+00  1.60000000E+01  1.00800000E+00  1.00800000E+00
  1.60000000E+01  1.00800000E+00  1.00800000E+00  1.60000000E+01  1.00800000E+00
  1.00800000E+00  1.60000000E+01  1.00800000E+00  1.00800000E+00  1.60000000E+01
  1.00800000E+00  1.00800000E+00  1.60000000E+01  1.00800000E+00  1.00800000E+00
  1.60000000E+01  1.00800000E+00  1.00800000E+00  1.60000000E+01  1.00800000E+00
  1.00800000E+00  1.60000000E+01  1.00800000E+00  1.00800000E+00  1.60000000E+01
  1.00800000E+00  1.00800000E+00  1.60000000E+01  1.00800000E+00  1.00800000E+00
  1.60000000E+01  1.00800000E+00  1.00800000E+00  1.60000000E+01  1.00800000E+00
  1.00800000E+00  1.60000000E+01  1.00800000E+00  1.00800000E+00  1.60000000E+01
  1.00800000E+00  1.00800000E+00  1.60000000E+01  1.00800000E+00  1.00800000E+00
  1.60000000E+01  1.00800000E+00  1.00800000E+00  1.60000000E+01  1.00800000E+00
  1.00800000E+00  1.60000000E+01  1.00800000E+00  1.00800000E+00  1.60000000E+01
  1.00800000E+00  1.00800000E+00  1.60000000E+01  1.00800000E+00  1.00800000E+00
  1.60000000E+01  1.00800000E+00  1.00800000E+00  1.60000000E+01  1.00800000E+00
  1.00800000E+00  1.60000000E+01  1.00800000E+00  1.00800000E+00  1.60000000E+01
  1.00800000E+00  1.00800000E+00  1.60000000E+01  1.00800000E+00  1.00800000E+00
  1.60000000E+01  1.00800000E+00  1.00800000E+00  1.60000000E+01  1.00800000E+00
  1.00800000E+00  1.60000000E+01  1.00800000E+00  1.00800000E+00  1.60000000E+01
  1.00800000E+00  1.00800000E+00  1.60000000E+01  1.00800000E+00  1.00800000E+00
  1.60000000E+01  1.00800000E+00  1.00800000E+00  1.60000000E+01  1.00800000E+00
  1.00800000E+00  1.60000000E+01  1.00800000E+00  1.00800000E+00  1.60000000E+01
  1.00800000E+00  1.00800000E+00  1.60000000E+01  1.00800000E+00  1.00800000E+00
  1.60000000E+01  1.00800000E+00  1.00800000E+00  1.60000000E+01  1.00800000E+00
  1.00800000E+00  1.60000000E+01  1.00800000E+00  1.00800000E+00  1.60000000E+01
  1.00800000E+00  1.00800000E+00  1.60000000E+01  1.00800000E+00  1.00800000E+00
  1.60000000E+01  1.00800000E+00  1.00800000E+00  1.60000000E+01  1.00800000E+00
  1.00800000E+00  1.60000000E+01  1.00800000E+00  1.00800000E+00  1.60000000E+01
  1.00800000E+00  1.00800000E+00  1.60000000E+01  1.00800000E+00  1.00800000E+00
  1.60000000E+01  1.00800000E+00  1.00800000E+00  1.60000000E+01  1.00800000E+00
  1.00800000E+00  1.60000000E+01  1.00800000E+00  1.00800000E+00  1.60000000E+01
  1.00800000E+00  1.00800000E+00  1.60000000E+01  1.00800000E+00  1.00800000E+00
  1.60000000E+01  1.00800000E+00  1.00800000E+00  1.60000000E+01  1.00800000E+00
  1.00800000E+00  1.60000000E+01  1.00800000E+00  1.00800000E+00  1.60000000E+01
  1.00800000E+00  1.00800000E+00  1.60000000E+01  1.00800000E+00  1.00800000E+00
  1.60000000E+01  1.00800000E+00  1.00800000E+00  1.60000000E+01  1.00800000E+00
  1.00800000E+00  1.60000000E+01  1.00800000E+00  1.00800000E+00  1.60000000E+01
  1.00800000E+00  1.00800000E+00  1.60000000E+01  1.00800000E+00  1.00800000E+00
  1.60000000E+01  1.00800000E+00  1.00800000E+00  1.60000000E+01  1.00800000E+00
  1.00800000E+00  1.60000000E+01  1.00800000E+00  1.00800000E+00  1.60000000E+01
  1.00800000E+00  1.00800000E+00  1.60000000E+01  1.00800000E+00  1.00800000E+00
  1.60000000E+01  1.00800000E+00  1.00800000E+00  1.60000000E+01  1.00800000E+00
  1.00800000E+00  1.60000000E+01  1.00800000E+00  1.00800000E+00  1.60000000E+01
  1.00800000E+00  1.00800000E+00  1.60000000E+01  1.00800000E+00  1.00800000E+00
  1.60000000E+01  1.00800000E+00  1.00800000E+00  1.60000000E+01  1.00800000E+00
  1.00800000E+00  1.60000000E+01  1.00800000E+00  1.00800000E+00  1.60000000E+01
  1.00800000E+00  1.00800000E+00  1.60000000E+01  1.00800000E+00  1.00800000E+00
  1.60000000E+01  1.00800000E+00  1.00800000E+00  1.60000000E+01  1.00800000E+00
  1.00800000E+00  1.60000000E+01  1.00800000E+00  1.00800000E+00  1.60000000E+01
  1.00800000E+00  1.00800000E+00  1.60000000E+01  1.00800000E+00  1.00800000E+00
  1.60000000E+01  1.00800000E+00  1.00800000E+00  1.60000000E+01  1.00800000E+00
  1.00800000E+00  1.60000000E+01  1.00800000E+00  1.00800000E+00  1.60000000E+01
  1.00800000E+00  1.00800000E+00  1.60000000E+01  1.00800000E+00  1.00800000E+00
  1.60000000E+01  1.00800000E+00  1.00800000E+00  1.60000000E+01  1.00800000E+00
  1.00800000E+00  1.60000000E+01  1.00800000E+00  1.00800000E+00  1.60000000E+01
  1.00800000E+00  1.00800000E+00  1.60000000E+01  1.00800000E+00  1.00800000E+00
  1.60000000E+01  1.00800000E+00  1.00800000E+00  1.60000000E+01  1.00800000E+00
  1.00800000E+00  1.60000000E+01  1.00800000E+00  1.00800000E+00  1.60000000E+01
  1.00800000E+00  1.00800000E+00  1.60000000E+01  1.00800000E+00  1.00800000E+00
  1.60000000E+01  1.00800000E+00  1.00800000E+00  1.60000000E+01  1.00800000E+00
  1.00800000E+00  1.60000000E+01  1.00800000E+00  1.00800000E+00  1.60000000E+01
  1.00800000E+00  1.00800000E+00  1.60000000E+01  1.00800000E+00  1.00800000E+00
  1.60000000E+01  1.00800000E+00  1.00800000E+00  1.60000000E+01  1.00800000E+00
  1.00800000E+00  1.60000000E+01  1.00800000E+00  1.00800000E+00  1.60000000E+01
  1.00800000E+00  1.00800000E+00  1.60000000E+01  1.00800000E+00  1.00800000E+00
  1.60000000E+01  1.00800000E+00  1.00800000E+00  1.60000000E+01  1.00800000E+00
  1.00800000E+00  1.60000000E+01  1.00800000E+00  1.00800000E+00  1.60000000E+01
  1.00800000E+00  1.00800000E+00  1.60000000E+01  1.00800000E+00  1.00800000E+00
  1.60000000E+01  1.00800000E+00  1.00800000E+00  1.60000000E+01  1.00800000E+00
  1.00800000E+00  1.60000000E+01  1.00800000E+00  1.00800000E+00  1.60000000E+01
  1.00800000E+00  1.00800000E+00  1.60000000E+01  1.00800000E+00  1.00800000E+00
  1.60000000E+01  1.00800000E+00  1.00800000E+00  1.60000000E+01  1.00800000E+00
  1.00800000E+00  1.60000000E+01  1.00800000E+00  1.00800000E+00  1.60000000E+01
  1.00800000E+00  1.00800000E+00  1.60000000E+01  1.00800000E+00  1.00800000E+00
  1.60000000E+01  1.00800000E+00  1.00800000E+00  1.60000000E+01  1.00800000E+00
  1.00800000E+00  1.60000000E+01  1.00800000E+00  1.00800000E+00  1.60000000E+01
  1.00800000E+00  1.00800000E+00  1.60000000E+01  1.00800000E+00  1.00800000E+00
  1.60000000E+01  1.00800000E+00  1.00800000E+00  1.60000000E+01  1.00800000E+00
  1.00800000E+00  1.60000000E+01  1.00800000E+00  1.00800000E+00  1.60000000E+01
  1.00800000E+00  1.00800000E+00  1.60000000E+01  1.00800000E+00  1.00800000E+00
  1.60000000E+01  1.00800000E+00  1.00800000E+00  1.60000000E+01  1.00800000E+00
  1.00800000E+00  1.60000000E+01  1.00800000E+00  1.00800000E+00  1.60000000E+01
  1.00800000E+00  1.00800000E+00  1.60000000E+01  1.00800000E+00  1.00800000E+00
  1.60000000E+01  1.00800000E+00  1.00800000E+00  1.60000000E+01  1.00800000E+00
  1.00800000E+00  1.60000000E+01  1.00800000E+00  1.00800000E+00  1.60000000E+01
  1.00800000E+00  1.00800000E+00  1.60000000E+01  1.00800000E+00  1.00800000E+00
  1.60000000E+01  1.00800000E+00  1.00800000E+00  1.60000000E+01  1.00800000E+00
  1.00800000E+00  1.60000000E+01  1.00800000E+00  1.00800000E+00  1.60000000E+01
  1.00800000E+00  1.00800000E+00  1.60000000E+01  1.00800000E+00  1.00800000E+00
  1.60000000E+01  1.00800000E+00  1.00800000E+00  1.60000000E+01  1.00800000E+00
  1.00800000E+00  1.60000000E+01  1.00800000E+00  1.00800000E+00  1.60000000E+01
  1.00800000E+00  1.00800000E+00  1.60000000E+01  1.00800000E+00  1.00800000E+00
  1.60000000E+01  1.00800000E+00  1.00800000E+00  1.60000000E+01  1.00800000E+00
  1.00800000E+00  1.60000000E+01  1.00800000E+00  1.00800000E+00  1.60000000E+01
  1.00800000E+00  1.00800000E+00  1.60000000E+01  1.00800000E+00  1.00800000E+00
  1.60000000E+01  1.00800000E+00  1.00800000E+00  1.60000000E+01  1.00800000E+00
  1.00800000E+00  1.60000000E+01  1.00800000E+00  1.00800000E+00  1.60000000E+01
  1.00800000E+00  1.00800000E+00  1.60000000E+01  1.00800000E+00  1.00800000E+00
  1.60000000E+01  1.00800000E+00  1.00800000E+00  1.60000000E+01  1.00800000E+00
  1.00800000E+00  1.60000000E+01  1.00800000E+00  1.00800000E+00  1.60000000E+01
  1.00800000E+00  1.00800000E+00  1.60000000E+01  1.00800000E+00  1.00800000E+00
  1.60000000E+01  1.00800000E+00  1.00800000E+00  1.60000000E+01  1.00800000E+00
  1.00800000E+00  1.60000000E+01  1.00800000E+00  1.00800000E+00  1.60000000E+01
  1.00800000E+00  1.00800000E+00  1.60000000E+01  1.00800000E+00  1.00800000E+00
  1.60000000E+01  1.00800000E+00  1.00800000E+00  1.60000000E+01  1.00800000E+00
  1.00800000E+00  1.60000000E+01  1.00800000E+00  1.00800000E+00  1.60000000E+01
  1.00800000E+00  1.00800000E+00  1.60000000E+01  1.00800000E+00  1.00800000E+00
  1.60000000E+01  1.00800000E+00  1.00800000E+00  1.60000000E+01  1.00800000E+00
  1.00800000E+00  1.60000000E+01  1.00800000E+00  1.00800000E+00  1.60000000E+01
  1.00800000E+00  1.00800000E+00  1.60000000E+01  1.00800000E+00  1.00800000E+00
  1.60000000E+01  1.00800000E+00  1.00800000E+00  1.60000000E+01  1.00800000E+00
  1.00800000E+00  1.60000000E+01  1.00800000E+00  1.00800000E+00  1.60000000E+01
  1.00800000E+00  1.00800000E+00  1.60000000E+01  1.00800000E+00  1.00800000E+00
  1.60000000E+01  1.00800000E+00  1.00800000E+00  1.60000000E+01  1.00800000E+00
  1.00800000E+00  1.60000000E+01  1.00800000E+00  1.00800000E+00  1.60000000E+01
  1.00800000E+00  1.00800000E+00  1.60000000E+01  1.00800000E+00  1.00800000E+00
  1.60000000E+01  1.00800000E+00  1.00800000E+00  1.60000000E+01  1.00800000E+00
  1.00800000E+00  1.60000000E+01  1.00800000E+00  1.00800000E+00  1.60000000E+01
  1.00800000E+00  1.00800000E+00  1.60000000E+01  1.00800000E+00  1.00800000E+00
  1.60000000E+01  1.00800000E+00  1.00800000E+00  1.60000000E+01  1.00800000E+00
  1.00800000E+00  1.60000000E+01  1.00800000E+00  1.00800000E+00  1.60000000E+01
  1.00800000E+00  1.00800000E+00  1.60000000E+01  1.00800000E+00  1.00800000E+00
  1.60000000E+01  1.00800000E+00  1.00800000E+00  1.60000000E+01  1.00800000E+00
  1.00800000E+00  1.60000000E+01  1.00800000E+00  1.00800000E+00  1.60000000E+01
  1.00800000E+00  1.00800000E+00  1.60000000E+01  1.00800000E+00  1.00800000E+00
  1.60000000E+01  1.00800000E+00  1.00800000E+00  1.60000000E+01  1.00800000E+00
  1.00800000E+00  1.60000000E+01  1.00800000E+00  1.00800000E+00  1.60000000E+01
  1.00800000E+00  1.00800000E+00  1.60000000E+01  1.00800000E+00  1.00800000E+00
  1.60000000E+01  1.00800000E+00  1.00800000E+00  1.60000000E+01  1.00800000E+00
  1.00800000E+00  1.60000000E+01  1.00800000E+00  1.00800000E+00  1.60000000E+01
  1.00800000E+00  1.00800000E+00  1.60000000E+01  1.00800000E+00  1.00800000E+00
  1.60000000E+01  1.00800000E+00  1.00800000E+00  1.60000000E+01  1.00800000E+00
  1.00800000E+00  1.60000000E+01  1.00800000E+00  1.00800000E+00  1.60000000E+01
  1.00800000E+00  1.00800000E+00  1.60000000E+01  1.00800000E+00  1.00800000E+00
  1.60000000E+01  1.00800000E+00  1.00800000E+00  1.60000000E+01  1.00800000E+00
  1.00800000E+00  1.60000000E+01  1.00800000E+00  1.00800000E+00  1.60000000E+01
  1.00800000E+00  1.00800000E+00  1.60000000E+01  1.00800000E+00  1.00800000E+00
  1.60000000E+01  1.00800000E+00  1.00800000E+00  1.60000000E+01  1.00800000E+00
  1.00800000E+00  1.60000000E+01  1.00800000E+00  1.00800000E+00  1.60000000E+01
  1.00800000E+00  1.00800000E+00  1.60000000E+01  1.00800000E+00  1.00800000E+00
  1.60000000E+01  1.00800000E+00  1.00800000E+00  1.60000000E+01  1.00800000E+00
  1.00800000E+00  1.60000000E+01  1.00800000E+00  1.00800000E+00  1.60000000E+01
  1.00800000E+00  1.00800000E+00  1.60000000E+01  1.00800000E+00  1.00800000E+00
  1.60000000E+01  1.00800000E+00  1.00800000E+00  1.60000000E+01  1.00800000E+00
  1.00800000E+00  1.60000000E+01  1.00800000E+00  1.00800000E+00  1.60000000E+01
  1.00800000E+00  1.00800000E+00  1.60000000E+01  1.00800000E+00  1.00800000E+00
  1.60000000E+01  1.00800000E+00  1.00800000E+00  1.60000000E+01  1.00800000E+00
  1.00800000E+00  1.60000000E+01  1.00800000E+00  1.00800000E+00  1.60000000E+01
  1.00800000E+00  1.00800000E+00  1.60000000E+01  1.00800000E+00  1.00800000E+00
  1.60000000E+01  1.00800000E+00  1.00800000E+00  1.60000000E+01  1.00800000E+00
  1.00800000E+00  1.60000000E+01  1.00800000E+00  1.00800000E+00  1.60000000E+01
  1.00800000E+00  1.00800000E+00  1.60000000E+01  1.00800000E+00  1.00800000E+00
  1.60000000E+01  1.00800000E+00  1.00800000E+00  1.60000000E+01  1.00800000E+00
  1.00800000E+00  1.60000000E+01  1.00800000E+00  1.00800000E+00  1.60000000E+01
  1.00800000E+00  1.00800000E+00  1.60000000E+01  1.00800000E+00  1.00800000E+00
  1.60000000E+01  1.00800000E+00  1.00800000E+00  1.60000000E+01  1.00800000E+00
  1.00800000E+00  1.60000000E+01  1.00800000E+00  1.00800000E+00  1.60000000E+01
  1.00800000E+00  1.00800000E+00  1.60000000E+01  1.00800000E+00  1.00800000E+00
  1.60000000E+01  1.00800000E+00  1.00800000E+00  1.60000000E+01  1.00800000E+00
  1.00800000E+00  1.60000000E+01  1.00800000E+00  1.00800000E+00  1.60000000E+01
  1.00800000E+00  1.00800000E+00  1.60000000E+01  1.00800000E+00  1.00800000E+00
  1.60000000E+01  1.00800000E+00  1.00800000E+00  1.60000000E+01  1.00800000E+00
  1.00800000E+00  1.60000000E+01  1.00800000E+00  1.00800000E+00  1.60000000E+01
  1.00800000E+00  1.00800000E+00  1.60000000E+01  1.00800000E+00  1.00800000E+00
  1.60000000E+01  1.00800000E+00  1.00800000E+00  1.60000000E+01  1.00800000E+00
  1.00800000E+00  1.60000000E+01  1.00800000E+00  1.00800000E+00  1.60000000E+01
  1.00800000E+00  1.00800000E+00  1.60000000E+01  1.00800000E+00  1.00800000E+00
  1.60000000E+01  1.00800000E+00  1.00800000E+00  1.60000000E+01  1.00800000E+00
  1.00800000E+00  1.60000000E+01  1.00800000E+00  1.00800000E+00  1.60000000E+01
  1.00800000E+00  1.00800000E+00  1.60000000E+01  1.00800000E+00  1.00800000E+00
  1.60000000E+01  1.00800000E+00  1.00800000E+00  1.60000000E+01  1.00800000E+00
  1.00800000E+00  1.60000000E+01  1.00800000E+00  1.00800000E+00  1.60000000E+01
  1.00800000E+00  1.00800000E+00  1.60000000E+01  1.00800000E+00  1.00800000E+00
  1.60000000E+01  1.00800000E+00  1.00800000E+00  1.60000000E+01  1.00800000E+00
  1.00800000E+00  1.60000000E+01  1.00800000E+00  1.00800000E+00  1.60000000E+01
  1.00800000E+00  1.00800000E+00  1.60000000E+01  1.00800000E+00  1.00800000E+00
  1.60000000E+01  1.00800000E+00  1.00800000E+00  1.60000000E+01  1.00800000E+00
  1.00800000E+00  1.60000000E+01  1.00800000E+00  1.00800000E+00  1.60000000E+01
  1.00800000E+00  1.00800000E+00  1.60000000E+01  1.00800000E+00  1.00800000E+00
  1.60000000E+01  1.00800000E+00  1.00800000E+00  1.60000000E+01  1.00800000E+00
  1.00800000E+00  1.60000000E+01  1.00800000E+00  1.00800000E+00  1.60000000E+01
  1.00800000E+00  1.00800000E+00  1.60000000E+01  1.00800000E+00  1.00800000E+00
  1.60000000E+01  1.00800000E+00  1.00800000E+00  1.60000000E+01  1.00800000E+00
  1.00800000E+00  1.60000000E+01  1.00800000E+00  1.00800000E+00  1.60000000E+01
  1.00800000E+00  1.00800000E+00  1.60000000E+01  1.00800000E+00  1.00800000E+00
  1.60000000E+01  1.00800000E+00  1.00800000E+00  1.60000000E+01  1.00800000E+00
  1.00800000E+00  1.60000000E+01  1.00800000E+00  1.00800000E+00  1.60000000E+01
  1.00800000E+00  1.00800000E+00  1.60000000E+01  1.00800000E+00  1.00800000E+00
  1.60000000E+01  1.00800000E+00  1.00800000E+00  1.60000000E+01  1.00800000E+00
  1.00800000E+00  1.60000000E+01  1.00800000E+00  1.00800000E+00  1.60000000E+01
  1.00800000E+00  1.00800000E+00  1.60000000E+01  1.00800000E+00  1.00800000E+00
  1.60000000E+01  1.00800000E+00  1.00800000E+00  1.60000000E+01  1.00800000E+00
  1.00800000E+00  1.60000000E+01  1.00800000E+00  1.00800000E+00  1.60000000E+01
  1.00800000E+00  1.00800000E+00  1.60000000E+01  1.00800000E+00  1.00800000E+00
  1.60000000E+01  1.00800000E+00  1.00800000E+00  1.60000000E+01  1.00800000E+00
  1.00800000E+00  1.60000000E+01  1.00800000E+00  1.00800000E+00  1.60000000E+01
  1.00800000E+00  1.00800000E+00  1.60000000E+01  1.00800000E+00  1.00800000E+00
  1.60000000E+01  1.00800000E+00  1.00800000E+00  1.60000000E+01  1.00800000E+00
  1.00800000E+00  1.60000000E+01  1.00800000E+00  1.00800000E+00  1.60000000E+01
  1.00800000E+00  1.00800000E+00  1.60000000E+01  1.00800000E+00  1.00800000E+00
  1.60000000E+01  1.00800000E+00  1.00800000E+00  1.60000000E+01  1.00800000E+00
  1.00800000E+00  1.60000000E+01  1.00800000E+00  1.00800000E+00  1.60000000E+01
  1.00800000E+00  1.00800000E+00  1.60000000E+01  1.00800000E+00  1.00800000E+00
  1.60000000E+01  1.00800000E+00  1.00800000E+00  1.60000000E+01  1.00800000E+00
  1.00800000E+00  1.60000000E+01  1.00800000E+00  1.00800000E+00  1.60000000E+01
  1.00800000E+00  1.00800000E+00  1.60000000E+01  1.00800000E+00  1.00800000E+00
  1.60000000E+01  1.00800000E+00  1.00800000E+00  1.60000000E+01  1.00800000E+00
  1.00800000E+00  1.60000000E+01  1.00800000E+00  1.00800000E+00  1.60000000E+01
  1.00800000E+00  1.00800000E+00  1.60000000E+01  1.00800000E+00  1.00800000E+00
  1.60000000E+01  1.00800000E+00  1.00800000E+00  1.60000000E+01  1.00800000E+00
  1.00800000E+00  1.60000000E+01  1.00800000E+00  1.00800000E+00  1.60000000E+01
  1.00800000E+00  1.00800000E+00  1.60000000E+01  1.00800000E+00  1.00800000E+00
  1.60000000E+01  1.00800000E+00  1.00800000E+00  1.60000000E+01  1.00800000E+00
  1.00800000E+00  1.60000000E+01  1.00800000E+00  1.00800000E+00  1.60000000E+01
  1.00800000E+00  1.00800000E+00  1.60000000E+01  1.00800000E+00  1.00800000E+00
  1.60000000E+01  1.00800000E+00  1.00800000E+00  1.60000000E+01  1.00800000E+00
  1.00800000E+00  1.60000000E+01  1.00800000E+00  1.00800000E+00  1.60000000E+01
  1.00800000E+00  1.00800000E+00  1.60000000E+01  1.00800000E+00  1.00800000E+00
  1.60000000E+01  1.00800000E+00  1.00800000E+00  1.60000000E+01  1.00800000E+00
  1.00800000E+00  1.60000000E+01  1.00800000E+00  1.00800000E+00  1.60000000E+01
  1.00800000E+00  1.00800000E+00  1.60000000E+01  1.00800000E+00  1.00800000E+00
  1.60000000E+01  1.00800000E+00  1.00800000E+00  1.60000000E+01  1.00800000E+00
  1.00800000E+00  1.60000000E+01  1.00800000E+00  1.00800000E+00  1.60000000E+01
  1.00800000E+00  1.00800000E+00  1.60000000E+01  1.00800000E+00  1.00800000E+00
  1.60000000E+01  1.00800000E+00  1.00800000E+00  1.60000000E+01  1.00800000E+00
  1.00800000E+00  1.60000000E+01  1.00800000E+00  1.00800000E+00  1.60000000E+01
  1.00800000E+00  1.00800000E+00  1.60000000E+01  1.00800000E+00  1.00800000E+00
  1.60000000E+01  1.00800000E+00  1.00800000E+00  1.60000000E+01  1.00800000E+00
  1.00800000E+00  1.60000000E+01  1.00800000E+00  1.00800000E+00  1.60000000E+01
  1.00800000E+00  1.00800000E+00  1.60000000E+01  1.00800000E+00  1.00800000E+00
  1.60000000E+01  1.00800000E+00  1.00800000E+00  1.60000000E+01  1.00800000E+00
  1.00800000E+00  1.60000000E+01  1.00800000E+00  1.00800000E+00  1.60000000E+01
  1.00800000E+00  1.00800000E+00  1.60000000E+01  1.00800000E+00  1.00800000E+00
  1.60000000E+01  1.00800000E+00  1.00800000E+00  1.60000000E+01  1.00800000E+00
  1.00800000E+00  1.60000000E+01  1.00800000E+00  1.00800000E+00  1.60000000E+01
  1.00800000E+00  1.00800000E+00  1.60000000E+01  1.00800000E+00  1.00800000E+00
  1.60000000E+01  1.00800000E+00  1.00800000E+00  1.60000000E+01  1.00800000E+00
  1.00800000E+00  1.60000000E+01  1.00800000E+00  1.00800000E+00  1.60000000E+01
  1.00800000E+00  1.00800000E+00  1.60000000E+01  1.00800000E+00  1.00800000E+00
  1.60000000E+01  1.00800000E+00  1.00800000E+00  1.60000000E+01  1.00800000E+00
  1.00800000E+00  1.60000000E+01  1.00800000E+00  1.00800000E+00  1.60000000E+01
  1.00800000E+00  1.00800000E+00  1.60000000E+01  1.00800000E+00  1.00800000E+00
  1.60000000E+01  1.00800000E+00  1.00800000E+00  1.60000000E+01  1.00800000E+00
  1.00800000E+00  1.60000000E+01  1.00800000E+00  1.00800000E+00  1.60000000E+01
  1.00800000E+00  1.00800000E+00  1.60000000E+01  1.00800000E+00  1.00800000E+00
  1.60000000E+01  1.00800000E+00  1.00800000E+00  1.60000000E+01  1.00800000E+00
  1.00800000E+00  1.60000000E+01  1.00800000E+00  1.00800000E+00  1.60000000E+01
  1.00800000E+00  1.00800000E+00  1.60000000E+01  1.00800000E+00  1.00800000E+00
  1.60000000E+01  1.00800000E+00  1.00800000E+00  1.60000000E+01  1.00800000E+00
  1.00800000E+00  1.60000000E+01  1.00800000E+00  1.00800000E+00  1.60000000E+01
  1.00800000E+00  1.00800000E+00  1.60000000E+01  1.00800000E+00  1.00800000E+00
  1.60000000E+01  1.00800000E+00  1.00800000E+00  1.60000000E+01  1.00800000E+00
  1.00800000E+00  1.60000000E+01  1.00800000E+00  1.00800000E+00  1.60000000E+01
  1.00800000E+00  1.00800000E+00  1.60000000E+01  1.00800000E+00  1.00800000E+00
  1.60000000E+01  1.00800000E+00  1.00800000E+00  1.60000000E+01  1.00800000E+00
  1.00800000E+00  1.60000000E+01  1.00800000E+00  1.00800000E+00  1.60000000E+01
  1.00800000E+00  1.00800000E+00  1.60000000E+01  1.00800000E+00  1.00800000E+00
  1.60000000E+01  1.00800000E+00  1.00800000E+00  1.60000000E+01  1.00800000E+00
  1.00800000E+00  1.60000000E+01  1.00800000E+00  1.00800000E+00  1.60000000E+01
  1.00800000E+00  1.00800000E+00  1.60000000E+01  1.00800000E+00  1.00800000E+00
  1.60000000E+01  1.00800000E+00  1.00800000E+00  1.60000000E+01  1.00800000E+00
  1.00800000E+00  1.60000000E+01  1.00800000E+00  1.00800000E+00  1.60000000E+01
  1.00800000E+00  1.00800000E+00  1.60000000E+01  1.00800000E+00  1.00800000E+00
  1.60000000E+01  1.00800000E+00  1.00800000E+00  1.60000000E+01  1.00800000E+00
  1.00800000E+00  1.60000000E+01  1.00800000E+00  1.00800000E+00  1.60000000E+01
  1.00800000E+00  1.00800000E+00  1.60000000E+01  1.00800000E+00  1.00800000E+00
  1.60000000E+01  1.00800000E+00  1.00800000E+00  1.60000000E+01  1.00800000E+00
  1.00800000E+00  1.60000000E+01  1.00800000E+00  1.00800000E+00  1.60000000E+01
  1.00800000E+00  1.00800000E+00  1.60000000E+01  1.00800000E+00  1.00800000E+00
  1.60000000E+01  1.00800000E+00  1.00800000E+00  1.60000000E+01  1.00800000E+00
  1.00800000E+00  1.60000000E+01  1.00800000E+00  1.00800000E+00  1.60000000E+01
  1.00800000E+00  1.00800000E+00  1.60000000E+01  1.00800000E+00  1.00800000E+00
  1.60000000E+01  1.00800000E+00  1.00800000E+00  1.60000000E+01  1.00800000E+00
  1.00800000E+00  1.60000000E+01  1.00800000E+00  1.00800000E+00  1.60000000E+01
  1.00800000E+00  1.00800000E+00  1.60000000E+01  1.00800000E+00  1.00800000E+00
  1.60000000E+01  1.00800000E+00  1.00800000E+00  1.60000000E+01  1.00800000E+00
  1.00800000E+00  1.60000000E+01  1.00800000E+00  1.00800000E+00  1.60000000E+01
  1.00800000E+00  1.00800000E+00  1.60000000E+01  1.00800000E+00  1.00800000E+00
  1.60000000E+01  1.00800000E+00  1.00800000E+00  1.60000000E+01  1.00800000E+00
  1.00800000E+00  1.60000000E+01  1.00800000E+00  1.00800000E+00  1.60000000E+01
  1.00800000E+00  1.00800000E+00  1.60000000E+01  1.00800000E+00  1.00800000E+00
  1.60000000E+01  1.00800000E+00  1.00800000E+00  1.60000000E+01  1.00800000E+00
  1.00800000E+00  1.60000000E+01  1.00800000E+00  1.00800000E+00  1.60000000E+01
  1.00800000E+00  1.00800000E+00  1.60000000E+01  1.00800000E+00  1.00800000E+00
  1.60000000E+01  1.00800000E+00  1.00800000E+00  1.60000000E+01  1.00800000E+00
  1.00800000E+00  1.60000000E+01  1.00800000E+00  1.00800000E+00  1.60000000E+01
  1.00800000E+00  1.00800000E+00  1.60000000E+01  1.00800000E+00  1.00800000E+00
  1.60000000E+01  1.00800000E+00  1.00800000E+00  1.60000000E+01  1.00800000E+00
  1.00800000E+00  1.60000000E+01  1.00800000E+00  1.00800000E+00  1.60000000E+01
  1.00800000E+00  1.00800000E+00  1.60000000E+01  1.00800000E+00  1.00800000E+00
  1.60000000E+01  1.00800000E+00  1.00800000E+00  1.60000000E+01  1.00800000E+00
  1.00800000E+00  1.60000000E+01  1.00800000E+00  1.00800000E+00  1.60000000E+01
  1.00800000E+00  1.00800000E+00  1.60000000E+01  1.00800000E+00  1.00800000E+00
  1.60000000E+01  1.00800000E+00  1.00800000E+00  1.60000000E+01  1.00800000E+00
  1.00800000E+00  1.60000000E+01  1.00800000E+00  1.00800000E+00  1.60000000E+01
  1.00800000E+00  1.00800000E+00  1.60000000E+01  1.00800000E+00  1.00800000E+00
  1.60000000E+01  1.00800000E+00  1.00800000E+00  1.60000000E+01  1.00800000E+00
  1.00800000E+00  1.60000000E+01  1.00800000E+00  1.00800000E+00  1.60000000E+01
  1.00800000E+00  1.00800000E+00  1.60000000E+01  1.00800000E+00  1.00800000E+00
  1.60000000E+01  1.00800000E+00  1.00800000E+00  1.60000000E+01  1.00800000E+00
  1.00800000E+00  1.60000000E+01  1.00800000E+00  1.00800000E+00  1.60000000E+01
  1.00800000E+00  1.00800000E+00  1.60000000E+01  1.00800000E+00  1.00800000E+00
  1.60000000E+01  1.00800000E+00  1.00800000E+00  1.60000000E+01  1.00800000E+00
  1.00800000E+00  1.60000000E+01  1.00800000E+00  1.00800000E+00  1.60000000E+01
  1.00800000E+00  1.00800000E+00  1.60000000E+01  1.00800000E+00  1.00800000E+00
  1.60000000E+01  1.00800000E+00  1.00800000E+00  1.60000000E+01  1.00800000E+00
  1.00800000E+00  1.60000000E+01  1.00800000E+00  1.00800000E+00  1.60000000E+01
  1.00800000E+00  1.00800000E+00  1.60000000E+01  1.00800000E+00  1.00800000E+00
  1.60000000E+01  1.00800000E+00  1.00800000E+00  1.60000000E+01  1.00800000E+00
  1.00800000E+00  1.60000000E+01  1.00800000E+00  1.00800000E+00  1.60000000E+01
  1.00800000E+00  1.00800000E+00  1.60000000E+01  1.00800000E+00  1.00800000E+00
  1.60000000E+01  1.00800000E+00  1.00800000E+00  1.60000000E+01  1.00800000E+00
  1.00800000E+00  1.60000000E+01  1.00800000E+00  1.00800000E+00  1.60000000E+01
  1.00800000E+00  1.00800000E+00  1.60000000E+01  1.00800000E+00  1.00800000E+00
  1.60000000E+01  1.00800000E+00  1.00800000E+00  1.60000000E+01  1.00800000E+00
  1.00800000E+00  1.60000000E+01  1.00800000E+00  1.00800000E+00  1.60000000E+01
  1.00800000E+00  1.00800000E+00  1.60000000E+01  1.00800000E+00  1.00800000E+00
  1.60000000E+01  1.00800000E+00  1.00800000E+00  1.60000000E+01  1.00800000E+00
  1.00800000E+00  1.60000000E+01  1.00800000E+00  1.00800000E+00  1.60000000E+01
  1.00800000E+00  1.00800000E+00  1.60000000E+01  1.00800000E+00  1.00800000E+00
  1.60000000E+01  1.00800000E+00  1.00800000E+00  1.60000000E+01  1.00800000E+00
  1.00800000E+00  1.60000000E+01  1.00800000E+00  1.00800000E+00  1.60000000E+01
  1.00800000E+00  1.00800000E+00  1.60000000E+01  1.00800000E+00  1.00800000E+00
  1.60000000E+01  1.00800000E+00  1.00800000E+00  1.60000000E+01  1.00800000E+00
  1.00800000E+00  1.60000000E+01  1.00800000E+00  1.00800000E+00  1.60000000E+01
  1.00800000E+00  1.00800000E+00  1.60000000E+01  1.00800000E+00  1.00800000E+00
  1.60000000E+01  1.00800000E+00  1.00800000E+00  1.60000000E+01  1.00800000E+00
  1.00800000E+00  1.60000000E+01  1.00800000E+00  1.00800000E+00  1.60000000E+01
  1.00800000E+00  1.00800000E+00  1.60000000E+01  1.00800000E+00  1.00800000E+00
  1.60000000E+01  1.00800000E+00  1.00800000E+00  1.60000000E+01  1.00800000E+00
  1.00800000E+00  1.60000000E+01  1.00800000E+00  1.00800000E+00  1.60000000E+01
  1.00800000E+00  1.00800000E+00  1.60000000E+01  1.00800000E+00  1.00800000E+00
  1.60000000E+01  1.00800000E+00  1.00800000E+00  1.60000000E+01  1.00800000E+00
  1.00800000E+00  1.60000000E+01  1.00800000E+00  1.00800000E+00  1.60000000E+01
  1.00800000E+00  1.00800000E+00  1.60000000E+01  1.00800000E+00  1.00800000E+00
  1.60000000E+01  1.00800000E+00  1.00800000E+00  1.60000000E+01  1.00800000E+00
  1.00800000E+00  1.60000000E+01  1.00800000E+00  1.00800000E+00  1.60000000E+01
  1.00800000E+00  1.00800000E+00  1.60000000E+01  1.00800000E+00  1.00800000E+00
  1.60000000E+01  1.00800000E+00  1.00800000E+00  1.60000000E+01  1.00800000E+00
  1.00800000E+00  1.60000000E+01  1.00800000E+00  1.00800000E+00  1.60000000E+01
  1.00800000E+00  1.00800000E+00  1.60000000E+01  1.00800000E+00  1.00800000E+00
  1.60000000E+01  1.00800000E+00  1.00800000E+00  1.60000000E+01  1.00800000E+00
  1.00800000E+00  1.60000000E+01  1.00800000E+00  1.00800000E+00  1.60000000E+01
  1.00800000E+00  1.00800000E+00  1.60000000E+01  1.00800000E+00  1.00800000E+00
  1.60000000E+01  1.00800000E+00  1.00800000E+00  1.60000000E+01  1.00800000E+00
  1.00800000E+00  1.60000000E+01  1.00800000E+00  1.00800000E+00  1.60000000E+01
  1.00800000E+00  1.00800000E+00  1.60000000E+01  1.00800000E+00  1.00800000E+00
  1.60000000E+01  1.00800000E+00  1.00800000E+00  1.60000000E+01  1.00800000E+00
  1.00800000E+00  1.60000000E+01  1.00800000E+00  1.00800000E+00  1.60000000E+01
  1.00800000E+00  1.00800000E+00  1.60000000E+01  1.00800000E+00  1.00800000E+00
  1.60000000E+01  1.00800000E+00  1.00800000E+00  1.60000000E+01  1.00800000E+00
  1.00800000E+00  1.60000000E+01  1.00800000E+00  1.00800000E+00  1.60000000E+01
  1.00800000E+00  1.00800000E+00  1.60000000E+01  1.00800000E+00  1.00800000E+00
  1.60000000E+01  1.00800000E+00  1.00800000E+00  1.60000000E+01  1.00800000E+00
  1.00800000E+00  1.60000000E+01  1.00800000E+00  1.00800000E+00  1.60000000E+01
  1.00800000E+00  1.00800000E+00  1.60000000E+01  1.00800000E+00  1.00800000E+00
  1.60000000E+01  1.00800000E+00  1.00800000E+00  1.60000000E+01  1.00800000E+00
  1.00800000E+00  1.60000000E+01  1.00800000E+00  1.00800000E+00  1.60000000E+01
  1.00800000E+00  1.00800000E+00  1.60000000E+01  1.00800000E+00  1.00800000E+00
  1.60000000E+01  1.00800000E+00  1.00800000E+00  1.60000000E+01  1.00800000E+00
  1.00800000E+00  1.60000000E+01  1.00800000E+00  1.00800000E+00  1.60000000E+01
  1.00800000E+00  1.00800000E+00  1.60000000E+01  1.00800000E+00  1.00800000E+00
  1.60000000E+01  1.00800000E+00  1.00800000E+00  1.60000000E+01  1.00800000E+00
  1.00800000E+00  1.60000000E+01  1.00800000E+00  1.00800000E+00  1.60000000E+01
  1.00800000E+00  1.00800000E+00  1.60000000E+01  1.00800000E+00  1.00800000E+00
  1.60000000E+01  1.00800000E+00  1.00800000E+00  1.60000000E+01  1.00800000E+00
  1.00800000E+00  1.60000000E+01  1.00800000E+00  1.00800000E+00  1.60000000E+01
  1.00800000E+00  1.00800000E+00  1.60000000E+01  1.00800000E+00  1.00800000E+00
  1.60000000E+01  1.00800000E+00  1.00800000E+00  1.60000000E+01  1.00800000E+00
  1.00800000E+00  1.60000000E+01  1.00800000E+00  1.00800000E+00  1.60000000E+01
  1.00800000E+00  1.00800000E+00  1.60000000E+01  1.00800000E+00  1.00800000E+00
  1.60000000E+01  1.00800000E+00  1.00800000E+00  1.60000000E+01  1.00800000E+00
  1.00800000E+00  1.60000000E+01  1.00800000E+00  1.00800000E+00  1.60000000E+01
  1.00800000E+00  1.00800000E+00  1.60000000E+01  1.00800000E+00  1.00800000E+00
  1.60000000E+01  1.00800000E+00  1.00800000E+00  1.60000000E+01  1.00800000E+00
  1.00800000E+00  1.60000000E+01  1.00800000E+00  1.00800000E+00  1.60000000E+01
  1.00800000E+00  1.00800000E+00  1.60000000E+01  1.00800000E+00  1.00800000E+00
  1.60000000E+01  1.00800000E+00  1.00800000E+00  1.60000000E+01  1.00800000E+00
  1.00800000E+00  1.60000000E+01  1.00800000E+00  1.00800000E+00  1.60000000E+01
  1.00800000E+00  1.00800000E+00  1.60000000E+01  1.00800000E+00  1.00800000E+00
  1.60000000E+01  1.00800000E+00  1.00800000E+00  1.60000000E+01  1.00800000E+00
  1.00800000E+00  1.60000000E+01  1.00800000E+00  1.00800000E+00  1.60000000E+01
  1.00800000E+00  1.00800000E+00  1.60000000E+01  1.00800000E+00  1.00800000E+00
  1.60000000E+01  1.00800000E+00  1.00800000E+00  1.60000000E+01  1.00800000E+00
  1.00800000E+00  1.60000000E+01  1.00800000E+00  1.00800000E+00  1.60000000E+01
  1.00800000E+00  1.00800000E+00  1.60000000E+01  1.00800000E+00  1.00800000E+00
  1.60000000E+01  1.00800000E+00  1.00800000E+00  1.60000000E+01  1.00800000E+00
  1.00800000E+00  1.60000000E+01  1.00800000E+00  1.00800000E+00  1.60000000E+01
  1.00800000E+00  1.00800000E+00  1.60000000E+01  1.00800000E+00  1.00800000E+00
  1.60000000E+01  1.00800000E+00  1.00800000E+00  1.60000000E+01  1.00800000E+00
  1.00800000E+00  1.60000000E+01  1.00800000E+00  1.00800000E+00  1.60000000E+01
  1.00800000E+00  1.00800000E+00  1.60000000E+01  1.00800000E+00  1.00800000E+00
  1.60000000E+01  1.00800000E+00  1.00800000E+00  1.60000000E+01  1.00800000E+00
  1.00800000E+00  1.60000000E+01  1.00800000E+00  1.00800000E+00  1.60000000E+01
  1.00800000E+00  1.00800000E+00  1.60000000E+01  1.00800000E+00  1.00800000E+00
  1.60000000E+01  1.00800000E+00  1.00800000E+00  1.60000000E+01  1.00800000E+00
  1.00800000E+00  1.60000000E+01  1.00800000E+00  1.00800000E+00  1.60000000E+01
  1.00800000E+00  1.00800000E+00  1.60000000E+01  1.00800000E+00  1.00800000E+00
  1.60000000E+01  1.00800000E+00  1.00800000E+00  1.60000000E+01  1.00800000E+00
  1.00800000E+00  1.60000000E+01  1.00800000E+00  1.00800000E+00  1.60000000E+01
  1.00800000E+00  1.00800000E+00  1.60000000E+01  1.00800000E+00  1.00800000E+00
  1.60000000E+01  1.00800000E+00  1.00800000E+00  1.60000000E+01  1.00800000E+00
  1.00800000E+00  1.60000000E+01  1.00800000E+00  1.00800000E+00  1.60000000E+01
  1.00800000E+00  1.00800000E+00  1.60000000E+01  1.00800000E+00  1.00800000E+00
  1.60000000E+01  1.00800000E+00  1.00800000E+00  1.60000000E+01  1.00800000E+00
  1.00800000E+00  1.60000000E+01  1.00800000E+00  1.00800000E+00  1.60000000E+01
  1.00800000E+00  1.00800000E+00  1.60000000E+01  1.00800000E+00  1.00800000E+00
  1.60000000E+01  1.00800000E+00  1.00800000E+00  1.60000000E+01  1.00800000E+00
  1.00800000E+00  1.60000000E+01  1.00800000E+00  1.00800000E+00  1.60000000E+01
  1.00800000E+00  1.00800000E+00  1.60000000E+01  1.00800000E+00  1.00800000E+00
  1.60000000E+01  1.00800000E+00  1.00800000E+00  1.60000000E+01  1.00800000E+00
  1.00800000E+00  1.60000000E+01  1.00800000E+00  1.00800000E+00  1.60000000E+01
  1.00800000E+00  1.00800000E+00  1.60000000E+01  1.00800000E+00  1.00800000E+00
  1.60000000E+01  1.00800000E+00  1.00800000E+00  1.60000000E+01  1.00800000E+00
  1.00800000E+00  1.60000000E+01  1.00800000E+00  1.00800000E+00  1.60000000E+01
  1.00800000E+00  1.00800000E+00  1.60000000E+01  1.00800000E+00  1.00800000E+00
  1.60000000E+01  1.00800000E+00  1.00800000E+00  1.60000000E+01  1.00800000E+00
  1.00800000E+00  1.60000000E+01  1.00800000E+00  1.00800000E+00  1.60000000E+01
  1.00800000E+00  1.00800000E+00  1.60000000E+01  1.00800000E+00  1.00800000E+00
  1.60000000E+01  1.00800000E+00  1.00800000E+00  1.60000000E+01  1.00800000E+00
  1.00800000E+00  1.60000000E+01  1.00800000E+00  1.00800000E+00  1.60000000E+01
  1.00800000E+00  1.00800000E+00  1.60000000E+01  1.00800000E+00  1.00800000E+00
  1.60000000E+01  1.00800000E+00  1.00800000E+00  1.60000000E+01  1.00800000E+00
  1.00800000E+00  1.60000000E+01  1.00800000E+00  1.00800000E+00  1.60000000E+01
  1.00800000E+00  1.00800000E+00  1.60000000E+01  1.00800000E+00  1.00800000E+00
  1.60000000E+01  1.00800000E+00  1.00800000E+00  1.60000000E+01  1.00800000E+00
  1.00800000E+00  1.60000000E+01  1.00800000E+00  1.00800000E+00  1.60000000E+01
  1.00800000E+00  1.00800000E+00  1.60000000E+01  1.00800000E+00  1.00800000E+00
  1.60000000E+01  1.00800000E+00  1.00800000E+00  1.60000000E+01  1.00800000E+00
  1.00800000E+00  1.60000000E+01  1.00800000E+00  1.00800000E+00  1.60000000E+01
  1.00800000E+00  1.00800000E+00  1.60000000E+01  1.00800000E+00  1.00800000E+00
  1.60000000E+01  1.00800000E+00  1.00800000E+00  1.60000000E+01  1.00800000E+00
  1.00800000E+00  1.60000000E+01  1.00800000E+00  1.00800000E+00  1.60000000E+01
  1.00800000E+00  1.00800000E+00  1.60000000E+01  1.00800000E+00  1.00800000E+00
  1.60000000E+01  1.00800000E+00  1.00800000E+00  1.60000000E+01  1.00800000E+00
  1.00800000E+00  1.60000000E+01  1.00800000E+00  1.00800000E+00  1.60000000E+01
  1.00800000E+00  1.00800000E+00  1.60000000E+01  1.00800000E+00  1.00800000E+00
  1.60000000E+01  1.00800000E+00  1.00800000E+00  1.60000000E+01  1.00800000E+00
  1.00800000E+00  1.60000000E+01  1.00800000E+00  1.00800000E+00  1.60000000E+01
  1.00800000E+00  1.00800000E+00  1.60000000E+01  1.00800000E+00  1.00800000E+00
  1.60000000E+01  1.00800000E+00  1.00800000E+00  1.60000000E+01  1.00800000E+00
  1.00800000E+00  1.60000000E+01  1.00800000E+00  1.00800000E+00  1.60000000E+01
  1.00800000E+00  1.00800000E+00  1.60000000E+01  1.00800000E+00  1.00800000E+00
  1.60000000E+01  1.00800000E+00  1.00800000E+00  1.60000000E+01  1.00800000E+00
  1.00800000E+00  1.60000000E+01  1.00800000E+00  1.00800000E+00  1.60000000E+01
  1.00800000E+00  1.00800000E+00  1.60000000E+01  1.00800000E+00  1.00800000E+00
  1.60000000E+01  1.00800000E+00  1.00800000E+00  1.60000000E+01  1.00800000E+00
  1.00800000E+00  1.60000000E+01  1.00800000E+00  1.00800000E+00  1.60000000E+01
  1.00800000E+00  1.00800000E+00  1.60000000E+01  1.00800000E+00  1.00800000E+00
  1.60000000E+01  1.00800000E+00  1.00800000E+00  1.60000000E+01  1.00800000E+00
  1.00800000E+00  1.60000000E+01  1.00800000E+00  1.00800000E+00  1.60000000E+01
  1.00800000E+00  1.00800000E+00  1.60000000E+01  1.00800000E+00  1.00800000E+00
  1.60000000E+01  1.00800000E+00  1.00800000E+00  1.60000000E+01  1.00800000E+00
  1.00800000E+00  1.60000000E+01  1.00800000E+00  1.00800000E+00  1.60000000E+01
  1.00800000E+00  1.00800000E+00  1.60000000E+01  1.00800000E+00  1.00800000E+00
  1.60000000E+01  1.00800000E+00  1.00800000E+00  1.60000000E+01  1.00800000E+00
  1.00800000E+00  1.60000000E+01  1.00800000E+00  1.00800000E+00  1.60000000E+01
  1.00800000E+00  1.00800000E+00  1.60000000E+01  1.00800000E+00  1.00800000E+00
  1.60000000E+01  1.00800000E+00  1.00800000E+00  1.60000000E+01  1.00800000E+00
  1.00800000E+00  1.60000000E+01  1.00800000E+00  1.00800000E+00  1.60000000E+01
  1.00800000E+00  1.00800000E+00  1.60000000E+01  1.00800000E+00  1.00800000E+00
  1.60000000E+01  1.00800000E+00  1.00800000E+00  1.60000000E+01  1.00800000E+00
  1.00800000E+00  1.60000000E+01  1.00800000E+00  1.00800000E+00  1.60000000E+01
  1.00800000E+00  1.00800000E+00  1.60000000E+01  1.00800000E+00  1.00800000E+00
  1.60000000E+01  1.00800000E+00  1.00800000E+00  1.60000000E+01  1.00800000E+00
  1.00800000E+00  1.60000000E+01  1.00800000E+00  1.00800000E+00  1.60000000E+01
  1.00800000E+00  1.00800000E+00  1.60000000E+01  1.00800000E+00  1.00800000E+00
  1.60000000E+01  1.00800000E+00  1.00800000E+00  1.60000000E+01  1.00800000E+00
  1.00800000E+00  1.60000000E+01  1.00800000E+00  1.00800000E+00  1.60000000E+01
  1.00800000E+00  1.00800000E+00  1.60000000E+01  1.00800000E+00  1.00800000E+00
  1.60000000E+01  1.00800000E+00  1.00800000E+00  1.60000000E+01  1.00800000E+00
  1.00800000E+00  1.60000000E+01  1.00800000E+00  1.00800000E+00  1.60000000E+01
  1.00800000E+00  1.00800000E+00  1.60000000E+01  1.00800000E+00  1.00800000E+00
  1.60000000E+01  1.00800000E+00  1.00800000E+00  1.60000000E+01  1.00800000E+00
  1.00800000E+00  1.60000000E+01  1.00800000E+00  1.00800000E+00  1.60000000E+01
  1.00800000E+00  1.00800000E+00  1.60000000E+01  1.00800000E+00  1.00800000E+00
  1.60000000E+01  1.00800000E+00  1.00800000E+00  1.60000000E+01  1.00800000E+00
  1.00800000E+00  1.60000000E+01  1.00800000E+00  1.00800000E+00  1.60000000E+01
  1.00800000E+00  1.00800000E+00  1.60000000E+01  1.00800000E+00  1.00800000E+00
  1.60000000E+01  1.00800000E+00  1.00800000E+00  1.60000000E+01  1.00800000E+00
  1.00800000E+00  1.60000000E+01  1.00800000E+00  1.00800000E+00  1.60000000E+01
  1.00800000E+00  1.00800000E+00  1.60000000E+01  1.00800000E+00  1.00800000E+00
  1.60000000E+01  1.00800000E+00  1.00800000E+00  1.60000000E+01  1.00800000E+00
  1.00800000E+00  1.60000000E+01  1.00800000E+00  1.00800000E+00  1.60000000E+01
  1.00800000E+00  1.00800000E+00  1.60000000E+01  1.00800000E+00  1.00800000E+00
  1.60000000E+01  1.00800000E+00  1.00800000E+00  1.60000000E+01  1.00800000E+00
  1.00800000E+00  1.60000000E+01  1.00800000E+00  1.00800000E+00  1.60000000E+01
  1.00800000E+00  1.00800000E+00  1.60000000E+01  1.00800000E+00  1.00800000E+00
  1.60000000E+01  1.00800000E+00  1.00800000E+00  1.60000000E+01  1.00800000E+00
  1.00800000E+00  1.60000000E+01  1.00800000E+00  1.00800000E+00  1.60000000E+01
  1.00800000E+00  1.00800000E+00  1.60000000E+01  1.00800000E+00  1.00800000E+00
  1.60000000E+01  1.00800000E+00  1.00800000E+00  1.60000000E+01  1.00800000E+00
  1.00800000E+00  1.60000000E+01  1.00800000E+00  1.00800000E+00  1.60000000E+01
  1.00800000E+00  1.00800000E+00  1.60000000E+01  1.00800000E+00  1.00800000E+00
  1.60000000E+01  1.00800000E+00  1.00800000E+00  1.60000000E+01  1.00800000E+00
  1.00800000E+00  1.60000000E+01  1.00800000E+00  1.00800000E+00  1.60000000E+01
  1.00800000E+00  1.00800000E+00  1.60000000E+01  1.00800000E+00  1.00800000E+00
  1.60000000E+01  1.00800000E+00  1.00800000E+00  1.60000000E+01  1.00800000E+00
  1.00800000E+00  1.60000000E+01  1.00800000E+00  1.00800000E+00  1.60000000E+01
  1.00800000E+00  1.00800000E+00  1.60000000E+01  1.00800000E+00  1.00800000E+00
  1.60000000E+01  1.00800000E+00  1.00800000E+00  1.60000000E+01  1.00800000E+00
  1.00800000E+00  1.60000000E+01  1.00800000E+00  1.00800000E+00  1.60000000E+01
  1.00800000E+00  1.00800000E+00  1.60000000E+01  1.00800000E+00  1.00800000E+00
  1.60000000E+01  1.00800000E+00  1.00800000E+00  1.60000000E+01  1.00800000E+00
  1.00800000E+00  1.60000000E+01  1.00800000E+00  1.00800000E+00  1.60000000E+01
  1.00800000E+00  1.00800000E+00  1.60000000E+01  1.00800000E+00  1.00800000E+00
  1.60000000E+01  1.00800000E+00  1.00800000E+00  1.60000000E+01  1.00800000E+00
  1.00800000E+00  1.60000000E+01  1.00800000E+00  1.00800000E+00  1.60000000E+01
  1.00800000E+00  1.00800000E+00  1.60000000E+01  1.00800000E+00  1.00800000E+00
  1.60000000E+01  1.00800000E+00  1.00800000E+00  1.60000000E+01  1.00800000E+00
  1.00800000E+00  1.60000000E+01  1.00800000E+00  1.00800000E+00  1.60000000E+01
  1.00800000E+00  1.00800000E+00  1.60000000E+01  1.00800000E+00  1.00800000E+00
  1.60000000E+01  1.00800000E+00  1.00800000E+00  1.60000000E+01  1.00800000E+00
  1.00800000E+00  1.60000000E+01  1.00800000E+00  1.00800000E+00  1.60000000E+01
  1.00800000E+00  1.00800000E+00  1.60000000E+01  1.00800000E+00  1.00800000E+00
  1.60000000E+01  1.00800000E+00  1.00800000E+00  1.60000000E+01  1.00800000E+00
  1.00800000E+00  1.60000000E+01  1.00800000E+00  1.00800000E+00  1.60000000E+01
  1.00800000E+00  1.00800000E+00  1.60000000E+01  1.00800000E+00  1.00800000E+00
  1.60000000E+01  1.00800000E+00  1.00800000E+00  1.60000000E+01  1.00800000E+00
  1.00800000E+00  1.60000000E+01  1.00800000E+00  1.00800000E+00  1.60000000E+01
  1.00800000E+00  1.00800000E+00  1.60000000E+01  1.00800000E+00  1.00800000E+00
  1.60000000E+01  1.00800000E+00  1.00800000E+00  1.60000000E+01  1.00800000E+00
  1.00800000E+00  1.60000000E+01  1.00800000E+00  1.00800000E+00  1.60000000E+01
  1.00800000E+00  1.00800000E+00  1.60000000E+01  1.00800000E+00  1.00800000E+00
  1.60000000E+01  1.00800000E+00  1.00800000E+00  1.60000000E+01  1.00800000E+00
  1.00800000E+00  1.60000000E+01  1.00800000E+00  1.00800000E+00  1.60000000E+01
  1.00800000E+00  1.00800000E+00  1.60000000E+01  1.00800000E+00  1.00800000E+00
  1.60000000E+01  1.00800000E+00  1.00800000E+00  1.60000000E+01  1.00800000E+00
  1.00800000E+00  1.60000000E+01  1.00800000E+00  1.00800000E+00  1.60000000E+01
  1.00800000E+00  1.00800000E+00  1.60000000E+01  1.00800000E+00  1.00800000E+00
  1.60000000E+01  1.00800000E+00  1.00800000E+00  1.60000000E+01  1.00800000E+00
  1.00800000E+00  1.60000000E+01  1.00800000E+00  1.00800000E+00  1.60000000E+01
  1.00800000E+00  1.00800000E+00  1.60000000E+01  1.00800000E+00  1.00800000E+00
  1.60000000E+01  1.00800000E+00  1.00800000E+00  1.60000000E+01  1.00800000E+00
  1.00800000E+00  1.60000000E+01  1.00800000E+00  1.00800000E+00  1.60000000E+01
  1.00800000E+00  1.00800000E+00  1.60000000E+01  1.00800000E+00  1.00800000E+00
  1.60000000E+01  1.00800000E+00  1.00800000E+00  1.60000000E+01  1.00800000E+00
  1.00800000E+00  1.60000000E+01  1.00800000E+00  1.00800000E+00  1.60000000E+01
  1.00800000E+00  1.00800000E+00  1.60000000E+01  1.00800000E+00  1.00800000E+00
  1.60000000E+01  1.00800000E+00  1.00800000E+00  1.60000000E+01  1.00800000E+00
  1.00800000E+00  1.60000000E+01  1.00800000E+00  1.00800000E+00  1.60000000E+01
  1.00800000E+00  1.00800000E+00  1.60000000E+01  1.00800000E+00  1.00800000E+00
  1.60000000E+01  1.00800000E+00  1.00800000E+00  1.60000000E+01  1.00800000E+00
  1.00800000E+00  1.60000000E+01  1.00800000E+00  1.00800000E+00  1.60000000E+01
  1.00800000E+00  1.00800000E+00  1.60000000E+01  1.00800000E+00  1.00800000E+00
  1.60000000E+01  1.00800000E+00  1.00800000E+00  1.60000000E+01  1.00800000E+00
  1.00800000E+00  1.60000000E+01  1.00800000E+00  1.00800000E+00  1.60000000E+01
  1.00800000E+00  1.00800000E+00  1.60000000E+01  1.00800000E+00  1.00800000E+00
  1.60000000E+01  1.00800000E+00  1.00800000E+00  1.60000000E+01  1.00800000E+00
  1.00800000E+00  1.60000000E+01  1.00800000E+00  1.00800000E+00  1.60000000E+01
  1.00800000E+00  1.00800000E+00  1.60000000E+01  1.00800000E+00  1.00800000E+00
  1.60000000E+01  1.00800000E+00  1.00800000E+00  1.60000000E+01  1.00800000E+00
  1.00800000E+00  1.60000000E+01  1.00800000E+00  1.00800000E+00  1.60000000E+01
  1.00800000E+00  1.00800000E+00  1.60000000E+01  1.00800000E+00  1.00800000E+00
  1.60000000E+01  1.00800000E+00  1.00800000E+00  1.60000000E+01  1.00800000E+00
  1.00800000E+00  1.60000000E+01  1.00800000E+00  1.00800000E+00  1.60000000E+01
  1.00800000E+00  1.00800000E+00  1.60000000E+01  1.00800000E+00  1.00800000E+00
  1.60000000E+01  1.00800000E+00  1.00800000E+00  1.60000000E+01  1.00800000E+00
  1.00800000E+00  1.60000000E+01  1.00800000E+00  1.00800000E+00  1.60000000E+01
  1.00800000E+00  1.00800000E+00  1.60000000E+01  1.00800000E+00  1.00800000E+00
  1.60000000E+01  1.00800000E+00  1.00800000E+00  1.60000000E+01  1.00800000E+00
  1.00800000E+00  1.60000000E+01  1.00800000E+00  1.00800000E+00  1.60000000E+01
  1.00800000E+00  1.00800000E+00  1.60000000E+01  1.00800000E+00  1.00800000E+00
  1.60000000E+01  1.00800000E+00  1.00800000E+00  1.60000000E+01  1.00800000E+00
  1.00800000E+00  1.60000000E+01  1.00800000E+00  1.00800000E+00  1.60000000E+01
  1.00800000E+00  1.00800000E+00  1.60000000E+01  1.00800000E+00  1.00800000E+00
  1.60000000E+01  1.00800000E+00  1.00800000E+00  1.60000000E+01  1.00800000E+00
  1.00800000E+00  1.60000000E+01  1.00800000E+00  1.00800000E+00  1.60000000E+01
  1.00800000E+00  1.00800000E+00  1.60000000E+01  1.00800000E+00  1.00800000E+00
  1.60000000E+01  1.00800000E+00  1.00800000E+00  1.60000000E+01  1.00800000E+00
  1.00800000E+00  1.60000000E+01  1.00800000E+00  1.00800000E+00  1.60000000E+01
  1.00800000E+00  1.00800000E+00  1.60000000E+01  1.00800000E+00  1.00800000E+00
  1.60000000E+01  1.00800000E+00  1.00800000E+00  1.60000000E+01  1.00800000E+00
  1.00800000E+00  1.60000000E+01  1.00800000E+00  1.00800000E+00  1.60000000E+01
  1.00800000E+00  1.00800000E+00  1.60000000E+01  1.00800000E+00  1.00800000E+00
  1.60000000E+01  1.00800000E+00  1.00800000E+00  1.60000000E+01  1.00800000E+00
  1.00800000E+00  1.60000000E+01  1.00800000E+00  1.00800000E+00  1.60000000E+01
  1.00800000E+00  1.00800000E+00  1.60000000E+01  1.00800000E+00  1.00800000E+00
  1.60000000E+01  1.00800000E+00  1.00800000E+00  1.60000000E+01  1.00800000E+00
  1.00800000E+00  1.60000000E+01  1.00800000E+00  1.00800000E+00  1.60000000E+01
  1.00800000E+00  1.00800000E+00  1.60000000E+01  1.00800000E+00  1.00800000E+00
  1.60000000E+01  1.00800000E+00  1.00800000E+00  1.60000000E+01  1.00800000E+00
  1.00800000E+00  1.60000000E+01  1.00800000E+00  1.00800000E+00  1.60000000E+01
  1.00800000E+00  1.00800000E+00  1.60000000E+01  1.00800000E+00  1.00800000E+00
  1.60000000E+01  1.00800000E+00  1.00800000E+00  1.60000000E+01  1.00800000E+00
  1.00800000E+00  1.60000000E+01  1.00800000E+00  1.00800000E+00  1.60000000E+01
  1.00800000E+00  1.00800000E+00  1.60000000E+01  1.00800000E+00  1.00800000E+00
  1.60000000E+01  1.00800000E+00  1.00800000E+00  1.60000000E+01  1.00800000E+00
  1.00800000E+00  1.60000000E+01  1.00800000E+00  1.00800000E+00  1.60000000E+01
  1.00800000E+00  1.00800000E+00  1.60000000E+01  1.00800000E+00  1.00800000E+00
  1.60000000E+01  1.00800000E+00  1.00800000E+00  1.60000000E+01  1.00800000E+00
  1.00800000E+00  1.60000000E+01  1.00800000E+00  1.00800000E+00  1.60000000E+01
  1.00800000E+00  1.00800000E+00  1.60000000E+01  1.00800000E+00  1.00800000E+00
  1.60000000E+01  1.00800000E+00  1.00800000E+00  1.60000000E+01  1.00800000E+00
  1.00800000E+00  1.60000000E+01  1.00800000E+00  1.00800000E+00  1.60000000E+01
  1.00800000E+00  1.00800000E+00  1.60000000E+01  1.00800000E+00  1.00800000E+00
  1.60000000E+01  1.00800000E+00  1.00800000E+00  1.60000000E+01  1.00800000E+00
  1.00800000E+00  1.60000000E+01  1.00800000E+00  1.00800000E+00  1.60000000E+01
  1.00800000E+00  1.00800000E+00  1.60000000E+01  1.00800000E+00  1.00800000E+00
  1.60000000E+01  1.00800000E+00  1.00800000E+00  1.60000000E+01  1.00800000E+00
  1.00800000E+00  1.60000000E+01  1.00800000E+00  1.00800000E+00  1.60000000E+01
  1.00800000E+00  1.00800000E+00  1.60000000E+01  1.00800000E+00  1.00800000E+00
  1.60000000E+01  1.00800000E+00  1.00800000E+00  1.60000000E+01  1.00800000E+00
  1.00800000E+00  1.60000000E+01  1.00800000E+00  1.00800000E+00  1.60000000E+01
  1.00800000E+00  1.00800000E+00  1.60000000E+01  1.00800000E+00  1.00800000E+00
  1.60000000E+01  1.00800000E+00  1.00800000E+00  1.60000000E+01  1.00800000E+00
  1.00800000E+00  1.60000000E+01  1.00800000E+00  1.00800000E+00  1.60000000E+01
  1.00800000E+00  1.00800000E+00  1.60000000E+01  1.00800000E+00  1.00800000E+00
  1.60000000E+01  1.00800000E+00  1.00800000E+00  1.60000000E+01  1.00800000E+00
  1.00800000E+00  1.60000000E+01  1.00800000E+00  1.00800000E+00  1.60000000E+01
  1.00800000E+00  1.00800000E+00  1.60000000E+01  1.00800000E+00  1.00800000E+00
  1.60000000E+01  1.00800000E+00  1.00800000E+00  1.60000000E+01  1.00800000E+00
  1.00800000E+00  1.60000000E+01  1.00800000E+00  1.00800000E+00  1.60000000E+01
  1.00800000E+00  1.00800000E+00  1.60000000E+01  1.00800000E+00  1.00800000E+00
  1.60000000E+01  1.00800000E+00  1.00800000E+00  1.60000000E+01  1.00800000E+00
  1.00800000E+00  1.60000000E+01  1.00800000E+00  1.00800000E+00  1.60000000E+01
  1.00800000E+00  1.00800000E+00  1.60000000E+01  1.00800000E+00  1.00800000E+00
  1.60000000E+01  1.00800000E+00  1.00800000E+00  1.60000000E+01  1.00800000E+00
  1.00800000E+00  1.60000000E+01  1.00800000E+00  1.00800000E+00  1.60000000E+01
  1.00800000E+00  1.00800000E+00  1.60000000E+01  1.00800000E+00  1.00800000E+00
  1.60000000E+01  1.00800000E+00  1.00800000E+00  1.60000000E+01  1.00800000E+00
  1.00800000E+00  1.60000000E+01  1.00800000E+00  1.00800000E+00  1.60000000E+01
  1.00800000E+00  1.00800000E+00  1.60000000E+01  1.00800000E+00  1.00800000E+00
  1.60000000E+01  1.00800000E+00  1.00800000E+00  1.60000000E+01  1.00800000E+00
  1.00800000E+00  1.60000000E+01  1.00800000E+00  1.00800000E+00  1.60000000E+01
  1.00800000E+00  1.00800000E+00  1.60000000E+01  1.00800000E+00  1.00800000E+00
  1.60000000E+01  1.00800000E+00  1.00800000E+00  1.60000000E+01  1.00800000E+00
  1.00800000E+00  1.60000000E+01  1.00800000E+00  1.00800000E+00  1.60000000E+01
  1.00800000E+00  1.00800000E+00  1.60000000E+01  1.00800000E+00  1.00800000E+00
  1.60000000E+01  1.00800000E+00  1.00800000E+00  1.60000000E+01  1.00800000E+00
  1.00800000E+00  1.60000000E+01  1.00800000E+00  1.00800000E+00  1.60000000E+01
  1.00800000E+00  1.00800000E+00  1.60000000E+01  1.00800000E+00  1.00800000E+00
  1.60000000E+01  1.00800000E+00  1.00800000E+00  1.60000000E+01  1.00800000E+00
  1.00800000E+00  1.60000000E+01  1.00800000E+00  1.00800000E+00  1.60000000E+01
  1.00800000E+00  1.00800000E+00  1.60000000E+01  1.00800000E+00  1.00800000E+00
  1.60000000E+01  1.00800000E+00  1.00800000E+00  1.60000000E+01  1.00800000E+00
  1.00800000E+00  1.60000000E+01  1.00800000E+00  1.00800000E+00  1.60000000E+01
  1.00800000E+00  1.00800000E+00  1.60000000E+01  1.00800000E+00  1.00800000E+00
  1.60000000E+01  1.00800000E+00  1.00800000E+00  1.60000000E+01  1.00800000E+00
  1.00800000E+00  1.60000000E+01  1.00800000E+00  1.00800000E+00  1.60000000E+01
  1.00800000E+00  1.00800000E+00  1.60000000E+01  1.00800000E+00  1.00800000E+00
  1.60000000E+01  1.00800000E+00  1.00800000E+00  1.60000000E+01  1.00800000E+00
  1.00800000E+00  1.60000000E+01  1.00800000E+00  1.00800000E+00  1.60000000E+01
  1.00800000E+00  1.00800000E+00  1.60000000E+01  1.00800000E+00  1.00800000E+00
  1.60000000E+01  1.00800000E+00  1.00800000E+00  1.60000000E+01  1.00800000E+00
  1.00800000E+00  1.60000000E+01  1.00800000E+00  1.00800000E+00  1.60000000E+01
  1.00800000E+00  1.00800000E+00  1.60000000E+01  1.00800000E+00  1.00800000E+00
  1.60000000E+01  1.00800000E+00  1.00800000E+00  1.60000000E+01  1.00800000E+00
  1.00800000E+00  1.60000000E+01  1.00800000E+00  1.00800000E+00  1.60000000E+01
  1.00800000E+00  1.00800000E+00  1.60000000E+01  1.00800000E+00  1.00800000E+00
  1.60000000E+01  1.00800000E+00  1.00800000E+00  1.60000000E+01  1.00800000E+00
  1.00800000E+00  1.60000000E+01  1.00800000E+00  1.00800000E+00  1.60000000E+01
  1.00800000E+00  1.00800000E+00  1.60000000E+01  1.00800000E+00  1.00800000E+00
  1.60000000E+01  1.00800000E+00  1.00800000E+00  1.60000000E+01  1.00800000E+00
  1.00800000E+00  1.60000000E+01  1.00800000E+00  1.00800000E+00  1.60000000E+01
  1.00800000E+00  1.00800000E+00  1.60000000E+01  1.00800000E+00  1.00800000E+00
  1.60000000E+01  1.00800000E+00  1.00800000E+00  1.60000000E+01  1.00800000E+00
  1.00800000E+00  1.60000000E+01  1.00800000E+00  1.00800000E+00  1.60000000E+01
  1.00800000E+00  1.00800000E+00  1.60000000E+01  1.00800000E+00  1.00800000E+00
  1.60000000E+01  1.00800000E+00  1.00800000E+00  1.60000000E+01  1.00800000E+00
  1.00800000E+00  1.60000000E+01  1.00800000E+00  1.00800000E+00  1.60000000E+01
  1.00800000E+00  1.00800000E+00  1.60000000E+01  1.00800000E+00  1.00800000E+00
  1.60000000E+01  1.00800000E+00  1.00800000E+00  1.60000000E+01  1.00800000E+00
  1.00800000E+00  1.60000000E+01  1.00800000E+00  1.00800000E+00  1.60000000E+01
  1.00800000E+00  1.00800000E+00  1.60000000E+01  1.00800000E+00  1.00800000E+00
  1.60000000E+01  1.00800000E+00  1.00800000E+00  1.60000000E+01  1.00800000E+00
  1.00800000E+00  1.60000000E+01  1.00800000E+00  1.00800000E+00  1.60000000E+01
  1.00800000E+00  1.00800000E+00  1.60000000E+01  1.00800000E+00  1.00800000E+00
  1.60000000E+01  1.00800000E+00  1.00800000E+00  1.60000000E+01  1.00800000E+00
  1.00800000E+00  1.60000000E+01  1.00800000E+00  1.00800000E+00  1.60000000E+01
  1.00800000E+00  1.00800000E+00  1.60000000E+01  1.00800000E+00  1.00800000E+00
  1.60000000E+01  1.00800000E+00  1.00800000E+00  1.60000000E+01  1.00800000E+00
  1.00800000E+00  1.60000000E+01  1.00800000E+00  1.00800000E+00  1.60000000E+01
  1.00800000E+00  1.00800000E+00  1.60000000E+01  1.00800000E+00  1.00800000E+00
  1.60000000E+01  1.00800000E+00  1.00800000E+00  1.60000000E+01  1.00800000E+00
  1.00800000E+00  1.60000000E+01  1.00800000E+00  1.00800000E+00  1.60000000E+01
  1.00800000E+00  1.00800000E+00  1.60000000E+01  1.00800000E+00  1.00800000E+00
  1.60000000E+01  1.00800000E+00  1.00800000E+00  1.60000000E+01  1.00800000E+00
  1.00800000E+00  1.60000000E+01  1.00800000E+00  1.00800000E+00  1.60000000E+01
  1.00800000E+00  1.00800000E+00  1.60000000E+01  1.00800000E+00  1.00800000E+00
  1.60000000E+01  1.00800000E+00  1.00800000E+00  1.60000000E+01  1.00800000E+00
  1.00800000E+00  1.60000000E+01  1.00800000E+00  1.00800000E+00  1.60000000E+01
  1.00800000E+00  1.00800000E+00  1.60000000E+01  1.00800000E+00  1.00800000E+00
  1.60000000E+01  1.00800000E+00  1.00800000E+00  1.60000000E+01  1.00800000E+00
  1.00800000E+00  1.60000000E+01  1.00800000E+00  1.00800000E+00  1.60000000E+01
  1.00800000E+00  1.00800000E+00  1.60000000E+01  1.00800000E+00  1.00800000E+00
  1.60000000E+01  1.00800000E+00  1.00800000E+00  1.60000000E+01  1.00800000E+00
  1.00800000E+00  1.60000000E+01  1.00800000E+00  1.00800000E+00  1.60000000E+01
  1.00800000E+00  1.00800000E+00  1.60000000E+01  1.00800000E+00  1.00800000E+00
  1.60000000E+01  1.00800000E+00  1.00800000E+00  1.60000000E+01  1.00800000E+00
  1.00800000E+00  1.60000000E+01  1.00800000E+00  1.00800000E+00  1.60000000E+01
  1.00800000E+00  1.00800000E+00  1.60000000E+01  1.00800000E+00  1.00800000E+00
  1.60000000E+01  1.00800000E+00  1.00800000E+00  1.60000000E+01  1.00800000E+00
  1.00800000E+00  1.60000000E+01  1.00800000E+00  1.00800000E+00  1.60000000E+01
  1.00800000E+00  1.00800000E+00  1.60000000E+01  1.00800000E+00  1.00800000E+00
  1.60000000E+01  1.00800000E+00  1.00800000E+00  1.60000000E+01  1.00800000E+00
  1.00800000E+00  1.60000000E+01  1.00800000E+00  1.00800000E+00  1.60000000E+01
  1.00800000E+00  1.00800000E+00  1.60000000E+01  1.00800000E+00  1.00800000E+00
  1.60000000E+01  1.00800000E+00  1.00800000E+00  1.60000000E+01  1.00800000E+00
  1.00800000E+00  1.60000000E+01  1.00800000E+00  1.00800000E+00  1.60000000E+01
  1.00800000E+00  1.00800000E+00  1.60000000E+01  1.00800000E+00  1.00800000E+00
  1.60000000E+01  1.00800000E+00  1.00800000E+00  1.60000000E+01  1.00800000E+00
  1.00800000E+00  1.60000000E+01  1.00800000E+00  1.00800000E+00  1.60000000E+01
  1.00800000E+00  1.00800000E+00  1.60000000E+01  1.00800000E+00  1.00800000E+00
  1.60000000E+01  1.00800000E+00  1.00800000E+00  1.60000000E+01  1.00800000E+00
  1.00800000E+00  1.60000000E+01  1.00800000E+00  1.00800000E+00  1.60000000E+01
  1.00800000E+00  1.00800000E+00  1.60000000E+01  1.00800000E+00  1.00800000E+00
  1.60000000E+01  1.00800000E+00  1.00800000E+00  1.60000000E+01  1.00800000E+00
  1.00800000E+00  1.60000000E+01  1.00800000E+00  1.00800000E+00  1.60000000E+01
  1.00800000E+00  1.00800000E+00  1.60000000E+01  1.00800000E+00  1.00800000E+00
  1.60000000E+01  1.00800000E+00  1.00800000E+00  1.60000000E+01  1.00800000E+00
  1.00800000E+00  1.60000000E+01  1.00800000E+00  1.00800000E+00  1.60000000E+01
  1.00800000E+00  1.00800000E+00  1.60000000E+01  1.00800000E+00  1.00800000E+00
  1.60000000E+01  1.00800000E+00  1.00800000E+00  1.60000000E+01  1.00800000E+00
  1.00800000E+00  1.60000000E+01  1.00800000E+00  1.00800000E+00  1.60000000E+01
  1.00800000E+00  1.00800000E+00  1.60000000E+01  1.00800000E+00  1.00800000E+00
  1.60000000E+01  1.00800000E+00  1.00800000E+00  1.60000000E+01  1.00800000E+00
  1.00800000E+00  1.60000000E+01  1.00800000E+00  1.00800000E+00  1.60000000E+01
  1.00800000E+00  1.00800000E+00  1.60000000E+01  1.00800000E+00  1.00800000E+00
  1.60000000E+01  1.00800000E+00  1.00800000E+00  1.60000000E+01  1.00800000E+00
  1.00800000E+00  1.60000000E+01  1.00800000E+00  1.00800000E+00  1.60000000E+01
  1.00800000E+00  1.00800000E+00  1.60000000E+01  1.00800000E+00  1.00800000E+00
  1.60000000E+01  1.00800000E+00  1.00800000E+00  1.60000000E+01  1.00800000E+00
  1.00800000E+00  1.60000000E+01  1.00800000E+00  1.00800000E+00  1.60000000E+01
  1.00800000E+00  1.00800000E+00  1.60000000E+01  1.00800000E+00  1.00800000E+00
  1.60000000E+01  1.00800000E+00  1.00800000E+00  1.60000000E+01  1.00800000E+00
  1.00800000E+00  1.60000000E+01  1.00800000E+00  1.00800000E+00  1.60000000E+01
  1.00800000E+00  1.00800000E+00  1.60000000E+01  1.00800000E+00  1.00800000E+00
  1.60000000E+01  1.00800000E+00  1.00800000E+00  1.60000000E+01  1.00800000E+00
  1.00800000E+00  1.60000000E+01  1.00800000E+00  1.00800000E+00  1.60000000E+01
  1.00800000E+00  1.00800000E+00  1.60000000E+01  1.00800000E+00  1.00800000E+00
  1.60000000E+01  1.00800000E+00  1.00800000E+00  1.60000000E+01  1.00800000E+00
  1.00800000E+00  1.60000000E+01  1.00800000E+00  1.00800000E+00  1.60000000E+01
  1.00800000E+00  1.00800000E+00  1.60000000E+01  1.00800000E+00  1.00800000E+00
  1.60000000E+01  1.00800000E+00  1.00800000E+00  1.60000000E+01  1.00800000E+00
  1.00800000E+00  1.60000000E+01  1.00800000E+00  1.00800000E+00  1.60000000E+01
  1.00800000E+00  1.00800000E+00  1.60000000E+01  1.00800000E+00  1.00800000E+00
  1.60000000E+01  1.00800000E+00  1.00800000E+00  1.60000000E+01  1.00800000E+00
  1.00800000E+00  1.60000000E+01  1.00800000E+00  1.00800000E+00  1.60000000E+01
  1.00800000E+00  1.00800000E+00  1.60000000E+01  1.00800000E+00  1.00800000E+00
  1.60000000E+01  1.00800000E+00  1.00800000E+00  1.60000000E+01  1.00800000E+00
  1.00800000E+00  1.60000000E+01  1.00800000E+00  1.00800000E+00  1.60000000E+01
  1.00800000E+00  1.00800000E+00  1.60000000E+01  1.00800000E+00  1.00800000E+00
  1.60000000E+01  1.00800000E+00  1.00800000E+00  1.60000000E+01  1.00800000E+00
  1.00800000E+00  1.60000000E+01  1.00800000E+00  1.00800000E+00  1.60000000E+01
  1.00800000E+00  1.00800000E+00  1.60000000E+01  1.00800000E+00  1.00800000E+00
  1.60000000E+01  1.00800000E+00  1.00800000E+00  1.60000000E+01  1.00800000E+00
  1.00800000E+00  1.60000000E+01  1.00800000E+00  1.00800000E+00  1.60000000E+01
  1.00800000E+00  1.00800000E+00  1.60000000E+01  1.00800000E+00  1.00800000E+00
  1.60000000E+01  1.00800000E+00  1.00800000E+00  1.60000000E+01  1.00800000E+00
  1.00800000E+00  1.60000000E+01  1.00800000E+00  1.00800000E+00  1.60000000E+01
  1.00800000E+00  1.00800000E+00  1.60000000E+01  1.00800000E+00  1.00800000E+00
  1.60000000E+01  1.00800000E+00  1.00800000E+00  1.60000000E+01  1.00800000E+00
  1.00800000E+00  1.60000000E+01  1.00800000E+00  1.00800000E+00  1.60000000E+01
  1.00800000E+00  1.00800000E+00  1.60000000E+01  1.00800000E+00  1.00800000E+00
  1.60000000E+01  1.00800000E+00  1.00800000E+00  1.60000000E+01  1.00800000E+00
  1.00800000E+00  1.60000000E+01  1.00800000E+00  1.00800000E+00  1.60000000E+01
  1.00800000E+00  1.00800000E+00  1.60000000E+01  1.00800000E+00  1.00800000E+00
  1.60000000E+01  1.00800000E+00  1.00800000E+00  1.60000000E+01  1.00800000E+00
  1.00800000E+00  1.60000000E+01  1.00800000E+00  1.00800000E+00  1.60000000E+01
  1.00800000E+00  1.00800000E+00  1.60000000E+01  1.00800000E+00  1.00800000E+00
  1.60000000E+01  1.00800000E+00  1.00800000E+00  1.60000000E+01  1.00800000E+00
  1.00800000E+00  1.60000000E+01  1.00800000E+00  1.00800000E+00  1.60000000E+01
  1.00800000E+00  1.00800000E+00  1.60000000E+01  1.00800000E+00  1.00800000E+00
  1.60000000E+01  1.00800000E+00  1.00800000E+00  1.60000000E+01  1.00800000E+00
  1.00800000E+00  1.60000000E+01  1.00800000E+00  1.00800000E+00  1.60000000E+01
  1.00800000E+00  1.00800000E+00  1.60000000E+01  1.00800000E+00  1.00800000E+00
  1.60000000E+01  1.00800000E+00  1.00800000E+00  1.60000000E+01  1.00800000E+00
  1.00800000E+00  1.60000000E+01  1.00800000E+00  1.00800000E+00  1.60000000E+01
  1.00800000E+00  1.00800000E+00  1.60000000E+01  1.00800000E+00  1.00800000E+00
  1.60000000E+01  1.00800000E+00  1.00800000E+00  1.60000000E+01  1.00800000E+00
  1.00800000E+00  1.60000000E+01  1.00800000E+00  1.00800000E+00  1.60000000E+01
  1.00800000E+00  1.00800000E+00  1.60000000E+01  1.00800000E+00  1.00800000E+00
  1.60000000E+01  1.00800000E+00  1.00800000E+00  1.60000000E+01  1.00800000E+00
  1.00800000E+00  1.60000000E+01  1.00800000E+00  1.00800000E+00  1.60000000E+01
  1.00800000E+00  1.00800000E+00  1.60000000E+01  1.00800000E+00  1.00800000E+00
  1.60000000E+01  1.00800000E+00  1.00800000E+00  1.60000000E+01  1.00800000E+00
  1.00800000E+00  1.60000000E+01  1.00800000E+00  1.00800000E+00  1.60000000E+01
  1.00800000E+00  1.00800000E+00  1.60000000E+01  1.00800000E+00  1.00800000E+00
  1.60000000E+01  1.00800000E+00  1.00800000E+00  1.60000000E+01  1.00800000E+00
  1.00800000E+00  1.60000000E+01  1.00800000E+00  1.00800000E+00  1.60000000E+01
  1.00800000E+00  1.00800000E+00  1.60000000E+01  1.00800000E+00  1.00800000E+00
  1.60000000E+01  1.00800000E+00  1.00800000E+00  1.60000000E+01  1.00800000E+00
  1.00800000E+00  1.60000000E+01  1.00800000E+00  1.00800000E+00  1.60000000E+01
  1.00800000E+00  1.00800000E+00  1.60000000E+01  1.00800000E+00  1.00800000E+00
  1.60000000E+01  1.00800000E+00  1.00800000E+00  1.60000000E+01  1.00800000E+00
  1.00800000E+00  1.60000000E+01  1.00800000E+00  1.00800000E+00  1.60000000E+01
  1.00800000E+00  1.00800000E+00  1.60000000E+01  1.00800000E+00  1.00800000E+00
  1.60000000E+01  1.00800000E+00  1.00800000E+00  1.60000000E+01  1.00800000E+00
  1.00800000E+00  1.60000000E+01  1.00800000E+00  1.00800000E+00  1.60000000E+01
  1.00800000E+00  1.00800000E+00  1.60000000E+01  1.00800000E+00  1.00800000E+00
  1.60000000E+01  1.00800000E+00  1.00800000E+00  1.60000000E+01  1.00800000E+00
  1.00800000E+00  1.60000000E+01  1.00800000E+00  1.00800000E+00  1.60000000E+01
  1.00800000E+00  1.00800000E+00  1.60000000E+01  1.00800000E+00  1.00800000E+00
  1.60000000E+01  1.00800000E+00  1.00800000E+00  1.60000000E+01  1.00800000E+00
  1.00800000E+00  1.60000000E+01  1.00800000E+00  1.00800000E+00  1.60000000E+01
  1.00800000E+00  1.00800000E+00  1.60000000E+01  1.00800000E+00  1.00800000E+00
  1.60000000E+01  1.00800000E+00  1.00800000E+00  1.60000000E+01  1.00800000E+00
  1.00800000E+00  1.60000000E+01  1.00800000E+00  1.00800000E+00  1.60000000E+01
  1.00800000E+00  1.00800000E+00  1.60000000E+01  1.00800000E+00  1.00800000E+00
  1.60000000E+01  1.00800000E+00  1.00800000E+00  1.60000000E+01  1.00800000E+00
  1.00800000E+00  1.60000000E+01  1.00800000E+00  1.00800000E+00  1.60000000E+01
  1.00800000E+00  1.00800000E+00  1.60000000E+01  1.00800000E+00  1.00800000E+00
  1.60000000E+01  1.00800000E+00  1.00800000E+00  1.60000000E+01  1.00800000E+00
  1.00800000E+00  1.60000000E+01  1.00800000E+00  1.00800000E+00  1.60000000E+01
  1.00800000E+00  1.00800000E+00  1.60000000E+01  1.00800000E+00  1.00800000E+00
  1.60000000E+01  1.00800000E+00  1.00800000E+00  1.60000000E+01  1.00800000E+00
  1.00800000E+00  1.60000000E+01  1.00800000E+00  1.00800000E+00  1.60000000E+01
  1.00800000E+00  1.00800000E+00  1.60000000E+01  1.00800000E+00  1.00800000E+00
  1.60000000E+01  1.00800000E+00  1.00800000E+00  1.60000000E+01  1.00800000E+00
  1.00800000E+00  1.60000000E+01  1.00800000E+00  1.00800000E+00  1.60000000E+01
  1.00800000E+00  1.00800000E+00  1.60000000E+01  1.00800000E+00  1.00800000E+00
  1.60000000E+01  1.00800000E+00  1.00800000E+00  1.60000000E+01  1.00800000E+00
  1.00800000E+00  1.60000000E+01  1.00800000E+00  1.00800000E+00  1.60000000E+01
  1.00800000E+00  1.00800000E+00  1.60000000E+01  1.00800000E+00  1.00800000E+00
  1.60000000E+01  1.00800000E+00  1.00800000E+00  1.60000000E+01  1.00800000E+00
  1.00800000E+00  1.60000000E+01  1.00800000E+00  1.00800000E+00  1.60000000E+01
  1.00800000E+00  1.00800000E+00  1.60000000E+01  1.00800000E+00  1.00800000E+00
  1.60000000E+01  1.00800000E+00  1.00800000E+00  1.60000000E+01  1.00800000E+00
  1.00800000E+00  1.60000000E+01  1.00800000E+00  1.00800000E+00  1.60000000E+01
  1.00800000E+00  1.00800000E+00  1.60000000E+01  1.00800000E+00  1.00800000E+00
  1.60000000E+01  1.00800000E+00  1.00800000E+00  1.60000000E+01  1.00800000E+00
  1.00800000E+00  1.60000000E+01  1.00800000E+00  1.00800000E+00  1.60000000E+01
  1.00800000E+00  1.00800000E+00  1.60000000E+01  1.00800000E+00  1.00800000E+00
  1.60000000E+01  1.00800000E+00  1.00800000E+00  1.60000000E+01  1.00800000E+00
  1.00800000E+00  1.60000000E+01  1.00800000E+00  1.00800000E+00  1.60000000E+01
  1.00800000E+00  1.00800000E+00  1.60000000E+01  1.00800000E+00  1.00800000E+00
  1.60000000E+01  1.00800000E+00  1.00800000E+00  1.60000000E+01  1.00800000E+00
  1.00800000E+00  1.60000000E+01  1.00800000E+00  1.00800000E+00  1.60000000E+01
  1.00800000E+00  1.00800000E+00  1.60000000E+01  1.00800000E+00  1.00800000E+00
  1.60000000E+01  1.00800000E+00  1.00800000E+00  1.60000000E+01  1.00800000E+00
  1.00800000E+00  1.60000000E+01  1.00800000E+00  1.00800000E+00  1.60000000E+01
  1.00800000E+00  1.00800000E+00  1.60000000E+01  1.00800000E+00  1.00800000E+00
  1.60000000E+01  1.00800000E+00  1.00800000E+00  1.60000000E+01  1.00800000E+00
  1.00800000E+00  1.60000000E+01  1.00800000E+00  1.00800000E+00  1.60000000E+01
  1.00800000E+00  1.00800000E+00  1.60000000E+01  1.00800000E+00  1.00800000E+00
  1.60000000E+01  1.00800000E+00  1.00800000E+00  1.60000000E+01  1.00800000E+00
  1.00800000E+00  1.60000000E+01  1.00800000E+00  1.00800000E+00  1.60000000E+01
  1.00800000E+00  1.00800000E+00  1.60000000E+01  1.00800000E+00  1.00800000E+00
  1.60000000E+01  1.00800000E+00  1.00800000E+00  1.60000000E+01  1.00800000E+00
  1.00800000E+00  1.60000000E+01  1.00800000E+00  1.00800000E+00  1.60000000E+01
  1.00800000E+00  1.00800000E+00  1.60000000E+01  1.00800000E+00  1.00800000E+00
  1.60000000E+01  1.00800000E+00  1.00800000E+00  1.60000000E+01  1.00800000E+00
  1.00800000E+00  1.60000000E+01  1.00800000E+00  1.00800000E+00  1.60000000E+01
  1.00800000E+00  1.00800000E+00  1.60000000E+01  1.00800000E+00  1.00800000E+00
  1.60000000E+01  1.00800000E+00  1.00800000E+00  1.60000000E+01  1.00800000E+00
  1.00800000E+00  1.60000000E+01  1.00800000E+00  1.00800000E+00  1.60000000E+01
  1.00800000E+00  1.00800000E+00  1.60000000E+01  1.00800000E+00  1.00800000E+00
  1.60000000E+01  1.00800000E+00  1.00800000E+00  1.60000000E+01  1.00800000E+00
  1.00800000E+00  1.60000000E+01  1.00800000E+00  1.00800000E+00  1.60000000E+01
  1.00800000E+00  1.00800000E+00  1.60000000E+01  1.00800000E+00  1.00800000E+00
  1.60000000E+01  1.00800000E+00  1.00800000E+00  1.60000000E+01  1.00800000E+00
  1.00800000E+00  1.60000000E+01  1.00800000E+00  1.00800000E+00  1.60000000E+01
  1.00800000E+00  1.00800000E+00  1.60000000E+01  1.00800000E+00  1.00800000E+00
  1.60000000E+01  1.00800000E+00  1.00800000E+00  1.60000000E+01  1.00800000E+00
  1.00800000E+00  1.60000000E+01  1.00800000E+00  1.00800000E+00  1.60000000E+01
  1.00800000E+00  1.00800000E+00  1.60000000E+01  1.00800000E+00  1.00800000E+00
  1.60000000E+01  1.00800000E+00  1.00800000E+00  1.60000000E+01  1.00800000E+00
  1.00800000E+00  1.60000000E+01  1.00800000E+00  1.00800000E+00  1.60000000E+01
  1.00800000E+00  1.00800000E+00  1.60000000E+01  1.00800000E+00  1.00800000E+00
  1.60000000E+01  1.00800000E+00  1.00800000E+00  1.60000000E+01  1.00800000E+00
  1.00800000E+00  1.60000000E+01  1.00800000E+00  1.00800000E+00  1.60000000E+01
  1.00800000E+00  1.00800000E+00  1.60000000E+01  1.00800000E+00  1.00800000E+00
  1.60000000E+01  1.00800000E+00  1.00800000E+00  1.60000000E+01  1.00800000E+00
  1.00800000E+00  1.60000000E+01  1.00800000E+00  1.00800000E+00  1.60000000E+01
  1.00800000E+00  1.00800000E+00  1.60000000E+01  1.00800000E+00  1.00800000E+00
  1.60000000E+01  1.00800000E+00  1.00800000E+00  1.60000000E+01  1.00800000E+00
  1.00800000E+00  1.60000000E+01  1.00800000E+00  1.00800000E+00  1.60000000E+01
  1.00800000E+00  1.00800000E+00  1.60000000E+01  1.00800000E+00  1.00800000E+00
  1.60000000E+01  1.00800000E+00  1.00800000E+00  1.60000000E+01  1.00800000E+00
  1.00800000E+00  1.60000000E+01  1.00800000E+00  1.00800000E+00  1.60000000E+01
  1.00800000E+00  1.00800000E+00  1.60000000E+01  1.00800000E+00  1.00800000E+00
  1.60000000E+01  1.00800000E+00  1.00800000E+00  1.60000000E+01  1.00800000E+00
  1.00800000E+00  1.60000000E+01  1.00800000E+00  1.00800000E+00  1.60000000E+01
  1.00800000E+00  1.00800000E+00  1.60000000E+01  1.00800000E+00  1.00800000E+00
  1.60000000E+01  1.00800000E+00  1.00800000E+00  1.60000000E+01  1.00800000E+00
  1.00800000E+00  1.60000000E+01  1.00800000E+00  1.00800000E+00  1.60000000E+01
  1.00800000E+00  1.00800000E+00  1.60000000E+01  1.00800000E+00  1.00800000E+00
  1.60000000E+01  1.00800000E+00  1.00800000E+00  1.60000000E+01  1.00800000E+00
  1.00800000E+00  1.60000000E+01  1.00800000E+00  1.00800000E+00  1.60000000E+01
  1.00800000E+00  1.00800000E+00  1.60000000E+01  1.00800000E+00  1.00800000E+00
  1.60000000E+01  1.00800000E+00  1.00800000E+00  1.60000000E+01  1.00800000E+00
  1.00800000E+00  1.60000000E+01  1.00800000E+00  1.00800000E+00  1.60000000E+01
  1.00800000E+00  1.00800000E+00  1.60000000E+01  1.00800000E+00  1.00800000E+00
  1.60000000E+01  1.00800000E+00  1.00800000E+00  1.60000000E+01  1.00800000E+00
  1.00800000E+00  1.60000000E+01  1.00800000E+00  1.00800000E+00  1.60000000E+01
  1.00800000E+00  1.00800000E+00  1.60000000E+01  1.00800000E+00  1.00800000E+00
  1.60000000E+01  1.00800000E+00  1.00800000E+00  1.60000000E+01  1.00800000E+00
  1.00800000E+00  1.60000000E+01  1.00800000E+00  1.00800000E+00  1.60000000E+01
  1.00800000E+00  1.00800000E+00  1.60000000E+01  1.00800000E+00  1.00800000E+00
  1.60000000E+01  1.00800000E+00  1.00800000E+00  1.60000000E+01  1.00800000E+00
  1.00800000E+00  1.60000000E+01  1.00800000E+00  1.00800000E+00  1.60000000E+01
  1.00800000E+00  1.00800000E+00  1.60000000E+01  1.00800000E+00  1.00800000E+00
  1.60000000E+01  1.00800000E+00  1.00800000E+00  1.60000000E+01  1.00800000E+00
  1.00800000E+00  1.60000000E+01  1.00800000E+00  1.00800000E+00  1.60000000E+01
  1.00800000E+00  1.00800000E+00  1.60000000E+01  1.00800000E+00  1.00800000E+00
  1.60000000E+01  1.00800000E+00  1.00800000E+00  1.60000000E+01  1.00800000E+00
  1.00800000E+00  1.60000000E+01  1.00800000E+00  1.00800000E+00  1.60000000E+01
  1.00800000E+00  1.00800000E+00  1.60000000E+01  1.00800000E+00  1.00800000E+00
  1.60000000E+01  1.00800000E+00  1.00800000E+00  1.60000000E+01  1.00800000E+00
  1.00800000E+00  1.60000000E+01  1.00800000E+00  1.00800000E+00  1.60000000E+01
  1.00800000E+00  1.00800000E+00  1.60000000E+01  1.00800000E+00  1.00800000E+00
  1.60000000E+01  1.00800000E+00  1.00800000E+00  1.60000000E+01  1.00800000E+00
  1.00800000E+00  1.60000000E+01  1.00800000E+00  1.00800000E+00  1.60000000E+01
  1.00800000E+00  1.00800000E+00  1.60000000E+01  1.00800000E+00  1.00800000E+00
  1.60000000E+01  1.00800000E+00  1.00800000E+00  1.60000000E+01  1.00800000E+00
  1.00800000E+00  1.60000000E+01  1.00800000E+00  1.00800000E+00  1.60000000E+01
  1.00800000E+00  1.00800000E+00  1.60000000E+01  1.00800000E+00  1.00800000E+00
  1.60000000E+01  1.00800000E+00  1.00800000E+00  1.60000000E+01  1.00800000E+00
  1.00800000E+00  1.60000000E+01  1.00800000E+00  1.00800000E+00  1.60000000E+01
  1.00800000E+00  1.00800000E+00  1.60000000E+01  1.00800000E+00  1.00800000E+00
  1.60000000E+01  1.00800000E+00  1.00800000E+00  1.60000000E+01  1.00800000E+00
  1.00800000E+00  1.60000000E+01  1.00800000E+00  1.00800000E+00  1.60000000E+01
  1.00800000E+00  1.00800000E+00  1.60000000E+01  1.00800000E+00  1.00800000E+00
  1.60000000E+01  1.00800000E+00  1.00800000E+00  1.60000000E+01  1.00800000E+00
  1.00800000E+00  1.60000000E+01  1.00800000E+00  1.00800000E+00  1.60000000E+01
  1.00800000E+00  1.00800000E+00  1.60000000E+01  1.00800000E+00  1.00800000E+00
  1.60000000E+01  1.00800000E+00  1.00800000E+00  1.60000000E+01  1.00800000E+00
  1.00800000E+00  1.60000000E+01  1.00800000E+00  1.00800000E+00  1.60000000E+01
  1.00800000E+00  1.00800000E+00  1.60000000E+01  1.00800000E+00  1.00800000E+00
  1.60000000E+01  1.00800000E+00  1.00800000E+00  1.60000000E+01  1.00800000E+00
  1.00800000E+00  1.60000000E+01  1.00800000E+00  1.00800000E+00  1.60000000E+01
  1.00800000E+00  1.00800000E+00  1.60000000E+01  1.00800000E+00  1.00800000E+00
  1.60000000E+01  1.00800000E+00  1.00800000E+00  1.60000000E+01  1.00800000E+00
  1.00800000E+00  1.60000000E+01  1.00800000E+00  1.00800000E+00  1.60000000E+01
  1.00800000E+00  1.00800000E+00  1.60000000E+01  1.00800000E+00  1.00800000E+00
  1.60000000E+01  1.00800000E+00  1.00800000E+00  1.60000000E+01  1.00800000E+00
  1.00800000E+00  1.60000000E+01  1.00800000E+00  1.00800000E+00  1.60000000E+01
  1.00800000E+00  1.00800000E+00  1.60000000E+01  1.00800000E+00  1.00800000E+00
  1.60000000E+01  1.00800000E+00  1.00800000E+00  1.60000000E+01  1.00800000E+00
  1.00800000E+00  1.60000000E+01  1.00800000E+00  1.00800000E+00  1.60000000E+01
  1.00800000E+00  1.00800000E+00  1.60000000E+01  1.00800000E+00  1.00800000E+00
  1.60000000E+01  1.00800000E+00  1.00800000E+00  1.60000000E+01  1.00800000E+00
  1.00800000E+00  1.60000000E+01  1.00800000E+00  1.00800000E+00  1.60000000E+01
  1.00800000E+00  1.00800000E+00  1.60000000E+01  1.00800000E+00  1.00800000E+00
  1.60000000E+01  1.00800000E+00  1.00800000E+00  1.60000000E+01  1.00800000E+00
  1.00800000E+00  1.60000000E+01  1.00800000E+00  1.00800000E+00  1.60000000E+01
  1.00800000E+00  1.00800000E+00  1.60000000E+01  1.00800000E+00  1.00800000E+00
  1.60000000E+01  1.00800000E+00  1.00800000E+00  1.60000000E+01  1.00800000E+00
  1.00800000E+00  1.60000000E+01  1.00800000E+00  1.00800000E+00  1.60000000E+01
  1.00800000E+00  1.00800000E+00  1.60000000E+01  1.00800000E+00  1.00800000E+00
  1.60000000E+01  1.00800000E+00  1.00800000E+00  1.60000000E+01  1.00800000E+00
  1.00800000E+00  1.60000000E+01  1.00800000E+00  1.00800000E+00  1.60000000E+01
  1.00800000E+00  1.00800000E+00  1.60000000E+01  1.00800000E+00  1.00800000E+00
  1.60000000E+01  1.00800000E+00  1.00800000E+00  1.60000000E+01  1.00800000E+00
  1.00800000E+00  1.60000000E+01  1.00800000E+00  1.00800000E+00  1.60000000E+01
  1.00800000E+00  1.00800000E+00  1.60000000E+01  1.00800000E+00  1.00800000E+00
  1.60000000E+01  1.00800000E+00  1.00800000E+00  1.60000000E+01  1.00800000E+00
  1.00800000E+00  1.60000000E+01  1.00800000E+00  1.00800000E+00  1.60000000E+01
  1.00800000E+00  1.00800000E+00  1.60000000E+01  1.00800000E+00  1.00800000E+00
  1.60000000E+01  1.00800000E+00  1.00800000E+00  1.60000000E+01  1.00800000E+00
  1.00800000E+00  1.60000000E+01  1.00800000E+00  1.00800000E+00  1.60000000E+01
  1.00800000E+00  1.00800000E+00  1.60000000E+01  1.00800000E+00  1.00800000E+00
  1.60000000E+01  1.00800000E+00  1.00800000E+00  1.60000000E+01  1.00800000E+00
  1.00800000E+00  1.60000000E+01  1.00800000E+00  1.00800000E+00  1.60000000E+01
  1.00800000E+00  1.00800000E+00  1.60000000E+01  1.00800000E+00  1.00800000E+00
  1.60000000E+01  1.00800000E+00  1.00800000E+00  1.60000000E+01  1.00800000E+00
  1.00800000E+00  1.60000000E+01  1.00800000E+00  1.00800000E+00  1.60000000E+01
  1.00800000E+00  1.00800000E+00  1.60000000E+01  1.00800000E+00  1.00800000E+00
  1.60000000E+01  1.00800000E+00  1.00800000E+00  1.60000000E+01  1.00800000E+00
  1.00800000E+00  1.60000000E+01  1.00800000E+00  1.00800000E+00  1.60000000E+01
  1.00800000E+00  1.00800000E+00  1.60000000E+01  1.00800000E+00  1.00800000E+00
  1.60000000E+01  1.00800000E+00  1.00800000E+00  1.60000000E+01  1.00800000E+00
  1.00800000E+00  1.60000000E+01  1.00800000E+00  1.00800000E+00  1.60000000E+01
  1.00800000E+00  1.00800000E+00  1.60000000E+01  1.00800000E+00  1.00800000E+00
  1.60000000E+01  1.00800000E+00  1.00800000E+00  1.60000000E+01  1.00800000E+00
  1.00800000E+00  1.60000000E+01  1.00800000E+00  1.00800000E+00  1.60000000E+01
  1.00800000E+00  1.00800000E+00  1.60000000E+01  1.00800000E+00  1.00800000E+00
  1.60000000E+01  1.00800000E+00  1.00800000E+00  1.60000000E+01  1.00800000E+00
  1.00800000E+00  1.60000000E+01  1.00800000E+00  1.00800000E+00  1.60000000E+01
  1.00800000E+00  1.00800000E+00  1.60000000E+01  1.00800000E+00  1.00800000E+00
  1.60000000E+01  1.00800000E+00  1.00800000E+00  1.60000000E+01  1.00800000E+00
  1.00800000E+00  1.60000000E+01  1.00800000E+00  1.00800000E+00  1.60000000E+01
  1.00800000E+00  1.00800000E+00  1.60000000E+01  1.00800000E+00  1.00800000E+00
  1.60000000E+01  1.00800000E+00  1.00800000E+00  1.60000000E+01  1.00800000E+00
  1.00800000E+00  1.60000000E+01  1.00800000E+00  1.00800000E+00  1.60000000E+01
  1.00800000E+00  1.00800000E+00  1.60000000E+01  1.00800000E+00  1.00800000E+00
  1.60000000E+01  1.00800000E+00  1.00800000E+00  1.60000000E+01  1.00800000E+00
  1.00800000E+00  1.60000000E+01  1.00800000E+00  1.00800000E+00  1.60000000E+01
  1.00800000E+00  1.00800000E+00  1.60000000E+01  1.00800000E+00  1.00800000E+00
  1.60000000E+01  1.00800000E+00  1.00800000E+00  1.60000000E+01  1.00800000E+00
  1.00800000E+00  1.60000000E+01  1.00800000E+00  1.00800000E+00  1.60000000E+01
  1.00800000E+00  1.00800000E+00  1.60000000E+01  1.00800000E+00  1.00800000E+00
  1.60000000E+01  1.00800000E+00  1.00800000E+00  1.60000000E+01  1.00800000E+00
  1.00800000E+00  1.60000000E+01  1.00800000E+00  1.00800000E+00  1.60000000E+01
  1.00800000E+00  1.00800000E+00  1.60000000E+01  1.00800000E+00  1.00800000E+00
  1.60000000E+01  1.00800000E+00  1.00800000E+00  1.60000000E+01  1.00800000E+00
  1.00800000E+00  1.60000000E+01  1.00800000E+00  1.00800000E+00  1.60000000E+01
  1.00800000E+00  1.00800000E+00  1.60000000E+01  1.00800000E+00  1.00800000E+00
  1.60000000E+01  1.00800000E+00  1.00800000E+00  1.60000000E+01  1.00800000E+00
  1.00800000E+00  1.60000000E+01  1.00800000E+00  1.00800000E+00  1.60000000E+01
  1.00800000E+00  1.00800000E+00  1.60000000E+01  1.00800000E+00  1.00800000E+00
  1.60000000E+01  1.00800000E+00  1.00800000E+00  1.60000000E+01  1.00800000E+00
  1.00800000E+00  1.60000000E+01  1.00800000E+00  1.00800000E+00  1.60000000E+01
  1.00800000E+00  1.00800000E+00  1.60000000E+01  1.00800000E+00  1.00800000E+00
  1.60000000E+01  1.00800000E+00  1.00800000E+00  1.60000000E+01  1.00800000E+00
  1.00800000E+00  1.60000000E+01  1.00800000E+00  1.00800000E+00  1.60000000E+01
  1.00800000E+00  1.00800000E+00  1.60000000E+01  1.00800000E+00  1.00800000E+00
  1.60000000E+01  1.00800000E+00  1.00800000E+00  1.60000000E+01  1.00800000E+00
  1.00800000E+00  1.60000000E+01  1.00800000E+00  1.00800000E+00  1.60000000E+01
  1.00800000E+00  1.00800000E+00  1.60000000E+01  1.00800000E+00  1.00800000E+00
  1.60000000E+01  1.00800000E+00  1.00800000E+00  1.60000000E+01  1.00800000E+00
  1.00800000E+00  1.60000000E+01  1.00800000E+00  1.00800000E+00  1.60000000E+01
  1.00800000E+00  1.00800000E+00  1.60000000E+01  1.00800000E+00  1.00800000E+00
  1.60000000E+01  1.00800000E+00  1.00800000E+00  1.60000000E+01  1.00800000E+00
  1.00800000E+00  1.60000000E+01  1.00800000E+00  1.00800000E+00  1.60000000E+01
  1.00800000E+00  1.00800000E+00  1.60000000E+01  1.00800000E+00  1.00800000E+00
  1.60000000E+01  1.00800000E+00  1.00800000E+00  1.60000000E+01  1.00800000E+00
  1.00800000E+00  1.60000000E+01  1.00800000E+00  1.00800000E+00  1.60000000E+01
  1.00800000E+00  1.00800000E+00  1.60000000E+01  1.00800000E+00  1.00800000E+00
  1.60000000E+01  1.00800000E+00  1.00800000E+00  1.60000000E+01  1.00800000E+00
  1.00800000E+00  1.60000000E+01  1.00800000E+00  1.00800000E+00  1.60000000E+01
  1.00800000E+00  1.00800000E+00  1.60000000E+01  1.00800000E+00  1.00800000E+00
  1.60000000E+01  1.00800000E+00  1.00800000E+00  1.60000000E+01  1.00800000E+00
  1.00800000E+00  1.60000000E+01  1.00800000E+00  1.00800000E+00  1.60000000E+01
  1.00800000E+00  1.00800000E+00  1.60000000E+01  1.00800000E+00  1.00800000E+00
  1.60000000E+01  1.00800000E+00  1.00800000E+00  1.60000000E+01  1.00800000E+00
  1.00800000E+00  1.60000000E+01  1.00800000E+00  1.00800000E+00  1.60000000E+01
  1.00800000E+00  1.00800000E+00  1.60000000E+01  1.00800000E+00  1.00800000E+00
  1.60000000E+01  1.00800000E+00  1.00800000E+00  1.60000000E+01  1.00800000E+00
  1.00800000E+00  1.60000000E+01  1.00800000E+00  1.00800000E+00  1.60000000E+01
  1.00800000E+00  1.00800000E+00  1.60000000E+01  1.00800000E+00  1.00800000E+00
  1.60000000E+01  1.00800000E+00  1.00800000E+00  1.60000000E+01  1.00800000E+00
  1.00800000E+00  1.60000000E+01  1.00800000E+00  1.00800000E+00  1.60000000E+01
  1.00800000E+00  1.00800000E+00  1.60000000E+01  1.00800000E+00  1.00800000E+00
  1.60000000E+01  1.00800000E+00  1.00800000E+00  1.60000000E+01  1.00800000E+00
  1.00800000E+00  1.60000000E+01  1.00800000E+00  1.00800000E+00  1.60000000E+01
  1.00800000E+00  1.00800000E+00  1.60000000E+01  1.00800000E+00  1.00800000E+00
  1.60000000E+01  1.00800000E+00  1.00800000E+00  1.60000000E+01  1.00800000E+00
  1.00800000E+00  1.60000000E+01  1.00800000E+00  1.00800000E+00  1.60000000E+01
  1.00800000E+00  1.00800000E+00  1.60000000E+01  1.00800000E+00  1.00800000E+00
  1.60000000E+01  1.00800000E+00  1.00800000E+00  1.60000000E+01  1.00800000E+00
  1.00800000E+00  1.60000000E+01  1.00800000E+00  1.00800000E+00  1.60000000E+01
  1.00800000E+00  1.00800000E+00  1.60000000E+01  1.00800000E+00  1.00800000E+00
  1.60000000E+01  1.00800000E+00  1.00800000E+00  1.60000000E+01  1.00800000E+00
  1.00800000E+00  1.60000000E+01  1.00800000E+00  1.00800000E+00  1.60000000E+01
  1.00800000E+00  1.00800000E+00  1.60000000E+01  1.00800000E+00  1.00800000E+00
  1.60000000E+01  1.00800000E+00  1.00800000E+00  1.60000000E+01  1.00800000E+00
  1.00800000E+00  1.60000000E+01  1.00800000E+00  1.00800000E+00  1.60000000E+01
  1.00800000E+00  1.00800000E+00  1.60000000E+01  1.00800000E+00  1.00800000E+00
  1.60000000E+01  1.00800000E+00  1.00800000E+00  1.60000000E+01  1.00800000E+00
  1.00800000E+00  1.60000000E+01  1.00800000E+00  1.00800000E+00  1.60000000E+01
  1.00800000E+00  1.00800000E+00  1.60000000E+01  1.00800000E+00  1.00800000E+00
  1.60000000E+01  1.00800000E+00  1.00800000E+00  1.60000000E+01  1.00800000E+00
  1.00800000E+00  1.60000000E+01  1.00800000E+00  1.00800000E+00  1.60000000E+01
  1.00800000E+00  1.00800000E+00  1.60000000E+01  1.00800000E+00  1.00800000E+00
  1.60000000E+01  1.00800000E+00  1.00800000E+00  1.60000000E+01  1.00800000E+00
  1.00800000E+00  1.60000000E+01  1.00800000E+00  1.00800000E+00  1.60000000E+01
  1.00800000E+00  1.00800000E+00  1.60000000E+01  1.00800000E+00  1.00800000E+00
  1.60000000E+01  1.00800000E+00  1.00800000E+00  1.60000000E+01  1.00800000E+00
  1.00800000E+00  1.60000000E+01  1.00800000E+00  1.00800000E+00  1.60000000E+01
  1.00800000E+00  1.00800000E+00  1.60000000E+01  1.00800000E+00  1.00800000E+00
  1.60000000E+01  1.00800000E+00  1.00800000E+00  1.60000000E+01  1.00800000E+00
  1.00800000E+00  1.60000000E+01  1.00800000E+00  1.00800000E+00  1.60000000E+01
  1.00800000E+00  1.00800000E+00  1.60000000E+01  1.00800000E+00  1.00800000E+00
  1.60000000E+01  1.00800000E+00  1.00800000E+00  1.60000000E+01  1.00800000E+00
  1.00800000E+00  1.60000000E+01  1.00800000E+00  1.00800000E+00  1.60000000E+01
  1.00800000E+00  1.00800000E+00  1.60000000E+01  1.00800000E+00  1.00800000E+00
  1.60000000E+01  1.00800000E+00  1.00800000E+00  1.60000000E+01  1.00800000E+00
  1.00800000E+00  1.60000000E+01  1.00800000E+00  1.00800000E+00  1.60000000E+01
  1.00800000E+00  1.00800000E+00  1.60000000E+01  1.00800000E+00  1.00800000E+00
  1.60000000E+01  1.00800000E+00  1.00800000E+00  1.60000000E+01  1.00800000E+00
  1.00800000E+00  1.60000000E+01  1.00800000E+00  1.00800000E+00  1.60000000E+01
  1.00800000E+00  1.00800000E+00  1.60000000E+01  1.00800000E+00  1.00800000E+00
  1.60000000E+01  1.00800000E+00  1.00800000E+00  1.60000000E+01  1.00800000E+00
  1.00800000E+00  1.60000000E+01  1.00800000E+00  1.00800000E+00  1.60000000E+01
  1.00800000E+00  1.00800000E+00  1.60000000E+01  1.00800000E+00  1.00800000E+00
  1.60000000E+01  1.00800000E+00  1.00800000E+00  1.60000000E+01  1.00800000E+00
  1.00800000E+00  1.60000000E+01  1.00800000E+00  1.00800000E+00  1.60000000E+01
  1.00800000E+00  1.00800000E+00  1.60000000E+01  1.00800000E+00  1.00800000E+00
  1.60000000E+01  1.00800000E+00  1.00800000E+00  1.60000000E+01  1.00800000E+00
  1.00800000E+00  1.60000000E+01  1.00800000E+00  1.00800000E+00  1.60000000E+01
  1.00800000E+00  1.00800000E+00  1.60000000E+01  1.00800000E+00  1.00800000E+00
  1.60000000E+01  1.00800000E+00  1.00800000E+00  1.60000000E+01  1.00800000E+00
  1.00800000E+00  1.60000000E+01  1.00800000E+00  1.00800000E+00  1.60000000E+01
  1.00800000E+00  1.00800000E+00  1.60000000E+01  1.00800000E+00  1.00800000E+00
  1.60000000E+01  1.00800000E+00  1.00800000E+00  1.60000000E+01  1.00800000E+00
  1.00800000E+00  1.60000000E+01  1.00800000E+00  1.00800000E+00  1.60000000E+01
  1.00800000E+00  1.00800000E+00  1.60000000E+01  1.00800000E+00  1.00800000E+00
  1.60000000E+01  1.00800000E+00  1.00800000E+00  1.60000000E+01  1.00800000E+00
  1.00800000E+00  1.60000000E+01  1.00800000E+00  1.00800000E+00  1.60000000E+01
  1.00800000E+00  1.00800000E+00  1.60000000E+01  1.00800000E+00  1.00800000E+00
  1.60000000E+01  1.00800000E+00  1.00800000E+00  1.60000000E+01  1.00800000E+00
  1.00800000E+00  1.60000000E+01  1.00800000E+00  1.00800000E+00  1.60000000E+01
  1.00800000E+00  1.00800000E+00  1.60000000E+01  1.00800000E+00  1.00800000E+00
  1.60000000E+01  1.00800000E+00  1.00800000E+00  1.60000000E+01  1.00800000E+00
  1.00800000E+00  1.60000000E+01  1.00800000E+00  1.00800000E+00  1.60000000E+01
  1.00800000E+00  1.00800000E+00  1.60000000E+01  1.00800000E+00  1.00800000E+00
  1.60000000E+01  1.00800000E+00  1.00800000E+00  1.60000000E+01  1.00800000E+00
  1.00800000E+00  1.60000000E+01  1.00800000E+00  1.00800000E+00  1.60000000E+01
  1.00800000E+00  1.00800000E+00  1.60000000E+01  1.00800000E+00  1.00800000E+00
  1.60000000E+01  1.00800000E+00  1.00800000E+00  1.60000000E+01  1.00800000E+00
  1.00800000E+00  1.60000000E+01  1.00800000E+00  1.00800000E+00  1.60000000E+01
  1.00800000E+00  1.00800000E+00  1.60000000E+01  1.00800000E+00  1.00800000E+00
  1.60000000E+01  1.00800000E+00  1.00800000E+00  1.60000000E+01  1.00800000E+00
  1.00800000E+00  1.60000000E+01  1.00800000E+00  1.00800000E+00  1.60000000E+01
  1.00800000E+00  1.00800000E+00  1.60000000E+01  1.00800000E+00  1.00800000E+00
  1.60000000E+01  1.00800000E+00  1.00800000E+00  1.60000000E+01  1.00800000E+00
  1.00800000E+00  1.60000000E+01  1.00800000E+00  1.00800000E+00  1.60000000E+01
  1.00800000E+00  1.00800000E+00  1.60000000E+01  1.00800000E+00  1.00800000E+00
  1.60000000E+01  1.00800000E+00  1.00800000E+00  1.60000000E+01  1.00800000E+00
  1.00800000E+00  1.60000000E+01  1.00800000E+00  1.00800000E+00  1.60000000E+01
  1.00800000E+00  1.00800000E+00  1.60000000E+01  1.00800000E+00  1.00800000E+00
  1.60000000E+01  1.00800000E+00  1.00800000E+00  1.60000000E+01  1.00800000E+00
  1.00800000E+00  1.60000000E+01  1.00800000E+00  1.00800000E+00  1.60000000E+01
  1.00800000E+00  1.00800000E+00  1.60000000E+01  1.00800000E+00  1.00800000E+00
  1.60000000E+01  1.00800000E+00  1.00800000E+00  1.60000000E+01  1.00800000E+00
  1.00800000E+00  1.60000000E+01  1.00800000E+00  1.00800000E+00  1.60000000E+01
  1.00800000E+00  1.00800000E+00  1.60000000E+01  1.00800000E+00  1.00800000E+00
  1.60000000E+01  1.00800000E+00  1.00800000E+00  1.60000000E+01  1.00800000E+00
  1.00800000E+00  1.60000000E+01  1.00800000E+00  1.00800000E+00  1.60000000E+01
  1.00800000E+00  1.00800000E+00  1.60000000E+01  1.00800000E+00  1.00800000E+00
  1.60000000E+01  1.00800000E+00  1.00800000E+00  1.60000000E+01  1.00800000E+00
  1.00800000E+00  1.60000000E+01  1.00800000E+00  1.00800000E+00  1.60000000E+01
  1.00800000E+00  1.00800000E+00  1.60000000E+01  1.00800000E+00  1.00800000E+00
  1.60000000E+01  1.00800000E+00  1.00800000E+00  1.60000000E+01  1.00800000E+00
  1.00800000E+00  1.60000000E+01  1.00800000E+00  1.00800000E+00  1.60000000E+01
  1.00800000E+00  1.00800000E+00  1.60000000E+01  1.00800000E+00  1.00800000E+00
  1.60000000E+01  1.00800000E+00  1.00800000E+00  1.60000000E+01  1.00800000E+00
  1.00800000E+00  1.60000000E+01  1.00800000E+00  1.00800000E+00  1.60000000E+01
  1.00800000E+00  1.00800000E+00  1.60000000E+01  1.00800000E+00  1.00800000E+00
  1.60000000E+01  1.00800000E+00  1.00800000E+00  1.60000000E+01  1.00800000E+00
  1.00800000E+00  1.60000000E+01  1.00800000E+00  1.00800000E+00  1.60000000E+01
  1.00800000E+00  1.00800000E+00  1.60000000E+01  1.00800000E+00  1.00800000E+00
  1.60000000E+01  1.00800000E+00  1.00800000E+00  1.60000000E+01  1.00800000E+00
  1.00800000E+00  1.60000000E+01  1.00800000E+00  1.00800000E+00  1.60000000E+01
  1.00800000E+00  1.00800000E+00  1.60000000E+01  1.00800000E+00  1.00800000E+00
  1.60000000E+01  1.00800000E+00  1.00800000E+00  1.60000000E+01  1.00800000E+00
  1.00800000E+00  1.60000000E+01  1.00800000E+00  1.00800000E+00  1.60000000E+01
  1.00800000E+00  1.00800000E+00  1.60000000E+01  1.00800000E+00  1.00800000E+00
  1.60000000E+01  1.00800000E+00  1.00800000E+00  1.60000000E+01  1.00800000E+00
  1.00800000E+00  1.60000000E+01  1.00800000E+00  1.00800000E+00  1.60000000E+01
  1.00800000E+00  1.00800000E+00  1.60000000E+01  1.00800000E+00  1.00800000E+00
  1.60000000E+01  1.00800000E+00  1.00800000E+00  1.60000000E+01  1.00800000E+00
  1.00800000E+00  1.60000000E+01  1.00800000E+00  1.00800000E+00  1.60000000E+01
  1.00800000E+00  1.00800000E+00  1.60000000E+01  1.00800000E+00  1.00800000E+00
  1.60000000E+01  1.00800000E+00  1.00800000E+00  1.60000000E+01  1.00800000E+00
  1.00800000E+00  1.60000000E+01  1.00800000E+00  1.00800000E+00  1.60000000E+01
  1.00800000E+00  1.00800000E+00  1.60000000E+01  1.00800000E+00  1.00800000E+00
  1.60000000E+01  1.00800000E+00  1.00800000E+00  1.60000000E+01  1.00800000E+00
  1.00800000E+00  1.60000000E+01  1.00800000E+00  1.00800000E+00  1.60000000E+01
  1.00800000E+00  1.00800000E+00  1.60000000E+01  1.00800000E+00  1.00800000E+00
  1.60000000E+01  1.00800000E+00  1.00800000E+00  1.60000000E+01  1.00800000E+00
  1.00800000E+00  1.60000000E+01  1.00800000E+00  1.00800000E+00  1.60000000E+01
  1.00800000E+00  1.00800000E+00  1.60000000E+01  1.00800000E+00  1.00800000E+00
  1.60000000E+01  1.00800000E+00  1.00800000E+00  1.60000000E+01  1.00800000E+00
  1.00800000E+00  1.60000000E+01  1.00800000E+00  1.00800000E+00  1.60000000E+01
  1.00800000E+00  1.00800000E+00  1.60000000E+01  1.00800000E+00  1.00800000E+00
  1.60000000E+01  1.00800000E+00  1.00800000E+00  1.60000000E+01  1.00800000E+00
  1.00800000E+00  1.60000000E+01  1.00800000E+00  1.00800000E+00  1.60000000E+01
  1.00800000E+00  1.00800000E+00  1.60000000E+01  1.00800000E+00  1.00800000E+00
  1.60000000E+01  1.00800000E+00  1.00800000E+00  1.60000000E+01  1.00800000E+00
  1.00800000E+00  1.60000000E+01  1.00800000E+00  1.00800000E+00  1.60000000E+01
  1.00800000E+00  1.00800000E+00  1.60000000E+01  1.00800000E+00  1.00800000E+00
  1.60000000E+01  1.00800000E+00  1.00800000E+00  1.60000000E+01  1.00800000E+00
  1.00800000E+00  1.60000000E+01  1.00800000E+00  1.00800000E+00  1.60000000E+01
  1.00800000E+00  1.00800000E+00  1.60000000E+01  1.00800000E+00  1.00800000E+00
  1.60000000E+01  1.00800000E+00  1.00800000E+00  1.60000000E+01  1.00800000E+00
  1.00800000E+00  1.60000000E+01  1.00800000E+00  1.00800000E+00  1.60000000E+01
  1.00800000E+00  1.00800000E+00  1.60000000E+01  1.00800000E+00  1.00800000E+00
  1.60000000E+01  1.00800000E+00  1.00800000E+00  1.60000000E+01  1.00800000E+00
  1.00800000E+00  1.60000000E+01  1.00800000E+00  1.00800000E+00  1.60000000E+01
  1.00800000E+00  1.00800000E+00  1.60000000E+01  1.00800000E+00  1.00800000E+00
  1.60000000E+01  1.00800000E+00  1.00800000E+00  1.60000000E+01  1.00800000E+00
  1.00800000E+00  1.60000000E+01  1.00800000E+00  1.00800000E+00  1.60000000E+01
  1.00800000E+00  1.00800000E+00  1.60000000E+01  1.00800000E+00  1.00800000E+00
  1.60000000E+01  1.00800000E+00  1.00800000E+00  1.60000000E+01  1.00800000E+00
  1.00800000E+00  1.60000000E+01  1.00800000E+00  1.00800000E+00  1.60000000E+01
  1.00800000E+00  1.00800000E+00  1.60000000E+01  1.00800000E+00  1.00800000E+00
  1.60000000E+01  1.00800000E+00  1.00800000E+00  1.60000000E+01  1.00800000E+00
  1.00800000E+00  1.60000000E+01  1.00800000E+00  1.00800000E+00  1.60000000E+01
  1.00800000E+00  1.00800000E+00  1.60000000E+01  1.00800000E+00  1.00800000E+00
  1.60000000E+01  1.00800000E+00  1.00800000E+00  1.60000000E+01  1.00800000E+00
  1.00800000E+00  1.60000000E+01  1.00800000E+00  1.00800000E+00  1.60000000E+01
  1.00800000E+00  1.00800000E+00  1.60000000E+01  1.00800000E+00  1.00800000E+00
  1.60000000E+01  1.00800000E+00  1.00800000E+00  1.60000000E+01  1.00800000E+00
  1.00800000E+00  1.60000000E+01  1.00800000E+00  1.00800000E+00  1.60000000E+01
  1.00800000E+00  1.00800000E+00  1.60000000E+01  1.00800000E+00  1.00800000E+00
  1.60000000E+01  1.00800000E+00  1.00800000E+00  1.60000000E+01  1.00800000E+00
  1.00800000E+00  1.60000000E+01  1.00800000E+00  1.00800000E+00  1.60000000E+01
  1.00800000E+00  1.00800000E+00  1.60000000E+01  1.00800000E+00  1.00800000E+00
  1.60000000E+01  1.00800000E+00  1.00800000E+00  1.60000000E+01  1.00800000E+00
  1.00800000E+00  1.60000000E+01  1.00800000E+00  1.00800000E+00  1.60000000E+01
  1.00800000E+00  1.00800000E+00  1.60000000E+01  1.00800000E+00  1.00800000E+00
  1.60000000E+01  1.00800000E+00  1.00800000E+00  1.60000000E+01  1.00800000E+00
  1.00800000E+00  1.60000000E+01  1.00800000E+00  1.00800000E+00  1.60000000E+01
  1.00800000E+00  1.00800000E+00  1.60000000E+01  1.00800000E+00  1.00800000E+00
  1.60000000E+01  1.00800000E+00  1.00800000E+00  1.60000000E+01  1.00800000E+00
  1.00800000E+00  1.60000000E+01  1.00800000E+00  1.00800000E+00  1.60000000E+01
  1.00800000E+00  1.00800000E+00  1.60000000E+01  1.00800000E+00  1.00800000E+00
  1.60000000E+01  1.00800000E+00  1.00800000E+00  1.60000000E+01  1.00800000E+00
  1.00800000E+00  1.60000000E+01  1.00800000E+00  1.00800000E+00  1.60000000E+01
  1.00800000E+00  1.00800000E+00  1.60000000E+01  1.00800000E+00  1.00800000E+00
  1.60000000E+01  1.00800000E+00  1.00800000E+00  1.60000000E+01  1.00800000E+00
  1.00800000E+00  1.60000000E+01  1.00800000E+00  1.00800000E+00  1.60000000E+01
  1.00800000E+00  1.00800000E+00  1.60000000E+01  1.00800000E+00  1.00800000E+00
  1.60000000E+01  1.00800000E+00  1.00800000E+00  1.60000000E+01  1.00800000E+00
  1.00800000E+00  1.60000000E+01  1.00800000E+00  1.00800000E+00  1.60000000E+01
  1.00800000E+00  1.00800000E+00  1.60000000E+01  1.00800000E+00  1.00800000E+00
  1.60000000E+01  1.00800000E+00  1.00800000E+00  1.60000000E+01  1.00800000E+00
  1.00800000E+00  1.60000000E+01  1.00800000E+00  1.00800000E+00  1.60000000E+01
  1.00800000E+00  1.00800000E+00  1.60000000E+01  1.00800000E+00  1.00800000E+00
  1.60000000E+01  1.00800000E+00  1.00800000E+00  1.60000000E+01  1.00800000E+00
  1.00800000E+00  1.60000000E+01  1.00800000E+00  1.00800000E+00  1.60000000E+01
  1.00800000E+00  1.00800000E+00  1.60000000E+01  1.00800000E+00  1.00800000E+00
  1.60000000E+01  1.00800000E+00  1.00800000E+00  1.60000000E+01  1.00800000E+00
  1.00800000E+00  1.60000000E+01  1.00800000E+00  1.00800000E+00  1.60000000E+01
  1.00800000E+00  1.00800000E+00  1.60000000E+01  1.00800000E+00  1.00800000E+00
  1.60000000E+01  1.00800000E+00  1.00800000E+00  1.60000000E+01  1.00800000E+00
  1.00800000E+00  1.60000000E+01  1.00800000E+00  1.00800000E+00  1.60000000E+01
  1.00800000E+00  1.00800000E+00  1.60000000E+01  1.00800000E+00  1.00800000E+00
  1.60000000E+01  1.00800000E+00  1.00800000E+00  1.60000000E+01  1.00800000E+00
  1.00800000E+00  1.60000000E+01  1.00800000E+00  1.00800000E+00  1.60000000E+01
  1.00800000E+00  1.00800000E+00  1.60000000E+01  1.00800000E+00  1.00800000E+00
  1.60000000E+01  1.00800000E+00  1.00800000E+00  1.60000000E+01  1.00800000E+00
  1.00800000E+00  1.60000000E+01  1.00800000E+00  1.00800000E+00  1.60000000E+01
  1.00800000E+00  1.00800000E+00  1.60000000E+01  1.00800000E+00  1.00800000E+00
  1.60000000E+01  1.00800000E+00  1.00800000E+00  1.60000000E+01  1.00800000E+00
  1.00800000E+00  1.60000000E+01  1.00800000E+00  1.00800000E+00  1.60000000E+01
  1.00800000E+00  1.00800000E+00  1.60000000E+01  1.00800000E+00  1.00800000E+00
  1.60000000E+01  1.00800000E+00  1.00800000E+00  1.60000000E+01  1.00800000E+00
  1.00800000E+00  1.60000000E+01  1.00800000E+00  1.00800000E+00  1.60000000E+01
  1.00800000E+00  1.00800000E+00  1.60000000E+01  1.00800000E+00  1.00800000E+00
  1.60000000E+01  1.00800000E+00  1.00800000E+00  1.60000000E+01  1.00800000E+00
  1.00800000E+00  1.60000000E+01  1.00800000E+00  1.00800000E+00  1.60000000E+01
  1.00800000E+00  1.00800000E+00  1.60000000E+01  1.00800000E+00  1.00800000E+00
  1.60000000E+01  1.00800000E+00  1.00800000E+00  1.60000000E+01  1.00800000E+00
  1.00800000E+00  1.60000000E+01  1.00800000E+00  1.00800000E+00  1.60000000E+01
  1.00800000E+00  1.00800000E+00  1.60000000E+01  1.00800000E+00  1.00800000E+00
  1.60000000E+01  1.00800000E+00  1.00800000E+00  1.60000000E+01  1.00800000E+00
  1.00800000E+00  1.60000000E+01  1.00800000E+00  1.00800000E+00  1.60000000E+01
  1.00800000E+00  1.00800000E+00  1.60000000E+01  1.00800000E+00  1.00800000E+00
  1.60000000E+01  1.00800000E+00  1.00800000E+00  1.60000000E+01  1.00800000E+00
  1.00800000E+00  1.60000000E+01  1.00800000E+00  1.00800000E+00  1.60000000E+01
  1.00800000E+00  1.00800000E+00  1.60000000E+01  1.00800000E+00  1.00800000E+00
  1.60000000E+01  1.00800000E+00  1.00800000E+00  1.60000000E+01  1.00800000E+00
  1.00800000E+00  1.60000000E+01  1.00800000E+00  1.00800000E+00  1.60000000E+01
  1.00800000E+00  1.00800000E+00  1.60000000E+01  1.00800000E+00  1.00800000E+00
  1.60000000E+01  1.00800000E+00  1.00800000E+00  1.60000000E+01  1.00800000E+00
  1.00800000E+00  1.60000000E+01  1.00800000E+00  1.00800000E+00  1.60000000E+01
  1.00800000E+00  1.00800000E+00  1.60000000E+01  1.00800000E+00  1.00800000E+00
  1.60000000E+01  1.00800000E+00  1.00800000E+00  1.60000000E+01  1.00800000E+00
  1.00800000E+00  1.60000000E+01  1.00800000E+00  1.00800000E+00  1.60000000E+01
  1.00800000E+00  1.00800000E+00  1.60000000E+01  1.00800000E+00  1.00800000E+00
  1.60000000E+01  1.00800000E+00  1.00800000E+00  1.60000000E+01  1.00800000E+00
  1.00800000E+00  1.60000000E+01  1.00800000E+00  1.00800000E+00  1.60000000E+01
  1.00800000E+00  1.00800000E+00  1.60000000E+01  1.00800000E+00  1.00800000E+00
  1.60000000E+01  1.00800000E+00  1.00800000E+00  1.60000000E+01  1.00800000E+00
  1.00800000E+00  1.60000000E+01  1.00800000E+00  1.00800000E+00  1.60000000E+01
  1.00800000E+00  1.00800000E+00  1.60000000E+01  1.00800000E+00  1.00800000E+00
  1.60000000E+01  1.00800000E+00  1.00800000E+00  1.60000000E+01  1.00800000E+00
  1.00800000E+00  1.60000000E+01  1.00800000E+00  1.00800000E+00  1.60000000E+01
  1.00800000E+00  1.00800000E+00  1.60000000E+01  1.00800000E+00  1.00800000E+00
  1.60000000E+01  1.00800000E+00  1.00800000E+00  1.60000000E+01  1.00800000E+00
  1.00800000E+00  1.60000000E+01  1.00800000E+00  1.00800000E+00  1.60000000E+01
  1.00800000E+00  1.00800000E+00  1.60000000E+01  1.00800000E+00  1.00800000E+00
  1.60000000E+01  1.00800000E+00  1.00800000E+00  1.60000000E+01  1.00800000E+00
  1.00800000E+00  1.60000000E+01  1.00800000E+00  1.00800000E+00  1.60000000E+01
  1.00800000E+00  1.00800000E+00  1.60000000E+01  1.00800000E+00  1.00800000E+00
  1.60000000E+01  1.00800000E+00  1.00800000E+00  1.60000000E+01  1.00800000E+00
  1.00800000E+00  1.60000000E+01  1.00800000E+00  1.00800000E+00  1.60000000E+01
  1.00800000E+00  1.00800000E+00  1.60000000E+01  1.00800000E+00  1.00800000E+00
  1.60000000E+01  1.00800000E+00  1.00800000E+00  1.60000000E+01  1.00800000E+00
  1.00800000E+00  1.60000000E+01  1.00800000E+00  1.00800000E+00  1.60000000E+01
  1.00800000E+00  1.00800000E+00  1.60000000E+01  1.00800000E+00  1.00800000E+00
  1.60000000E+01  1.00800000E+00  1.00800000E+00  1.60000000E+01  1.00800000E+00
  1.00800000E+00  1.60000000E+01  1.00800000E+00  1.00800000E+00  1.60000000E+01
  1.00800000E+00  1.00800000E+00  1.60000000E+01  1.00800000E+00  1.00800000E+00
  1.60000000E+01  1.00800000E+00  1.00800000E+00  1.60000000E+01  1.00800000E+00
  1.00800000E+00  1.60000000E+01  1.00800000E+00  1.00800000E+00  1.60000000E+01
  1.00800000E+00  1.00800000E+00  1.60000000E+01  1.00800000E+00  1.00800000E+00
  1.60000000E+01  1.00800000E+00  1.00800000E+00  1.60000000E+01  1.00800000E+00
  1.00800000E+00  1.60000000E+01  1.00800000E+00  1.00800000E+00  1.60000000E+01
  1.00800000E+00  1.00800000E+00  1.60000000E+01  1.00800000E+00  1.00800000E+00
  1.60000000E+01  1.00800000E+00  1.00800000E+00  1.60000000E+01  1.00800000E+00
  1.00800000E+00  1.60000000E+01  1.00800000E+00  1.00800000E+00  1.60000000E+01
  1.00800000E+00  1.00800000E+00  1.60000000E+01  1.00800000E+00  1.00800000E+00
  1.60000000E+01  1.00800000E+00  1.00800000E+00  1.60000000E+01  1.00800000E+00
  1.00800000E+00  1.60000000E+01  1.00800000E+00  1.00800000E+00  1.60000000E+01
  1.00800000E+00  1.00800000E+00  1.60000000E+01  1.00800000E+00  1.00800000E+00
  1.60000000E+01  1.00800000E+00  1.00800000E+00  1.60000000E+01  1.00800000E+00
  1.00800000E+00  1.60000000E+01  1.00800000E+00  1.00800000E+00  1.60000000E+01
  1.00800000E+00  1.00800000E+00  1.60000000E+01  1.00800000E+00  1.00800000E+00
  1.60000000E+01  1.00800000E+00  1.00800000E+00  1.60000000E+01  1.00800000E+00
  1.00800000E+00  1.60000000E+01  1.00800000E+00  1.00800000E+00  1.60000000E+01
  1.00800000E+00  1.00800000E+00  1.60000000E+01  1.00800000E+00  1.00800000E+00
  1.60000000E+01  1.00800000E+00  1.00800000E+00  1.60000000E+01  1.00800000E+00
  1.00800000E+00  1.60000000E+01  1.00800000E+00  1.00800000E+00  1.60000000E+01
  1.00800000E+00  1.00800000E+00  1.60000000E+01  1.00800000E+00  1.00800000E+00
  1.60000000E+01  1.00800000E+00  1.00800000E+00  1.60000000E+01  1.00800000E+00
  1.00800000E+00  1.60000000E+01  1.00800000E+00  1.00800000E+00  1.60000000E+01
  1.00800000E+00  1.00800000E+00  1.60000000E+01  1.00800000E+00  1.00800000E+00
  1.60000000E+01  1.00800000E+00  1.00800000E+00  1.60000000E+01  1.00800000E+00
  1.00800000E+00  1.60000000E+01  1.00800000E+00  1.00800000E+00  1.60000000E+01
  1.00800000E+00  1.00800000E+00  1.60000000E+01  1.00800000E+00  1.00800000E+00
  1.60000000E+01  1.00800000E+00  1.00800000E+00  1.60000000E+01  1.00800000E+00
  1.00800000E+00  1.60000000E+01  1.00800000E+00  1.00800000E+00  1.60000000E+01
  1.00800000E+00  1.00800000E+00  1.60000000E+01  1.00800000E+00  1.00800000E+00
  1.60000000E+01  1.00800000E+00  1.00800000E+00  1.60000000E+01  1.00800000E+00
  1.00800000E+00  1.60000000E+01  1.00800000E+00  1.00800000E+00  1.60000000E+01
  1.00800000E+00  1.00800000E+00  1.60000000E+01  1.00800000E+00  1.00800000E+00
  1.60000000E+01  1.00800000E+00  1.00800000E+00  1.60000000E+01  1.00800000E+00
  1.00800000E+00  1.60000000E+01  1.00800000E+00  1.00800000E+00  1.60000000E+01
  1.00800000E+00  1.00800000E+00  1.60000000E+01  1.00800000E+00  1.00800000E+00
  1.60000000E+01  1.00800000E+00  1.00800000E+00  1.60000000E+01  1.00800000E+00
  1.00800000E+00  1.60000000E+01  1.00800000E+00  1.00800000E+00  1.60000000E+01
  1.00800000E+00  1.00800000E+00  1.60000000E+01  1.00800000E+00  1.00800000E+00
  1.60000000E+01  1.00800000E+00  1.00800000E+00  1.60000000E+01  1.00800000E+00
  1.00800000E+00  1.60000000E+01  1.00800000E+00  1.00800000E+00  1.60000000E+01
  1.00800000E+00  1.00800000E+00  1.60000000E+01  1.00800000E+00  1.00800000E+00
  1.60000000E+01  1.00800000E+00  1.00800000E+00  1.60000000E+01  1.00800000E+00
  1.00800000E+00  1.60000000E+01  1.00800000E+00  1.00800000E+00  1.60000000E+01
  1.00800000E+00  1.00800000E+00  1.60000000E+01  1.00800000E+00  1.00800000E+00
  1.60000000E+01  1.00800000E+00  1.00800000E+00  1.60000000E+01  1.00800000E+00
  1.00800000E+00  1.60000000E+01  1.00800000E+00  1.00800000E+00  1.60000000E+01
  1.00800000E+00  1.00800000E+00  1.60000000E+01  1.00800000E+00  1.00800000E+00
  1.60000000E+01  1.00800000E+00  1.00800000E+00  1.60000000E+01  1.00800000E+00
  1.00800000E+00  1.60000000E+01  1.00800000E+00  1.00800000E+00  1.60000000E+01
  1.00800000E+00  1.00800000E+00  1.60000000E+01  1.00800000E+00  1.00800000E+00
  1.60000000E+01  1.00800000E+00  1.00800000E+00  1.60000000E+01  1.00800000E+00
  1.00800000E+00  1.60000000E+01  1.00800000E+00  1.00800000E+00  1.60000000E+01
  1.00800000E+00  1.00800000E+00  1.60000000E+01  1.00800000E+00  1.00800000E+00
  1.60000000E+01  1.00800000E+00  1.00800000E+00  1.60000000E+01  1.00800000E+00
  1.00800000E+00  1.60000000E+01  1.00800000E+00  1.00800000E+00  1.60000000E+01
  1.00800000E+00  1.00800000E+00  1.60000000E+01  1.00800000E+00  1.00800000E+00
  1.60000000E+01  1.00800000E+00  1.00800000E+00  1.60000000E+01  1.00800000E+00
  1.00800000E+00  1.60000000E+01  1.00800000E+00  1.00800000E+00  1.60000000E+01
  1.00800000E+00  1.00800000E+00  1.60000000E+01  1.00800000E+00  1.00800000E+00
  1.60000000E+01  1.00800000E+00  1.00800000E+00  1.60000000E+01  1.00800000E+00
  1.00800000E+00  1.60000000E+01  1.00800000E+00  1.00800000E+00  1.60000000E+01
  1.00800000E+00  1.00800000E+00  1.60000000E+01  1.00800000E+00  1.00800000E+00
  1.60000000E+01  1.00800000E+00  1.00800000E+00  1.60000000E+01  1.00800000E+00
  1.00800000E+00  1.60000000E+01  1.00800000E+00  1.00800000E+00  1.60000000E+01
  1.00800000E+00  1.00800000E+00  1.60000000E+01  1.00800000E+00  1.00800000E+00
  1.60000000E+01  1.00800000E+00  1.00800000E+00  1.60000000E+01  1.00800000E+00
  1.00800000E+00  1.60000000E+01  1.00800000E+00  1.00800000E+00  1.60000000E+01
  1.00800000E+00  1.00800000E+00  1.60000000E+01  1.00800000E+00  1.00800000E+00
  1.60000000E+01  1.00800000E+00  1.00800000E+00  1.60000000E+01  1.00800000E+00
  1.00800000E+00  1.60000000E+01  1.00800000E+00  1.00800000E+00  1.60000000E+01
  1.00800000E+00  1.00800000E+00  1.60000000E+01  1.00800000E+00  1.00800000E+00
  1.60000000E+01  1.00800000E+00  1.00800000E+00  1.60000000E+01  1.00800000E+00
  1.00800000E+00  1.60000000E+01  1.00800000E+00  1.00800000E+00  1.60000000E+01
  1.00800000E+00  1.00800000E+00  1.60000000E+01  1.00800000E+00  1.00800000E+00
  1.60000000E+01  1.00800000E+00  1.00800000E+00  1.60000000E+01  1.00800000E+00
  1.00800000E+00  1.60000000E+01  1.00800000E+00  1.00800000E+00  1.60000000E+01
  1.00800000E+00  1.00800000E+00  1.60000000E+01  1.00800000E+00  1.00800000E+00
  1.60000000E+01  1.00800000E+00  1.00800000E+00  1.60000000E+01  1.00800000E+00
  1.00800000E+00  1.60000000E+01  1.00800000E+00  1.00800000E+00  1.60000000E+01
  1.00800000E+00  1.00800000E+00  1.60000000E+01  1.00800000E+00  1.00800000E+00
  1.60000000E+01  1.00800000E+00  1.00800000E+00  1.60000000E+01  1.00800000E+00
  1.00800000E+00  1.60000000E+01  1.00800000E+00  1.00800000E+00  1.60000000E+01
  1.00800000E+00  1.00800000E+00  1.60000000E+01  1.00800000E+00  1.00800000E+00
  1.60000000E+01  1.00800000E+00  1.00800000E+00  1.60000000E+01  1.00800000E+00
  1.00800000E+00  1.60000000E+01  1.00800000E+00  1.00800000E+00  1.60000000E+01
  1.00800000E+00  1.00800000E+00  1.60000000E+01  1.00800000E+00  1.00800000E+00
  1.60000000E+01  1.00800000E+00  1.00800000E+00  1.60000000E+01  1.00800000E+00
  1.00800000E+00  1.60000000E+01  1.00800000E+00  1.00800000E+00  1.60000000E+01
  1.00800000E+00  1.00800000E+00  1.60000000E+01  1.00800000E+00  1.00800000E+00
  1.60000000E+01  1.00800000E+00  1.00800000E+00  1.60000000E+01  1.00800000E+00
  1.00800000E+00  1.60000000E+01  1.00800000E+00  1.00800000E+00  1.60000000E+01
  1.00800000E+00  1.00800000E+00  1.60000000E+01  1.00800000E+00  1.00800000E+00
  1.60000000E+01  1.00800000E+00  1.00800000E+00  1.60000000E+01  1.00800000E+00
  1.00800000E+00  1.60000000E+01  1.00800000E+00  1.00800000E+00  1.60000000E+01
  1.00800000E+00  1.00800000E+00  1.60000000E+01  1.00800000E+00  1.00800000E+00
  1.60000000E+01  1.00800000E+00  1.00800000E+00  1.60000000E+01  1.00800000E+00
  1.00800000E+00  1.60000000E+01  1.00800000E+00  1.00800000E+00  1.60000000E+01
  1.00800000E+00  1.00800000E+00  1.60000000E+01  1.00800000E+00  1.00800000E+00
  1.60000000E+01  1.00800000E+00  1.00800000E+00  1.60000000E+01  1.00800000E+00
  1.00800000E+00  1.60000000E+01  1.00800000E+00  1.00800000E+00  1.60000000E+01
  1.00800000E+00  1.00800000E+00  1.60000000E+01  1.00800000E+00  1.00800000E+00
  1.60000000E+01  1.00800000E+00  1.00800000E+00  1.60000000E+01  1.00800000E+00
  1.00800000E+00  1.60000000E+01  1.00800000E+00  1.00800000E+00  1.60000000E+01
  1.00800000E+00  1.00800000E+00  1.60000000E+01  1.00800000E+00  1.00800000E+00
  1.60000000E+01  1.00800000E+00  1.00800000E+00  1.60000000E+01  1.00800000E+00
  1.00800000E+00  1.60000000E+01  1.00800000E+00  1.00800000E+00  1.60000000E+01
  1.00800000E+00  1.00800000E+00  1.60000000E+01  1.00800000E+00  1.00800000E+00
  1.60000000E+01  1.00800000E+00  1.00800000E+00  1.60000000E+01  1.00800000E+00
  1.00800000E+00  1.60000000E+01  1.00800000E+00  1.00800000E+00  1.60000000E+01
  1.00800000E+00  1.00800000E+00  1.60000000E+01  1.00800000E+00  1.00800000E+00
  1.60000000E+01  1.00800000E+00  1.00800000E+00  1.60000000E+01  1.00800000E+00
  1.00800000E+00  1.60000000E+01  1.00800000E+00  1.00800000E+00  1.60000000E+01
  1.00800000E+00  1.00800000E+00  1.60000000E+01  1.00800000E+00  1.00800000E+00
  1.60000000E+01  1.00800000E+00  1.00800000E+00  1.60000000E+01  1.00800000E+00
  1.00800000E+00  1.60000000E+01  1.00800000E+00  1.00800000E+00  1.60000000E+01
  1.00800000E+00  1.00800000E+00  1.60000000E+01  1.00800000E+00  1.00800000E+00
  1.60000000E+01  1.00800000E+00  1.00800000E+00  1.60000000E+01  1.00800000E+00
  1.00800000E+00  1.60000000E+01  1.00800000E+00  1.00800000E+00  1.60000000E+01
  1.00800000E+00  1.00800000E+00  1.60000000E+01  1.00800000E+00  1.00800000E+00
  1.60000000E+01  1.00800000E+00  1.00800000E+00  1.60000000E+01  1.00800000E+00
  1.00800000E+00  1.60000000E+01  1.00800000E+00  1.00800000E+00  1.60000000E+01
  1.00800000E+00  1.00800000E+00  1.60000000E+01  1.00800000E+00  1.00800000E+00
  1.60000000E+01  1.00800000E+00  1.00800000E+00  1.60000000E+01  1.00800000E+00
  1.00800000E+00  1.60000000E+01  1.00800000E+00  1.00800000E+00  1.60000000E+01
  1.00800000E+00  1.00800000E+00  1.60000000E+01  1.00800000E+00  1.00800000E+00
  1.60000000E+01  1.00800000E+00  1.00800000E+00  1.60000000E+01  1.00800000E+00
  1.00800000E+00  1.60000000E+01  1.00800000E+00  1.00800000E+00  1.60000000E+01
  1.00800000E+00  1.00800000E+00  1.60000000E+01  1.00800000E+00  1.00800000E+00
  1.60000000E+01  1.00800000E+00  1.00800000E+00  1.60000000E+01  1.00800000E+00
  1.00800000E+00  1.60000000E+01  1.00800000E+00  1.00800000E+00  1.60000000E+01
  1.00800000E+00  1.00800000E+00  1.60000000E+01  1.00800000E+00  1.00800000E+00
  1.60000000E+01  1.00800000E+00  1.00800000E+00  1.60000000E+01  1.00800000E+00
  1.00800000E+00  1.60000000E+01  1.00800000E+00  1.00800000E+00  1.60000000E+01
  1.00800000E+00  1.00800000E+00  1.60000000E+01  1.00800000E+00  1.00800000E+00
  1.60000000E+01  1.00800000E+00  1.00800000E+00  1.60000000E+01  1.00800000E+00
  1.00800000E+00  1.60000000E+01  1.00800000E+00  1.00800000E+00  1.60000000E+01
  1.00800000E+00  1.00800000E+00  1.60000000E+01  1.00800000E+00  1.00800000E+00
  1.60000000E+01  1.00800000E+00  1.00800000E+00  1.60000000E+01  1.00800000E+00
  1.00800000E+00  1.60000000E+01  1.00800000E+00  1.00800000E+00  1.60000000E+01
  1.00800000E+00  1.00800000E+00  1.60000000E+01  1.00800000E+00  1.00800000E+00
  1.60000000E+01  1.00800000E+00  1.00800000E+00  1.60000000E+01  1.00800000E+00
  1.00800000E+00  1.60000000E+01  1.00800000E+00  1.00800000E+00  1.60000000E+01
  1.00800000E+00  1.00800000E+00  1.60000000E+01  1.00800000E+00  1.00800000E+00
  1.60000000E+01  1.00800000E+00  1.00800000E+00  1.60000000E+01  1.00800000E+00
  1.00800000E+00  1.60000000E+01  1.00800000E+00  1.00800000E+00  1.60000000E+01
  1.00800000E+00  1.00800000E+00  1.60000000E+01  1.00800000E+00  1.00800000E+00
  1.60000000E+01  1.00800000E+00  1.00800000E+00  1.60000000E+01  1.00800000E+00
  1.00800000E+00  1.60000000E+01  1.00800000E+00  1.00800000E+00  1.60000000E+01
  1.00800000E+00  1.00800000E+00  1.60000000E+01  1.00800000E+00  1.00800000E+00
  1.60000000E+01  1.00800000E+00  1.00800000E+00  1.60000000E+01  1.00800000E+00
  1.00800000E+00  1.60000000E+01  1.00800000E+00  1.00800000E+00  1.60000000E+01
  1.00800000E+00  1.00800000E+00  1.60000000E+01  1.00800000E+00  1.00800000E+00
  1.60000000E+01  1.00800000E+00  1.00800000E+00  1.60000000E+01  1.00800000E+00
  1.00800000E+00  1.60000000E+01  1.00800000E+00  1.00800000E+00  1.60000000E+01
  1.00800000E+00  1.00800000E+00  1.60000000E+01  1.00800000E+00  1.00800000E+00
  1.60000000E+01  1.00800000E+00  1.00800000E+00  1.60000000E+01  1.00800000E+00
  1.00800000E+00  1.60000000E+01  1.00800000E+00  1.00800000E+00  1.60000000E+01
  1.00800000E+00  1.00800000E+00  1.60000000E+01  1.00800000E+00  1.00800000E+00
  1.60000000E+01  1.00800000E+00  1.00800000E+00  1.60000000E+01  1.00800000E+00
  1.00800000E+00  1.60000000E+01  1.00800000E+00  1.00800000E+00  1.60000000E+01
  1.00800000E+00  1.00800000E+00  1.60000000E+01  1.00800000E+00  1.00800000E+00
  1.60000000E+01  1.00800000E+00  1.00800000E+00  1.60000000E+01  1.00800000E+00
  1.00800000E+00  1.60000000E+01  1.00800000E+00  1.00800000E+00  1.60000000E+01
  1.00800000E+00  1.00800000E+00  1.60000000E+01  1.00800000E+00  1.00800000E+00
  1.60000000E+01  1.00800000E+00  1.00800000E+00  1.60000000E+01  1.00800000E+00
  1.00800000E+00  1.60000000E+01  1.00800000E+00  1.00800000E+00  1.60000000E+01
  1.00800000E+00  1.00800000E+00  1.60000000E+01  1.00800000E+00  1.00800000E+00
  1.60000000E+01  1.00800000E+00  1.00800000E+00  1.60000000E+01  1.00800000E+00
  1.00800000E+00  1.60000000E+01  1.00800000E+00  1.00800000E+00  1.60000000E+01
  1.00800000E+00  1.00800000E+00  1.60000000E+01  1.00800000E+00  1.00800000E+00
  1.60000000E+01  1.00800000E+00  1.00800000E+00  1.60000000E+01  1.00800000E+00
  1.00800000E+00  1.60000000E+01  1.00800000E+00  1.00800000E+00  1.60000000E+01
  1.00800000E+00  1.00800000E+00  1.60000000E+01  1.00800000E+00  1.00800000E+00
  1.60000000E+01  1.00800000E+00  1.00800000E+00  1.60000000E+01  1.00800000E+00
  1.00800000E+00  1.60000000E+01  1.00800000E+00  1.00800000E+00  1.60000000E+01
  1.00800000E+00  1.00800000E+00  1.60000000E+01  1.00800000E+00  1.00800000E+00
  1.60000000E+01  1.00800000E+00  1.00800000E+00  1.60000000E+01  1.00800000E+00
  1.00800000E+00  1.60000000E+01  1.00800000E+00  1.00800000E+00  1.60000000E+01
  1.00800000E+00  1.00800000E+00  1.60000000E+01  1.00800000E+00  1.00800000E+00
  1.60000000E+01  1.00800000E+00  1.00800000E+00  1.60000000E+01  1.00800000E+00
  1.00800000E+00  1.60000000E+01  1.00800000E+00  1.00800000E+00  1.60000000E+01
  1.00800000E+00  1.00800000E+00  1.60000000E+01  1.00800000E+00  1.00800000E+00
  1.60000000E+01  1.00800000E+00  1.00800000E+00  1.60000000E+01  1.00800000E+00
  1.00800000E+00  1.60000000E+01  1.00800000E+00  1.00800000E+00  1.60000000E+01
  1.00800000E+00  1.00800000E+00  1.60000000E+01  1.00800000E+00  1.00800000E+00
  1.60000000E+01  1.00800000E+00  1.00800000E+00  1.60000000E+01  1.00800000E+00
  1.00800000E+00  1.60000000E+01  1.00800000E+00  1.00800000E+00  1.60000000E+01
  1.00800000E+00  1.00800000E+00  1.60000000E+01  1.00800000E+00  1.00800000E+00
  1.60000000E+01  1.00800000E+00  1.00800000E+00  1.60000000E+01  1.00800000E+00
  1.00800000E+00  1.60000000E+01  1.00800000E+00  1.00800000E+00  1.60000000E+01
  1.00800000E+00  1.00800000E+00  1.60000000E+01  1.00800000E+00  1.00800000E+00
  1.60000000E+01  1.00800000E+00  1.00800000E+00  1.60000000E+01  1.00800000E+00
  1.00800000E+00  1.60000000E+01  1.00800000E+00  1.00800000E+00  1.60000000E+01
  1.00800000E+00  1.00800000E+00  1.60000000E+01  1.00800000E+00  1.00800000E+00
  1.60000000E+01  1.00800000E+00  1.00800000E+00  1.60000000E+01  1.00800000E+00
  1.00800000E+00  1.60000000E+01  1.00800000E+00  1.00800000E+00  1.60000000E+01
  1.00800000E+00  1.00800000E+00  1.60000000E+01  1.00800000E+00  1.00800000E+00
  1.60000000E+01  1.00800000E+00  1.00800000E+00  1.60000000E+01  1.00800000E+00
  1.00800000E+00  1.60000000E+01  1.00800000E+00  1.00800000E+00  1.60000000E+01
  1.00800000E+00  1.00800000E+00  1.60000000E+01  1.00800000E+00  1.00800000E+00
  1.60000000E+01  1.00800000E+00  1.00800000E+00  1.60000000E+01  1.00800000E+00
  1.00800000E+00  1.60000000E+01  1.00800000E+00  1.00800000E+00  1.60000000E+01
  1.00800000E+00  1.00800000E+00  1.60000000E+01  1.00800000E+00  1.00800000E+00
  1.60000000E+01  1.00800000E+00  1.00800000E+00  1.60000000E+01  1.00800000E+00
  1.00800000E+00  1.60000000E+01  1.00800000E+00  1.00800000E+00  1.60000000E+01
  1.00800000E+00  1.00800000E+00  1.60000000E+01  1.00800000E+00  1.00800000E+00
  1.60000000E+01  1.00800000E+00  1.00800000E+00  1.60000000E+01  1.00800000E+00
  1.00800000E+00  1.60000000E+01  1.00800000E+00  1.00800000E+00  1.60000000E+01
  1.00800000E+00  1.00800000E+00  1.60000000E+01  1.00800000E+00  1.00800000E+00
  1.60000000E+01  1.00800000E+00  1.00800000E+00  1.60000000E+01  1.00800000E+00
  1.00800000E+00  1.60000000E+01  1.00800000E+00  1.00800000E+00  1.60000000E+01
  1.00800000E+00  1.00800000E+00  1.60000000E+01  1.00800000E+00  1.00800000E+00
  1.60000000E+01  1.00800000E+00  1.00800000E+00  1.60000000E+01  1.00800000E+00
  1.00800000E+00  1.60000000E+01  1.00800000E+00  1.00800000E+00  1.60000000E+01
  1.00800000E+00  1.00800000E+00  1.60000000E+01  1.00800000E+00  1.00800000E+00
  1.60000000E+01  1.00800000E+00  1.00800000E+00  1.60000000E+01  1.00800000E+00
  1.00800000E+00  1.60000000E+01  1.00800000E+00  1.00800000E+00  1.60000000E+01
  1.00800000E+00  1.00800000E+00  1.60000000E+01  1.00800000E+00  1.00800000E+00
  1.60000000E+01  1.00800000E+00  1.00800000E+00  1.60000000E+01  1.00800000E+00
  1.00800000E+00  1.60000000E+01  1.00800000E+00  1.00800000E+00  1.60000000E+01
  1.00800000E+00  1.00800000E+00  1.60000000E+01  1.00800000E+00  1.00800000E+00
  1.60000000E+01  1.00800000E+00  1.00800000E+00  1.60000000E+01  1.00800000E+00
  1.00800000E+00  1.60000000E+01  1.00800000E+00  1.00800000E+00  1.60000000E+01
  1.00800000E+00  1.00800000E+00  1.60000000E+01  1.00800000E+00  1.00800000E+00
  1.60000000E+01  1.00800000E+00  1.00800000E+00  1.60000000E+01  1.00800000E+00
  1.00800000E+00  1.60000000E+01  1.00800000E+00  1.00800000E+00  1.60000000E+01
  1.00800000E+00  1.00800000E+00  1.60000000E+01  1.00800000E+00  1.00800000E+00
  1.60000000E+01  1.00800000E+00  1.00800000E+00  1.60000000E+01  1.00800000E+00
  1.00800000E+00  1.60000000E+01  1.00800000E+00  1.00800000E+00  1.60000000E+01
  1.00800000E+00  1.00800000E+00  1.60000000E+01  1.00800000E+00  1.00800000E+00
  1.60000000E+01  1.00800000E+00  1.00800000E+00  1.60000000E+01  1.00800000E+00
  1.00800000E+00  1.60000000E+01  1.00800000E+00  1.00800000E+00  1.60000000E+01
  1.00800000E+00  1.00800000E+00  1.60000000E+01  1.00800000E+00  1.00800000E+00
  1.60000000E+01  1.00800000E+00  1.00800000E+00  1.60000000E+01  1.00800000E+00
  1.00800000E+00  1.60000000E+01  1.00800000E+00  1.00800000E+00  1.60000000E+01
  1.00800000E+00  1.00800000E+00  1.60000000E+01  1.00800000E+00  1.00800000E+00
  1.60000000E+01  1.00800000E+00  1.00800000E+00  1.60000000E+01  1.00800000E+00
  1.00800000E+00  1.60000000E+01  1.00800000E+00  1.00800000E+00  1.60000000E+01
  1.00800000E+00  1.00800000E+00  1.60000000E+01  1.00800000E+00  1.00800000E+00
  1.60000000E+01  1.00800000E+00  1.00800000E+00  1.60000000E+01  1.00800000E+00
  1.00800000E+00  1.60000000E+01  1.00800000E+00  1.00800000E+00  1.60000000E+01
  1.00800000E+00  1.00800000E+00  1.60000000E+01  1.00800000E+00  1.00800000E+00
  1.60000000E+01  1.00800000E+00  1.00800000E+00  1.60000000E+01  1.00800000E+00
  1.00800000E+00  1.60000000E+01  1.00800000E+00  1.00800000E+00  1.60000000E+01
  1.00800000E+00  1.00800000E+00  1.60000000E+01  1.00800000E+00  1.00800000E+00
  1.60000000E+01  1.00800000E+00  1.00800000E+00  1.60000000E+01  1.00800000E+00
  1.00800000E+00  1.60000000E+01  1.00800000E+00  1.00800000E+00  1.60000000E+01
  1.00800000E+00  1.00800000E+00  1.60000000E+01  1.00800000E+00  1.00800000E+00
  1.60000000E+01  1.00800000E+00  1.00800000E+00  1.60000000E+01  1.00800000E+00
  1.00800000E+00  1.60000000E+01  1.00800000E+00  1.00800000E+00  1.60000000E+01
  1.00800000E+00  1.00800000E+00  1.60000000E+01  1.00800000E+00  1.00800000E+00
  1.60000000E+01  1.00800000E+00  1.00800000E+00  1.60000000E+01  1.00800000E+00
  1.00800000E+00  1.60000000E+01  1.00800000E+00  1.00800000E+00  1.60000000E+01
  1.00800000E+00  1.00800000E+00  1.60000000E+01  1.00800000E+00  1.00800000E+00
  1.60000000E+01  1.00800000E+00  1.00800000E+00  1.60000000E+01  1.00800000E+00
  1.00800000E+00  1.60000000E+01  1.00800000E+00  1.00800000E+00  1.60000000E+01
  1.00800000E+00  1.00800000E+00  1.60000000E+01  1.00800000E+00  1.00800000E+00
  1.60000000E+01  1.00800000E+00  1.00800000E+00  1.60000000E+01  1.00800000E+00
  1.00800000E+00  1.60000000E+01  1.00800000E+00  1.00800000E+00  1.60000000E+01
  1.00800000E+00  1.00800000E+00  1.60000000E+01  1.00800000E+00  1.00800000E+00
  1.60000000E+01  1.00800000E+00  1.00800000E+00  1.60000000E+01  1.00800000E+00
  1.00800000E+00  1.60000000E+01  1.00800000E+00  1.00800000E+00  1.60000000E+01
  1.00800000E+00  1.00800000E+00  1.60000000E+01  1.00800000E+00  1.00800000E+00
  1.60000000E+01  1.00800000E+00  1.00800000E+00  1.60000000E+01  1.00800000E+00
  1.00800000E+00  1.60000000E+01  1.00800000E+00  1.00800000E+00  1.60000000E+01
  1.00800000E+00  1.00800000E+00  1.60000000E+01  1.00800000E+00  1.00800000E+00
  1.60000000E+01  1.00800000E+00  1.00800000E+00  1.60000000E+01  1.00800000E+00
  1.00800000E+00  1.60000000E+01  1.00800000E+00  1.00800000E+00  1.60000000E+01
  1.00800000E+00  1.00800000E+00  1.60000000E+01  1.00800000E+00  1.00800000E+00
  1.60000000E+01  1.00800000E+00  1.00800000E+00  1.60000000E+01  1.00800000E+00
  1.00800000E+00  1.60000000E+01  1.00800000E+00  1.00800000E+00  1.60000000E+01
  1.00800000E+00  1.00800000E+00  1.60000000E+01  1.00800000E+00  1.00800000E+00
  1.60000000E+01  1.00800000E+00  1.00800000E+00  1.60000000E+01  1.00800000E+00
  1.00800000E+00  1.60000000E+01  1.00800000E+00  1.00800000E+00  1.60000000E+01
  1.00800000E+00  1.00800000E+00  1.60000000E+01  1.00800000E+00  1.00800000E+00
  1.60000000E+01  1.00800000E+00  1.00800000E+00  1.60000000E+01  1.00800000E+00
  1.00800000E+00  1.60000000E+01  1.00800000E+00  1.00800000E+00  1.60000000E+01
  1.00800000E+00  1.00800000E+00  1.60000000E+01  1.00800000E+00  1.00800000E+00
  1.60000000E+01  1.00800000E+00  1.00800000E+00  1.60000000E+01  1.00800000E+00
  1.00800000E+00  1.60000000E+01  1.00800000E+00  1.00800000E+00  1.60000000E+01
  1.00800000E+00  1.00800000E+00  1.60000000E+01  1.00800000E+00  1.00800000E+00
  1.60000000E+01  1.00800000E+00  1.00800000E+00  1.60000000E+01  1.00800000E+00
  1.00800000E+00  1.60000000E+01  1.00800000E+00  1.00800000E+00  1.60000000E+01
  1.00800000E+00  1.00800000E+00  1.60000000E+01  1.00800000E+00  1.00800000E+00
  1.60000000E+01  1.00800000E+00  1.00800000E+00  1.60000000E+01  1.00800000E+00
  1.00800000E+00  1.60000000E+01  1.00800000E+00  1.00800000E+00  1.60000000E+01
  1.00800000E+00  1.00800000E+00  1.60000000E+01  1.00800000E+00  1.00800000E+00
  1.60000000E+01  1.00800000E+00  1.00800000E+00  1.60000000E+01  1.00800000E+00
  1.00800000E+00  1.60000000E+01  1.00800000E+00  1.00800000E+00  1.60000000E+01
  1.00800000E+00  1.00800000E+00  1.60000000E+01  1.00800000E+00  1.00800000E+00
  1.60000000E+01  1.00800000E+00  1.00800000E+00  1.60000000E+01  1.00800000E+00
  1.00800000E+00  1.60000000E+01  1.00800000E+00  1.00800000E+00  1.60000000E+01
  1.00800000E+00  1.00800000E+00  1.60000000E+01  1.00800000E+00  1.00800000E+00
  1.60000000E+01  1.00800000E+00  1.00800000E+00  1.60000000E+01  1.00800000E+00
  1.00800000E+00  1.60000000E+01  1.00800000E+00  1.00800000E+00  1.60000000E+01
  1.00800000E+00  1.00800000E+00  1.60000000E+01  1.00800000E+00  1.00800000E+00
  1.60000000E+01  1.00800000E+00  1.00800000E+00  1.60000000E+01  1.00800000E+00
  1.00800000E+00  1.60000000E+01  1.00800000E+00  1.00800000E+00  1.60000000E+01
  1.00800000E+00  1.00800000E+00  1.60000000E+01  1.00800000E+00  1.00800000E+00
  1.60000000E+01  1.00800000E+00  1.00800000E+00  1.60000000E+01  1.00800000E+00
  1.00800000E+00  1.60000000E+01  1.00800000E+00  1.00800000E+00  1.60000000E+01
  1.00800000E+00  1.00800000E+00  1.60000000E+01  1.00800000E+00  1.00800000E+00
  1.60000000E+01  1.00800000E+00  1.00800000E+00  1.60000000E+01  1.00800000E+00
  1.00800000E+00  1.60000000E+01  1.00800000E+00  1.00800000E+00  1.60000000E+01
  1.00800000E+00  1.00800000E+00  1.60000000E+01  1.00800000E+00  1.00800000E+00
  1.60000000E+01  1.00800000E+00  1.00800000E+00  1.60000000E+01  1.00800000E+00
  1.00800000E+00  1.60000000E+01  1.00800000E+00  1.00800000E+00  1.60000000E+01
  1.00800000E+00  1.00800000E+00  1.60000000E+01  1.00800000E+00  1.00800000E+00
  1.60000000E+01  1.00800000E+00  1.00800000E+00  1.60000000E+01  1.00800000E+00
  1.00800000E+00  1.60000000E+01  1.00800000E+00  1.00800000E+00  1.60000000E+01
  1.00800000E+00  1.00800000E+00  1.60000000E+01  1.00800000E+00  1.00800000E+00
  1.60000000E+01  1.00800000E+00  1.00800000E+00  1.60000000E+01  1.00800000E+00
  1.00800000E+00  1.60000000E+01  1.00800000E+00  1.00800000E+00  1.60000000E+01
  1.00800000E+00  1.00800000E+00  1.60000000E+01  1.00800000E+00  1.00800000E+00
  1.60000000E+01  1.00800000E+00  1.00800000E+00  1.60000000E+01  1.00800000E+00
  1.00800000E+00  1.60000000E+01  1.00800000E+00  1.00800000E+00  1.60000000E+01
  1.00800000E+00  1.00800000E+00  1.60000000E+01  1.00800000E+00  1.00800000E+00
  1.60000000E+01  1.00800000E+00  1.00800000E+00  1.60000000E+01  1.00800000E+00
  1.00800000E+00  1.60000000E+01  1.00800000E+00  1.00800000E+00  1.60000000E+01
  1.00800000E+00  1.00800000E+00  1.60000000E+01  1.00800000E+00  1.00800000E+00
  1.60000000E+01  1.00800000E+00  1.00800000E+00  1.60000000E+01  1.00800000E+00
  1.00800000E+00  1.60000000E+01  1.00800000E+00  1.00800000E+00  1.60000000E+01
  1.00800000E+00  1.00800000E+00  1.60000000E+01  1.00800000E+00  1.00800000E+00
  1.60000000E+01  1.00800000E+00  1.00800000E+00  1.60000000E+01  1.00800000E+00
  1.00800000E+00  1.60000000E+01  1.00800000E+00  1.00800000E+00  1.60000000E+01
  1.00800000E+00  1.00800000E+00  1.60000000E+01  1.00800000E+00  1.00800000E+00
  1.60000000E+01  1.00800000E+00  1.00800000E+00  1.60000000E+01  1.00800000E+00
  1.00800000E+00  1.60000000E+01  1.00800000E+00  1.00800000E+00  1.60000000E+01
  1.00800000E+00  1.00800000E+00  1.60000000E+01  1.00800000E+00  1.00800000E+00
  1.60000000E+01  1.00800000E+00  1.00800000E+00  1.60000000E+01  1.00800000E+00
  1.00800000E+00  1.60000000E+01  1.00800000E+00  1.00800000E+00  1.60000000E+01
  1.00800000E+00  1.00800000E+00  1.60000000E+01  1.00800000E+00  1.00800000E+00
  1.60000000E+01  1.00800000E+00  1.00800000E+00  1.60000000E+01  1.00800000E+00
  1.00800000E+00  1.60000000E+01  1.00800000E+00  1.00800000E+00  1.60000000E+01
  1.00800000E+00  1.00800000E+00  1.60000000E+01  1.00800000E+00  1.00800000E+00
  1.60000000E+01  1.00800000E+00  1.00800000E+00  1.60000000E+01  1.00800000E+00
  1.00800000E+00  1.60000000E+01  1.00800000E+00  1.00800000E+00  1.60000000E+01
  1.00800000E+00  1.00800000E+00  1.60000000E+01  1.00800000E+00  1.00800000E+00
  1.60000000E+01  1.00800000E+00  1.00800000E+00  1.60000000E+01  1.00800000E+00
  1.00800000E+00  1.60000000E+01  1.00800000E+00  1.00800000E+00  1.60000000E+01
  1.00800000E+00  1.00800000E+00  1.60000000E+01  1.00800000E+00  1.00800000E+00
  1.60000000E+01  1.00800000E+00  1.00800000E+00  1.60000000E+01  1.00800000E+00
  1.00800000E+00  1.60000000E+01  1.00800000E+00  1.00800000E+00  1.60000000E+01
  1.00800000E+00  1.00800000E+00  1.60000000E+01  1.00800000E+00  1.00800000E+00
  1.60000000E+01  1.00800000E+00  1.00800000E+00  1.60000000E+01  1.00800000E+00
  1.00800000E+00  1.60000000E+01  1.00800000E+00  1.00800000E+00  1.60000000E+01
  1.00800000E+00  1.00800000E+00  1.60000000E+01  1.00800000E+00  1.00800000E+00
  1.60000000E+01  1.00800000E+00  1.00800000E+00  1.60000000E+01  1.00800000E+00
  1.00800000E+00  1.60000000E+01  1.00800000E+00  1.00800000E+00  1.60000000E+01
  1.00800000E+00  1.00800000E+00  1.60000000E+01  1.00800000E+00  1.00800000E+00
  1.60000000E+01  1.00800000E+00  1.00800000E+00  1.60000000E+01  1.00800000E+00
  1.00800000E+00  1.60000000E+01  1.00800000E+00  1.00800000E+00  1.60000000E+01
  1.00800000E+00  1.00800000E+00  1.60000000E+01  1.00800000E+00  1.00800000E+00
  1.60000000E+01  1.00800000E+00  1.00800000E+00  1.60000000E+01  1.00800000E+00
  1.00800000E+00  1.60000000E+01  1.00800000E+00  1.00800000E+00  1.60000000E+01
  1.00800000E+00  1.00800000E+00  1.60000000E+01  1.00800000E+00  1.00800000E+00
  1.60000000E+01  1.00800000E+00  1.00800000E+00  1.60000000E+01  1.00800000E+00
  1.00800000E+00  1.60000000E+01  1.00800000E+00  1.00800000E+00  1.60000000E+01
  1.00800000E+00  1.00800000E+00  1.60000000E+01  1.00800000E+00  1.00800000E+00
  1.60000000E+01  1.00800000E+00  1.00800000E+00  1.60000000E+01  1.00800000E+00
  1.00800000E+00  1.60000000E+01  1.00800000E+00  1.00800000E+00  1.60000000E+01
  1.00800000E+00  1.00800000E+00  1.60000000E+01  1.00800000E+00  1.00800000E+00
  1.60000000E+01  1.00800000E+00  1.00800000E+00  1.60000000E+01  1.00800000E+00
  1.00800000E+00  1.60000000E+01  1.00800000E+00  1.00800000E+00  1.60000000E+01
  1.00800000E+00  1.00800000E+00  1.60000000E+01  1.00800000E+00  1.00800000E+00
  1.60000000E+01  1.00800000E+00  1.00800000E+00  1.60000000E+01  1.00800000E+00
  1.00800000E+00  1.60000000E+01  1.00800000E+00  1.00800000E+00  1.60000000E+01
  1.00800000E+00  1.00800000E+00  1.60000000E+01  1.00800000E+00  1.00800000E+00
  1.60000000E+01  1.00800000E+00  1.00800000E+00  1.60000000E+01  1.00800000E+00
  1.00800000E+00  1.60000000E+01  1.00800000E+00  1.00800000E+00  1.60000000E+01
  1.00800000E+00  1.00800000E+00  1.60000000E+01  1.00800000E+00  1.00800000E+00
  1.60000000E+01  1.00800000E+00  1.00800000E+00  1.60000000E+01  1.00800000E+00
  1.00800000E+00  1.60000000E+01  1.00800000E+00  1.00800000E+00  1.60000000E+01
  1.00800000E+00  1.00800000E+00  1.60000000E+01  1.00800000E+00  1.00800000E+00
  1.60000000E+01  1.00800000E+00  1.00800000E+00  1.60000000E+01  1.00800000E+00
  1.00800000E+00  1.60000000E+01  1.00800000E+00  1.00800000E+00  1.60000000E+01
  1.00800000E+00  1.00800000E+00  1.60000000E+01  1.00800000E+00  1.00800000E+00
  1.60000000E+01  1.00800000E+00  1.00800000E+00  1.60000000E+01  1.00800000E+00
  1.00800000E+00  1.60000000E+01  1.00800000E+00  1.00800000E+00  1.60000000E+01
  1.00800000E+00  1.00800000E+00  1.60000000E+01  1.00800000E+00  1.00800000E+00
  1.60000000E+01  1.00800000E+00  1.00800000E+00  1.60000000E+01  1.00800000E+00
  1.00800000E+00  1.60000000E+01  1.00800000E+00  1.00800000E+00  1.60000000E+01
  1.00800000E+00  1.00800000E+00  1.60000000E+01  1.00800000E+00  1.00800000E+00
  1.60000000E+01  1.00800000E+00  1.00800000E+00  1.60000000E+01  1.00800000E+00
  1.00800000E+00  1.60000000E+01  1.00800000E+00  1.00800000E+00  1.60000000E+01
  1.00800000E+00  1.00800000E+00  1.60000000E+01  1.00800000E+00  1.00800000E+00
  1.60000000E+01  1.00800000E+00  1.00800000E+00  1.60000000E+01  1.00800000E+00
  1.00800000E+00  1.60000000E+01  1.00800000E+00  1.00800000E+00  1.60000000E+01
  1.00800000E+00  1.00800000E+00  1.60000000E+01  1.00800000E+00  1.00800000E+00
  1.60000000E+01  1.00800000E+00  1.00800000E+00  1.60000000E+01  1.00800000E+00
  1.00800000E+00  1.60000000E+01  1.00800000E+00  1.00800000E+00  1.60000000E+01
  1.00800000E+00  1.00800000E+00  1.60000000E+01  1.00800000E+00  1.00800000E+00
  1.60000000E+01  1.00800000E+00  1.00800000E+00  1.60000000E+01  1.00800000E+00
  1.00800000E+00  1.60000000E+01  1.00800000E+00  1.00800000E+00  1.60000000E+01
  1.00800000E+00  1.00800000E+00  1.60000000E+01  1.00800000E+00  1.00800000E+00
  1.60000000E+01  1.00800000E+00  1.00800000E+00  1.60000000E+01  1.00800000E+00
  1.00800000E+00  1.60000000E+01  1.00800000E+00  1.00800000E+00  1.60000000E+01
  1.00800000E+00  1.00800000E+00  1.60000000E+01  1.00800000E+00  1.00800000E+00
  1.60000000E+01  1.00800000E+00  1.00800000E+00  1.60000000E+01  1.00800000E+00
  1.00800000E+00  1.60000000E+01  1.00800000E+00  1.00800000E+00  1.60000000E+01
  1.00800000E+00  1.00800000E+00  1.60000000E+01  1.00800000E+00  1.00800000E+00
  1.60000000E+01  1.00800000E+00  1.00800000E+00  1.60000000E+01  1.00800000E+00
  1.00800000E+00  1.60000000E+01  1.00800000E+00  1.00800000E+00  1.60000000E+01
  1.00800000E+00  1.00800000E+00  1.60000000E+01  1.00800000E+00  1.00800000E+00
  1.60000000E+01  1.00800000E+00  1.00800000E+00  1.60000000E+01  1.00800000E+00
  1.00800000E+00  1.60000000E+01  1.00800000E+00  1.00800000E+00  1.60000000E+01
  1.00800000E+00  1.00800000E+00  1.60000000E+01  1.00800000E+00  1.00800000E+00
  1.60000000E+01  1.00800000E+00  1.00800000E+00  1.60000000E+01  1.00800000E+00
  1.00800000E+00  1.60000000E+01  1.00800000E+00  1.00800000E+00  1.60000000E+01
  1.00800000E+00  1.00800000E+00  1.60000000E+01  1.00800000E+00  1.00800000E+00
  1.60000000E+01  1.00800000E+00  1.00800000E+00  1.60000000E+01  1.00800000E+00
  1.00800000E+00  1.60000000E+01  1.00800000E+00  1.00800000E+00  1.60000000E+01
  1.00800000E+00  1.00800000E+00  1.60000000E+01  1.00800000E+00  1.00800000E+00
  1.60000000E+01  1.00800000E+00  1.00800000E+00  1.60000000E+01  1.00800000E+00
  1.00800000E+00  1.60000000E+01  1.00800000E+00  1.00800000E+00  1.60000000E+01
  1.00800000E+00  1.00800000E+00  1.60000000E+01  1.00800000E+00  1.00800000E+00
  1.60000000E+01  1.00800000E+00  1.00800000E+00  1.60000000E+01  1.00800000E+00
  1.00800000E+00  1.60000000E+01  1.00800000E+00  1.00800000E+00  1.60000000E+01
  1.00800000E+00  1.00800000E+00  1.60000000E+01  1.00800000E+00  1.00800000E+00
  1.60000000E+01  1.00800000E+00  1.00800000E+00  1.60000000E+01  1.00800000E+00
  1.00800000E+00  1.60000000E+01  1.00800000E+00  1.00800000E+00  1.60000000E+01
  1.00800000E+00  1.00800000E+00  1.60000000E+01  1.00800000E+00  1.00800000E+00
  1.60000000E+01  1.00800000E+00  1.00800000E+00  1.60000000E+01  1.00800000E+00
  1.00800000E+00  1.60000000E+01  1.00800000E+00  1.00800000E+00  1.60000000E+01
  1.00800000E+00  1.00800000E+00  1.60000000E+01  1.00800000E+00  1.00800000E+00
  1.60000000E+01  1.00800000E+00  1.00800000E+00  1.60000000E+01  1.00800000E+00
  1.00800000E+00  1.60000000E+01  1.00800000E+00  1.00800000E+00  1.60000000E+01
  1.00800000E+00  1.00800000E+00  1.60000000E+01  1.00800000E+00  1.00800000E+00
  1.60000000E+01  1.00800000E+00  1.00800000E+00  1.60000000E+01  1.00800000E+00
  1.00800000E+00  1.60000000E+01  1.00800000E+00  1.00800000E+00  1.60000000E+01
  1.00800000E+00  1.00800000E+00  1.60000000E+01  1.00800000E+00  1.00800000E+00
  1.60000000E+01  1.00800000E+00  1.00800000E+00  1.60000000E+01  1.00800000E+00
  1.00800000E+00  1.60000000E+01  1.00800000E+00  1.00800000E+00  1.60000000E+01
  1.00800000E+00  1.00800000E+00  1.60000000E+01  1.00800000E+00  1.00800000E+00
  1.60000000E+01  1.00800000E+00  1.00800000E+00  1.60000000E+01  1.00800000E+00
  1.00800000E+00  1.60000000E+01  1.00800000E+00  1.00800000E+00  1.60000000E+01
  1.00800000E+00  1.00800000E+00  1.60000000E+01  1.00800000E+00  1.00800000E+00
  1.60000000E+01  1.00800000E+00  1.00800000E+00  1.60000000E+01  1.00800000E+00
  1.00800000E+00  1.60000000E+01  1.00800000E+00  1.00800000E+00  1.60000000E+01
  1.00800000E+00  1.00800000E+00  1.60000000E+01  1.00800000E+00  1.00800000E+00
  1.60000000E+01  1.00800000E+00  1.00800000E+00  1.60000000E+01  1.00800000E+00
  1.00800000E+00  1.60000000E+01  1.00800000E+00  1.00800000E+00  1.60000000E+01
  1.00800000E+00  1.00800000E+00  1.60000000E+01  1.00800000E+00  1.00800000E+00
  1.60000000E+01  1.00800000E+00  1.00800000E+00  1.60000000E+01  1.00800000E+00
  1.00800000E+00  1.60000000E+01  1.00800000E+00  1.00800000E+00  1.60000000E+01
  1.00800000E+00  1.00800000E+00  1.60000000E+01  1.00800000E+00  1.00800000E+00
  1.60000000E+01  1.00800000E+00  1.00800000E+00  1.60000000E+01  1.00800000E+00
  1.00800000E+00  1.60000000E+01  1.00800000E+00  1.00800000E+00  1.60000000E+01
  1.00800000E+00  1.00800000E+00  1.60000000E+01  1.00800000E+00  1.00800000E+00
  1.60000000E+01  1.00800000E+00  1.00800000E+00  1.60000000E+01  1.00800000E+00
  1.00800000E+00  1.60000000E+01  1.00800000E+00  1.00800000E+00  1.60000000E+01
  1.00800000E+00  1.00800000E+00  1.60000000E+01  1.00800000E+00  1.00800000E+00
  1.60000000E+01  1.00800000E+00  1.00800000E+00  1.60000000E+01  1.00800000E+00
  1.00800000E+00  1.60000000E+01  1.00800000E+00  1.00800000E+00  1.60000000E+01
  1.00800000E+00  1.00800000E+00  1.60000000E+01  1.00800000E+00  1.00800000E+00
  1.60000000E+01  1.00800000E+00  1.00800000E+00  1.60000000E+01  1.00800000E+00
  1.00800000E+00  1.60000000E+01  1.00800000E+00  1.00800000E+00  1.60000000E+01
  1.00800000E+00  1.00800000E+00  1.60000000E+01  1.00800000E+00  1.00800000E+00
  1.60000000E+01  1.00800000E+00  1.00800000E+00  1.60000000E+01  1.00800000E+00
  1.00800000E+00  1.60000000E+01  1.00800000E+00  1.00800000E+00  1.60000000E+01
  1.00800000E+00  1.00800000E+00  1.60000000E+01  1.00800000E+00  1.00800000E+00
  1.60000000E+01  1.00800000E+00  1.00800000E+00  1.60000000E+01  1.00800000E+00
  1.00800000E+00  1.60000000E+01  1.00800000E+00  1.00800000E+00  1.60000000E+01
  1.00800000E+00  1.00800000E+00  1.60000000E+01  1.00800000E+00  1.00800000E+00
  1.60000000E+01  1.00800000E+00  1.00800000E+00  1.60000000E+01  1.00800000E+00
  1.00800000E+00  1.60000000E+01  1.00800000E+00  1.00800000E+00  1.60000000E+01
  1.00800000E+00  1.00800000E+00  1.60000000E+01  1.00800000E+00  1.00800000E+00
  1.60000000E+01  1.00800000E+00  1.00800000E+00  1.60000000E+01  1.00800000E+00
  1.00800000E+00  1.60000000E+01  1.00800000E+00  1.00800000E+00  1.60000000E+01
  1.00800000E+00  1.00800000E+00  1.60000000E+01  1.00800000E+00  1.00800000E+00
  1.60000000E+01  1.00800000E+00  1.00800000E+00  1.60000000E+01  1.00800000E+00
  1.00800000E+00  1.60000000E+01  1.00800000E+00  1.00800000E+00  1.60000000E+01
  1.00800000E+00  1.00800000E+00  1.60000000E+01  1.00800000E+00  1.00800000E+00
  1.60000000E+01  1.00800000E+00  1.00800000E+00  1.60000000E+01  1.00800000E+00
  1.00800000E+00  1.60000000E+01  1.00800000E+00  1.00800000E+00  1.60000000E+01
  1.00800000E+00  1.00800000E+00  1.60000000E+01  1.00800000E+00  1.00800000E+00
  1.60000000E+01  1.00800000E+00  1.00800000E+00  1.60000000E+01  1.00800000E+00
  1.00800000E+00  1.60000000E+01  1.00800000E+00  1.00800000E+00  1.60000000E+01
  1.00800000E+00  1.00800000E+00  1.60000000E+01  1.00800000E+00  1.00800000E+00
  1.60000000E+01  1.00800000E+00  1.00800000E+00  1.60000000E+01  1.00800000E+00
  1.00800000E+00  1.60000000E+01  1.00800000E+00  1.00800000E+00  1.60000000E+01
  1.00800000E+00  1.00800000E+00  1.60000000E+01  1.00800000E+00  1.00800000E+00
  1.60000000E+01  1.00800000E+00  1.00800000E+00  1.60000000E+01  1.00800000E+00
  1.00800000E+00  1.60000000E+01  1.00800000E+00  1.00800000E+00  1.60000000E+01
  1.00800000E+00  1.00800000E+00  1.60000000E+01  1.00800000E+00  1.00800000E+00
  1.60000000E+01  1.00800000E+00  1.00800000E+00  1.60000000E+01  1.00800000E+00
  1.00800000E+00  1.60000000E+01  1.00800000E+00  1.00800000E+00  1.60000000E+01
  1.00800000E+00  1.00800000E+00  1.60000000E+01  1.00800000E+00  1.00800000E+00
  1.60000000E+01  1.00800000E+00  1.00800000E+00  1.60000000E+01  1.00800000E+00
  1.00800000E+00  1.60000000E+01  1.00800000E+00  1.00800000E+00  1.60000000E+01
  1.00800000E+00  1.00800000E+00  1.60000000E+01  1.00800000E+00  1.00800000E+00
  1.60000000E+01  1.00800000E+00  1.00800000E+00  1.60000000E+01  1.00800000E+00
  1.00800000E+00  1.60000000E+01  1.00800000E+00  1.00800000E+00  1.60000000E+01
  1.00800000E+00  1.00800000E+00  1.60000000E+01  1.00800000E+00  1.00800000E+00
  1.60000000E+01  1.00800000E+00  1.00800000E+00  1.60000000E+01  1.00800000E+00
  1.00800000E+00  1.60000000E+01  1.00800000E+00  1.00800000E+00  1.60000000E+01
  1.00800000E+00  1.00800000E+00  1.60000000E+01  1.00800000E+00  1.00800000E+00
  1.60000000E+01  1.00800000E+00  1.00800000E+00  1.60000000E+01  1.00800000E+00
  1.00800000E+00  1.60000000E+01  1.00800000E+00  1.00800000E+00  1.60000000E+01
  1.00800000E+00  1.00800000E+00  1.60000000E+01  1.00800000E+00  1.00800000E+00
  1.60000000E+01  1.00800000E+00  1.00800000E+00  1.60000000E+01  1.00800000E+00
  1.00800000E+00  1.60000000E+01  1.00800000E+00  1.00800000E+00  1.60000000E+01
  1.00800000E+00  1.00800000E+00  1.60000000E+01  1.00800000E+00  1.00800000E+00
  1.60000000E+01  1.00800000E+00  1.00800000E+00  1.60000000E+01  1.00800000E+00
  1.00800000E+00  1.60000000E+01  1.00800000E+00  1.00800000E+00  1.60000000E+01
  1.00800000E+00  1.00800000E+00  1.60000000E+01  1.00800000E+00  1.00800000E+00
  1.60000000E+01  1.00800000E+00  1.00800000E+00  1.60000000E+01  1.00800000E+00
  1.00800000E+00  1.60000000E+01  1.00800000E+00  1.00800000E+00  1.60000000E+01
  1.00800000E+00  1.00800000E+00  1.60000000E+01  1.00800000E+00  1.00800000E+00
  1.60000000E+01  1.00800000E+00  1.00800000E+00  1.60000000E+01  1.00800000E+00
  1.00800000E+00  1.60000000E+01  1.00800000E+00  1.00800000E+00  1.60000000E+01
  1.00800000E+00  1.00800000E+00  1.60000000E+01  1.00800000E+00  1.00800000E+00
  1.60000000E+01  1.00800000E+00  1.00800000E+00  1.60000000E+01  1.00800000E+00
  1.00800000E+00  1.60000000E+01  1.00800000E+00  1.00800000E+00  1.60000000E+01
  1.00800000E+00  1.00800000E+00  1.60000000E+01  1.00800000E+00  1.00800000E+00
  1.60000000E+01  1.00800000E+00  1.00800000E+00  1.60000000E+01  1.00800000E+00
  1.00800000E+00  1.60000000E+01  1.00800000E+00  1.00800000E+00  1.60000000E+01
  1.00800000E+00  1.00800000E+00  1.60000000E+01  1.00800000E+00  1.00800000E+00
  1.60000000E+01  1.00800000E+00  1.00800000E+00  1.60000000E+01  1.00800000E+00
  1.00800000E+00  1.60000000E+01  1.00800000E+00  1.00800000E+00  1.60000000E+01
  1.00800000E+00  1.00800000E+00  1.60000000E+01  1.00800000E+00  1.00800000E+00
  1.60000000E+01  1.00800000E+00  1.00800000E+00  1.60000000E+01  1.00800000E+00
  1.00800000E+00  1.60000000E+01  1.00800000E+00  1.00800000E+00  1.60000000E+01
  1.00800000E+00  1.00800000E+00  1.60000000E+01  1.00800000E+00  1.00800000E+00
  1.60000000E+01  1.00800000E+00  1.00800000E+00  1.60000000E+01  1.00800000E+00
  1.00800000E+00  1.60000000E+01  1.00800000E+00  1.00800000E+00  1.60000000E+01
  1.00800000E+00  1.00800000E+00  1.60000000E+01  1.00800000E+00  1.00800000E+00
  1.60000000E+01  1.00800000E+00  1.00800000E+00  1.60000000E+01  1.00800000E+00
  1.00800000E+00  1.60000000E+01  1.00800000E+00  1.00800000E+00  1.60000000E+01
  1.00800000E+00  1.00800000E+00  1.60000000E+01  1.00800000E+00  1.00800000E+00
  1.60000000E+01  1.00800000E+00  1.00800000E+00  1.60000000E+01  1.00800000E+00
  1.00800000E+00  1.60000000E+01  1.00800000E+00  1.00800000E+00  1.60000000E+01
  1.00800000E+00  1.00800000E+00  1.60000000E+01  1.00800000E+00  1.00800000E+00
  1.60000000E+01  1.00800000E+00  1.00800000E+00  1.60000000E+01  1.00800000E+00
  1.00800000E+00  1.60000000E+01  1.00800000E+00  1.00800000E+00  1.60000000E+01
  1.00800000E+00  1.00800000E+00  1.60000000E+01  1.00800000E+00  1.00800000E+00
  1.60000000E+01  1.00800000E+00  1.00800000E+00  1.60000000E+01  1.00800000E+00
  1.00800000E+00  1.60000000E+01  1.00800000E+00  1.00800000E+00  1.60000000E+01
  1.00800000E+00  1.00800000E+00  1.60000000E+01  1.00800000E+00  1.00800000E+00
  1.60000000E+01  1.00800000E+00  1.00800000E+00  1.60000000E+01  1.00800000E+00
  1.00800000E+00  1.60000000E+01  1.00800000E+00  1.00800000E+00  1.60000000E+01
  1.00800000E+00  1.00800000E+00  1.60000000E+01  1.00800000E+00  1.00800000E+00
  1.60000000E+01  1.00800000E+00  1.00800000E+00  1.60000000E+01  1.00800000E+00
  1.00800000E+00  1.60000000E+01  1.00800000E+00  1.00800000E+00  1.60000000E+01
  1.00800000E+00  1.00800000E+00  1.60000000E+01  1.00800000E+00  1.00800000E+00
  1.60000000E+01  1.00800000E+00  1.00800000E+00  1.60000000E+01  1.00800000E+00
  1.00800000E+00  1.60000000E+01  1.00800000E+00  1.00800000E+00  1.60000000E+01
  1.00800000E+00  1.00800000E+00  1.60000000E+01  1.00800000E+00  1.00800000E+00
  1.60000000E+01  1.00800000E+00  1.00800000E+00  1.60000000E+01  1.00800000E+00
  1.00800000E+00  1.60000000E+01  1.00800000E+00  1.00800000E+00  1.60000000E+01
  1.00800000E+00  1.00800000E+00  1.60000000E+01  1.00800000E+00  1.00800000E+00
  1.60000000E+01  1.00800000E+00  1.00800000E+00  1.60000000E+01  1.00800000E+00
  1.00800000E+00  1.60000000E+01  1.00800000E+00  1.00800000E+00  1.60000000E+01
  1.00800000E+00  1.00800000E+00  1.60000000E+01  1.00800000E+00  1.00800000E+00
  1.60000000E+01  1.00800000E+00  1.00800000E+00  1.60000000E+01  1.00800000E+00
  1.00800000E+00  1.60000000E+01  1.00800000E+00  1.00800000E+00  1.60000000E+01
  1.00800000E+00  1.00800000E+00  1.60000000E+01  1.00800000E+00  1.00800000E+00
  1.60000000E+01  1.00800000E+00  1.00800000E+00  1.60000000E+01  1.00800000E+00
  1.00800000E+00  1.60000000E+01  1.00800000E+00  1.00800000E+00  1.60000000E+01
  1.00800000E+00  1.00800000E+00  1.60000000E+01  1.00800000E+00  1.00800000E+00
  1.60000000E+01  1.00800000E+00  1.00800000E+00  1.60000000E+01  1.00800000E+00
  1.00800000E+00  1.60000000E+01  1.00800000E+00  1.00800000E+00  1.60000000E+01
  1.00800000E+00  1.00800000E+00  1.60000000E+01  1.00800000E+00  1.00800000E+00
  1.60000000E+01  1.00800000E+00  1.00800000E+00  1.60000000E+01  1.00800000E+00
  1.00800000E+00  1.60000000E+01  1.00800000E+00  1.00800000E+00  1.60000000E+01
  1.00800000E+00  1.00800000E+00  1.60000000E+01  1.00800000E+00  1.00800000E+00
  1.60000000E+01  1.00800000E+00  1.00800000E+00  1.60000000E+01  1.00800000E+00
  1.00800000E+00  1.60000000E+01  1.00800000E+00  1.00800000E+00  1.60000000E+01
  1.00800000E+00  1.00800000E+00  1.60000000E+01  1.00800000E+00  1.00800000E+00
  1.60000000E+01  1.00800000E+00  1.00800000E+00  1.60000000E+01  1.00800000E+00
  1.00800000E+00  1.60000000E+01  1.00800000E+00  1.00800000E+00  1.60000000E+01
  1.00800000E+00  1.00800000E+00  1.60000000E+01  1.00800000E+00  1.00800000E+00
  1.60000000E+01  1.00800000E+00  1.00800000E+00  1.60000000E+01  1.00800000E+00
  1.00800000E+00  1.60000000E+01  1.00800000E+00  1.00800000E+00  1.60000000E+01
  1.00800000E+00  1.00800000E+00  1.60000000E+01  1.00800000E+00  1.00800000E+00
  1.60000000E+01  1.00800000E+00  1.00800000E+00  1.60000000E+01  1.00800000E+00
  1.00800000E+00  1.60000000E+01  1.00800000E+00  1.00800000E+00  1.60000000E+01
  1.00800000E+00  1.00800000E+00  1.60000000E+01  1.00800000E+00  1.00800000E+00
  1.60000000E+01  1.00800000E+00  1.00800000E+00  1.60000000E+01  1.00800000E+00
  1.00800000E+00  1.60000000E+01  1.00800000E+00  1.00800000E+00  1.60000000E+01
  1.00800000E+00  1.00800000E+00  1.60000000E+01  1.00800000E+00  1.00800000E+00
  1.60000000E+01  1.00800000E+00  1.00800000E+00  1.60000000E+01  1.00800000E+00
  1.00800000E+00  1.60000000E+01  1.00800000E+00  1.00800000E+00  1.60000000E+01
  1.00800000E+00  1.00800000E+00  1.60000000E+01  1.00800000E+00  1.00800000E+00
  1.60000000E+01  1.00800000E+00  1.00800000E+00  1.60000000E+01  1.00800000E+00
  1.00800000E+00  1.60000000E+01  1.00800000E+00  1.00800000E+00  1.60000000E+01
  1.00800000E+00  1.00800000E+00  1.60000000E+01  1.00800000E+00  1.00800000E+00
  1.60000000E+01  1.00800000E+00  1.00800000E+00  1.60000000E+01  1.00800000E+00
  1.00800000E+00  1.60000000E+01  1.00800000E+00  1.00800000E+00  1.60000000E+01
  1.00800000E+00  1.00800000E+00  1.60000000E+01  1.00800000E+00  1.00800000E+00
  1.60000000E+01  1.00800000E+00  1.00800000E+00  1.60000000E+01  1.00800000E+00
  1.00800000E+00  1.60000000E+01  1.00800000E+00  1.00800000E+00  1.60000000E+01
  1.00800000E+00  1.00800000E+00  1.60000000E+01  1.00800000E+00  1.00800000E+00
  1.60000000E+01  1.00800000E+00  1.00800000E+00  1.60000000E+01  1.00800000E+00
  1.00800000E+00  1.60000000E+01  1.00800000E+00  1.00800000E+00  1.60000000E+01
  1.00800000E+00  1.00800000E+00  1.60000000E+01  1.00800000E+00  1.00800000E+00
  1.60000000E+01  1.00800000E+00  1.00800000E+00  1.60000000E+01  1.00800000E+00
  1.00800000E+00  1.60000000E+01  1.00800000E+00  1.00800000E+00  1.60000000E+01
  1.00800000E+00  1.00800000E+00  1.60000000E+01  1.00800000E+00  1.00800000E+00
  1.60000000E+01  1.00800000E+00  1.00800000E+00  1.60000000E+01  1.00800000E+00
  1.00800000E+00  1.60000000E+01  1.00800000E+00  1.00800000E+00  1.60000000E+01
  1.00800000E+00  1.00800000E+00  1.60000000E+01  1.00800000E+00  1.00800000E+00
  1.60000000E+01  1.00800000E+00  1.00800000E+00  1.60000000E+01  1.00800000E+00
  1.00800000E+00  1.60000000E+01  1.00800000E+00  1.00800000E+00  1.60000000E+01
  1.00800000E+00  1.00800000E+00  1.60000000E+01  1.00800000E+00  1.00800000E+00
  1.60000000E+01  1.00800000E+00  1.00800000E+00  1.60000000E+01  1.00800000E+00
  1.00800000E+00  1.60000000E+01  1.00800000E+00  1.00800000E+00  1.60000000E+01
  1.00800000E+00  1.00800000E+00  1.60000000E+01  1.00800000E+00  1.00800000E+00
  1.60000000E+01  1.00800000E+00  1.00800000E+00  1.60000000E+01  1.00800000E+00
  1.00800000E+00  1.60000000E+01  1.00800000E+00  1.00800000E+00  1.60000000E+01
  1.00800000E+00  1.00800000E+00  1.60000000E+01  1.00800000E+00  1.00800000E+00
  1.60000000E+01  1.00800000E+00  1.00800000E+00  1.60000000E+01  1.00800000E+00
  1.00800000E+00  1.60000000E+01  1.00800000E+00  1.00800000E+00  1.60000000E+01
  1.00800000E+00  1.00800000E+00  1.60000000E+01  1.00800000E+00  1.00800000E+00
  1.60000000E+01  1.00800000E+00  1.00800000E+00  1.60000000E+01  1.00800000E+00
  1.00800000E+00  1.60000000E+01  1.00800000E+00  1.00800000E+00  1.60000000E+01
  1.00800000E+00  1.00800000E+00  1.60000000E+01  1.00800000E+00  1.00800000E+00
  1.60000000E+01  1.00800000E+00  1.00800000E+00  1.60000000E+01  1.00800000E+00
  1.00800000E+00  1.60000000E+01  1.00800000E+00  1.00800000E+00  1.60000000E+01
  1.00800000E+00  1.00800000E+00  1.60000000E+01  1.00800000E+00  1.00800000E+00
  1.60000000E+01  1.00800000E+00  1.00800000E+00  1.60000000E+01  1.00800000E+00
  1.00800000E+00  1.60000000E+01  1.00800000E+00  1.00800000E+00  1.60000000E+01
  1.00800000E+00  1.00800000E+00  1.60000000E+01  1.00800000E+00  1.00800000E+00
  1.60000000E+01  1.00800000E+00  1.00800000E+00  1.60000000E+01  1.00800000E+00
  1.00800000E+00  1.60000000E+01  1.00800000E+00  1.00800000E+00  1.60000000E+01
  1.00800000E+00  1.00800000E+00  1.60000000E+01  1.00800000E+00  1.00800000E+00
  1.60000000E+01  1.00800000E+00  1.00800000E+00  1.60000000E+01  1.00800000E+00
  1.00800000E+00  1.60000000E+01  1.00800000E+00  1.00800000E+00  1.60000000E+01
  1.00800000E+00  1.00800000E+00  1.60000000E+01  1.00800000E+00  1.00800000E+00
  1.60000000E+01  1.00800000E+00  1.00800000E+00  1.60000000E+01  1.00800000E+00
  1.00800000E+00  1.60000000E+01  1.00800000E+00  1.00800000E+00  1.60000000E+01
  1.00800000E+00  1.00800000E+00  1.60000000E+01  1.00800000E+00  1.00800000E+00
  1.60000000E+01  1.00800000E+00  1.00800000E+00  1.60000000E+01  1.00800000E+00
  1.00800000E+00  1.60000000E+01  1.00800000E+00  1.00800000E+00  1.60000000E+01
  1.00800000E+00  1.00800000E+00  1.60000000E+01  1.00800000E+00  1.00800000E+00
  1.60000000E+01  1.00800000E+00  1.00800000E+00  1.60000000E+01  1.00800000E+00
  1.00800000E+00  1.60000000E+01  1.00800000E+00  1.00800000E+00  1.60000000E+01
  1.00800000E+00  1.00800000E+00  1.60000000E+01  1.00800000E+00  1.00800000E+00
  1.60000000E+01  1.00800000E+00  1.00800000E+00  1.60000000E+01  1.00800000E+00
  1.00800000E+00  1.60000000E+01  1.00800000E+00  1.00800000E+00  1.60000000E+01
  1.00800000E+00  1.00800000E+00  1.60000000E+01  1.00800000E+00  1.00800000E+00
  1.60000000E+01  1.00800000E+00  1.00800000E+00  1.60000000E+01  1.00800000E+00
  1.00800000E+00  1.60000000E+01  1.00800000E+00  1.00800000E+00  1.60000000E+01
  1.00800000E+00  1.00800000E+00  1.60000000E+01  1.00800000E+00  1.00800000E+00
  1.60000000E+01  1.00800000E+00  1.00800000E+00  1.60000000E+01  1.00800000E+00
  1.00800000E+00  1.60000000E+01  1.00800000E+00  1.00800000E+00  1.60000000E+01
  1.00800000E+00  1.00800000E+00  1.60000000E+01  1.00800000E+00  1.00800000E+00
  1.60000000E+01  1.00800000E+00  1.00800000E+00  1.60000000E+01  1.00800000E+00
  1.00800000E+00  1.60000000E+01  1.00800000E+00  1.00800000E+00  1.60000000E+01
  1.00800000E+00  1.00800000E+00  1.60000000E+01  1.00800000E+00  1.00800000E+00
  1.60000000E+01  1.00800000E+00  1.00800000E+00  1.60000000E+01  1.00800000E+00
  1.00800000E+00  1.60000000E+01  1.00800000E+00  1.00800000E+00  1.60000000E+01
  1.00800000E+00  1.00800000E+00  1.60000000E+01  1.00800000E+00  1.00800000E+00
  1.60000000E+01  1.00800000E+00  1.00800000E+00  1.60000000E+01  1.00800000E+00
  1.00800000E+00  1.60000000E+01  1.00800000E+00  1.00800000E+00  1.60000000E+01
  1.00800000E+00  1.00800000E+00  1.60000000E+01  1.00800000E+00  1.00800000E+00
  1.60000000E+01  1.00800000E+00  1.00800000E+00  1.60000000E+01  1.00800000E+00
  1.00800000E+00  1.60000000E+01  1.00800000E+00  1.00800000E+00  1.60000000E+01
  1.00800000E+00  1.00800000E+00  1.60000000E+01  1.00800000E+00  1.00800000E+00
  1.60000000E+01  1.00800000E+00  1.00800000E+00  1.60000000E+01  1.00800000E+00
  1.00800000E+00  1.60000000E+01  1.00800000E+00  1.00800000E+00  1.60000000E+01
  1.00800000E+00  1.00800000E+00  1.60000000E+01  1.00800000E+00  1.00800000E+00
  1.60000000E+01  1.00800000E+00  1.00800000E+00  1.60000000E+01  1.00800000E+00
  1.00800000E+00  1.60000000E+01  1.00800000E+00  1.00800000E+00  1.60000000E+01
  1.00800000E+00  1.00800000E+00  1.60000000E+01  1.00800000E+00  1.00800000E+00
  1.60000000E+01  1.00800000E+00  1.00800000E+00  1.60000000E+01  1.00800000E+00
  1.00800000E+00  1.60000000E+01  1.00800000E+00  1.00800000E+00  1.60000000E+01
  1.00800000E+00  1.00800000E+00  1.60000000E+01  1.00800000E+00  1.00800000E+00
  1.60000000E+01  1.00800000E+00  1.00800000E+00  1.60000000E+01  1.00800000E+00
  1.00800000E+00  1.60000000E+01  1.00800000E+00  1.00800000E+00  1.60000000E+01
  1.00800000E+00  1.00800000E+00  1.60000000E+01  1.00800000E+00  1.00800000E+00
  1.60000000E+01  1.00800000E+00  1.00800000E+00  1.60000000E+01  1.00800000E+00
  1.00800000E+00  1.60000000E+01  1.00800000E+00  1.00800000E+00  1.60000000E+01
  1.00800000E+00  1.00800000E+00  1.60000000E+01  1.00800000E+00  1.00800000E+00
  1.60000000E+01  1.00800000E+00  1.00800000E+00  1.60000000E+01  1.00800000E+00
  1.00800000E+00  1.60000000E+01  1.00800000E+00  1.00800000E+00  1.60000000E+01
  1.00800000E+00  1.00800000E+00  1.60000000E+01  1.00800000E+00  1.00800000E+00
  1.60000000E+01  1.00800000E+00  1.00800000E+00  1.60000000E+01  1.00800000E+00
  1.00800000E+00  1.60000000E+01  1.00800000E+00  1.00800000E+00  1.60000000E+01
  1.00800000E+00  1.00800000E+00  1.60000000E+01  1.00800000E+00  1.00800000E+00
  1.60000000E+01  1.00800000E+00  1.00800000E+00  1.60000000E+01  1.00800000E+00
  1.00800000E+00  1.60000000E+01  1.00800000E+00  1.00800000E+00  1.60000000E+01
  1.00800000E+00  1.00800000E+00  1.60000000E+01  1.00800000E+00  1.00800000E+00
  1.60000000E+01  1.00800000E+00  1.00800000E+00  1.60000000E+01  1.00800000E+00
  1.00800000E+00  1.60000000E+01  1.00800000E+00  1.00800000E+00  1.60000000E+01
  1.00800000E+00  1.00800000E+00  1.60000000E+01  1.00800000E+00  1.00800000E+00
  1.60000000E+01  1.00800000E+00  1.00800000E+00  1.60000000E+01  1.00800000E+00
  1.00800000E+00  1.60000000E+01  1.00800000E+00  1.00800000E+00  1.60000000E+01
  1.00800000E+00  1.00800000E+00  1.60000000E+01  1.00800000E+00  1.00800000E+00
  1.60000000E+01  1.00800000E+00  1.00800000E+00  1.60000000E+01  1.00800000E+00
  1.00800000E+00  1.60000000E+01  1.00800000E+00  1.00800000E+00  1.60000000E+01
  1.00800000E+00  1.00800000E+00  1.60000000E+01  1.00800000E+00  1.00800000E+00
  1.60000000E+01  1.00800000E+00  1.00800000E+00  1.60000000E+01  1.00800000E+00
  1.00800000E+00  1.60000000E+01  1.00800000E+00  1.00800000E+00  1.60000000E+01
  1.00800000E+00  1.00800000E+00  1.60000000E+01  1.00800000E+00  1.00800000E+00
  1.60000000E+01  1.00800000E+00  1.00800000E+00  1.60000000E+01  1.00800000E+00
  1.00800000E+00  1.60000000E+01  1.00800000E+00  1.00800000E+00  1.60000000E+01
  1.00800000E+00  1.00800000E+00  1.60000000E+01  1.00800000E+00  1.00800000E+00
  1.60000000E+01  1.00800000E+00  1.00800000E+00  1.60000000E+01  1.00800000E+00
  1.00800000E+00  1.60000000E+01  1.00800000E+00  1.00800000E+00  1.60000000E+01
  1.00800000E+00  1.00800000E+00  1.60000000E+01  1.00800000E+00  1.00800000E+00
  1.60000000E+01  1.00800000E+00  1.00800000E+00  1.60000000E+01  1.00800000E+00
  1.00800000E+00  1.60000000E+01  1.00800000E+00  1.00800000E+00  1.60000000E+01
  1.00800000E+00  1.00800000E+00  1.60000000E+01  1.00800000E+00  1.00800000E+00
  1.60000000E+01  1.00800000E+00  1.00800000E+00  1.60000000E+01  1.00800000E+00
  1.00800000E+00  1.60000000E+01  1.00800000E+00  1.00800000E+00  1.60000000E+01
  1.00800000E+00  1.00800000E+00  1.60000000E+01  1.00800000E+00  1.00800000E+00
  1.60000000E+01  1.00800000E+00  1.00800000E+00  1.60000000E+01  1.00800000E+00
  1.00800000E+00  1.60000000E+01  1.00800000E+00  1.00800000E+00  1.60000000E+01
  1.00800000E+00  1.00800000E+00  1.60000000E+01  1.00800000E+00  1.00800000E+00
  1.60000000E+01  1.00800000E+00  1.00800000E+00  1.60000000E+01  1.00800000E+00
  1.00800000E+00  1.60000000E+01  1.00800000E+00  1.00800000E+00  1.60000000E+01
  1.00800000E+00  1.00800000E+00  1.60000000E+01  1.00800000E+00  1.00800000E+00
  1.60000000E+01  1.00800000E+00  1.00800000E+00  1.60000000E+01  1.00800000E+00
  1.00800000E+00  1.60000000E+01  1.00800000E+00  1.00800000E+00  1.60000000E+01
  1.00800000E+00  1.00800000E+00  1.60000000E+01  1.00800000E+00  1.00800000E+00
  1.60000000E+01  1.00800000E+00  1.00800000E+00  1.60000000E+01  1.00800000E+00
  1.00800000E+00  1.60000000E+01  1.00800000E+00  1.00800000E+00  1.60000000E+01
  1.00800000E+00  1.00800000E+00  1.60000000E+01  1.00800000E+00  1.00800000E+00
  1.60000000E+01  1.00800000E+00  1.00800000E+00  1.60000000E+01  1.00800000E+00
  1.00800000E+00  1.60000000E+01  1.00800000E+00  1.00800000E+00  1.60000000E+01
  1.00800000E+00  1.00800000E+00  1.60000000E+01  1.00800000E+00  1.00800000E+00
  1.60000000E+01  1.00800000E+00  1.00800000E+00  1.60000000E+01  1.00800000E+00
  1.00800000E+00  1.60000000E+01  1.00800000E+00  1.00800000E+00  1.60000000E+01
  1.00800000E+00  1.00800000E+00  1.60000000E+01  1.00800000E+00  1.00800000E+00
  1.60000000E+01  1.00800000E+00  1.00800000E+00  1.60000000E+01  1.00800000E+00
  1.00800000E+00  1.60000000E+01  1.00800000E+00  1.00800000E+00  1.60000000E+01
  1.00800000E+00  1.00800000E+00  1.60000000E+01  1.00800000E+00  1.00800000E+00
  1.60000000E+01  1.00800000E+00  1.00800000E+00  1.60000000E+01  1.00800000E+00
  1.00800000E+00  1.60000000E+01  1.00800000E+00  1.00800000E+00  1.60000000E+01
  1.00800000E+00  1.00800000E+00  1.60000000E+01  1.00800000E+00  1.00800000E+00
  1.60000000E+01  1.00800000E+00  1.00800000E+00  1.60000000E+01  1.00800000E+00
  1.00800000E+00  1.60000000E+01  1.00800000E+00  1.00800000E+00  1.60000000E+01
  1.00800000E+00  1.00800000E+00  1.60000000E+01  1.00800000E+00  1.00800000E+00
  1.60000000E+01  1.00800000E+00  1.00800000E+00  1.60000000E+01  1.00800000E+00
  1.00800000E+00  1.60000000E+01  1.00800000E+00  1.00800000E+00  1.60000000E+01
  1.00800000E+00  1.00800000E+00  1.60000000E+01  1.00800000E+00  1.00800000E+00
  1.60000000E+01  1.00800000E+00  1.00800000E+00  1.60000000E+01  1.00800000E+00
  1.00800000E+00  1.60000000E+01  1.00800000E+00  1.00800000E+00  1.60000000E+01
  1.00800000E+00  1.00800000E+00  1.60000000E+01  1.00800000E+00  1.00800000E+00
  1.60000000E+01  1.00800000E+00  1.00800000E+00  1.60000000E+01  1.00800000E+00
  1.00800000E+00  1.60000000E+01  1.00800000E+00  1.00800000E+00  1.60000000E+01
  1.00800000E+00  1.00800000E+00  1.60000000E+01  1.00800000E+00  1.00800000E+00
  1.60000000E+01  1.00800000E+00  1.00800000E+00  1.60000000E+01  1.00800000E+00
  1.00800000E+00  1.60000000E+01  1.00800000E+00  1.00800000E+00  1.60000000E+01
  1.00800000E+00  1.00800000E+00  1.60000000E+01  1.00800000E+00  1.00800000E+00
  1.60000000E+01  1.00800000E+00  1.00800000E+00  1.60000000E+01  1.00800000E+00
  1.00800000E+00  1.60000000E+01  1.00800000E+00  1.00800000E+00  1.60000000E+01
  1.00800000E+00  1.00800000E+00  1.60000000E+01  1.00800000E+00  1.00800000E+00
  1.60000000E+01  1.00800000E+00  1.00800000E+00  1.60000000E+01  1.00800000E+00
  1.00800000E+00  1.60000000E+01  1.00800000E+00  1.00800000E+00  1.60000000E+01
  1.00800000E+00  1.00800000E+00  1.60000000E+01  1.00800000E+00  1.00800000E+00
  1.60000000E+01  1.00800000E+00  1.00800000E+00  1.60000000E+01  1.00800000E+00
  1.00800000E+00  1.60000000E+01  1.00800000E+00  1.00800000E+00  1.60000000E+01
  1.00800000E+00  1.00800000E+00  1.60000000E+01  1.00800000E+00  1.00800000E+00
  1.60000000E+01  1.00800000E+00  1.00800000E+00  1.60000000E+01  1.00800000E+00
  1.00800000E+00  1.60000000E+01  1.00800000E+00  1.00800000E+00  1.60000000E+01
  1.00800000E+00  1.00800000E+00  1.60000000E+01  1.00800000E+00  1.00800000E+00
  1.60000000E+01  1.00800000E+00  1.00800000E+00  1.60000000E+01  1.00800000E+00
  1.00800000E+00  1.60000000E+01  1.00800000E+00  1.00800000E+00  1.60000000E+01
  1.00800000E+00  1.00800000E+00  1.60000000E+01  1.00800000E+00  1.00800000E+00
  1.60000000E+01  1.00800000E+00  1.00800000E+00  1.60000000E+01  1.00800000E+00
  1.00800000E+00  1.60000000E+01  1.00800000E+00  1.00800000E+00  1.60000000E+01
  1.00800000E+00  1.00800000E+00  1.60000000E+01  1.00800000E+00  1.00800000E+00
  1.60000000E+01  1.00800000E+00  1.00800000E+00  1.60000000E+01  1.00800000E+00
  1.00800000E+00  1.60000000E+01  1.00800000E+00  1.00800000E+00  1.60000000E+01
  1.00800000E+00  1.00800000E+00  1.60000000E+01  1.00800000E+00  1.00800000E+00
  1.60000000E+01  1.00800000E+00  1.00800000E+00  1.60000000E+01  1.00800000E+00
  1.00800000E+00  1.60000000E+01  1.00800000E+00  1.00800000E+00  1.60000000E+01
  1.00800000E+00  1.00800000E+00  1.60000000E+01  1.00800000E+00  1.00800000E+00
  1.60000000E+01  1.00800000E+00  1.00800000E+00  1.60000000E+01  1.00800000E+00
  1.00800000E+00  1.60000000E+01  1.00800000E+00  1.00800000E+00  1.60000000E+01
  1.00800000E+00  1.00800000E+00  1.60000000E+01  1.00800000E+00  1.00800000E+00
  1.60000000E+01  1.00800000E+00  1.00800000E+00  1.60000000E+01  1.00800000E+00
  1.00800000E+00  1.60000000E+01  1.00800000E+00  1.00800000E+00  1.60000000E+01
  1.00800000E+00  1.00800000E+00  1.60000000E+01  1.00800000E+00  1.00800000E+00
  1.60000000E+01  1.00800000E+00  1.00800000E+00  1.60000000E+01  1.00800000E+00
  1.00800000E+00  1.60000000E+01  1.00800000E+00  1.00800000E+00  1.60000000E+01
  1.00800000E+00  1.00800000E+00  1.60000000E+01  1.00800000E+00  1.00800000E+00
  1.60000000E+01  1.00800000E+00  1.00800000E+00  1.60000000E+01  1.00800000E+00
  1.00800000E+00  1.60000000E+01  1.00800000E+00  1.00800000E+00  1.60000000E+01
  1.00800000E+00  1.00800000E+00  1.60000000E+01  1.00800000E+00  1.00800000E+00
  1.60000000E+01  1.00800000E+00  1.00800000E+00  1.60000000E+01  1.00800000E+00
  1.00800000E+00  1.60000000E+01  1.00800000E+00  1.00800000E+00  1.60000000E+01
  1.00800000E+00  1.00800000E+00  1.60000000E+01  1.00800000E+00  1.00800000E+00
  1.60000000E+01  1.00800000E+00  1.00800000E+00  1.60000000E+01  1.00800000E+00
  1.00800000E+00  1.60000000E+01  1.00800000E+00  1.00800000E+00  1.60000000E+01
  1.00800000E+00  1.00800000E+00  1.60000000E+01  1.00800000E+00  1.00800000E+00
  1.60000000E+01  1.00800000E+00  1.00800000E+00  1.60000000E+01  1.00800000E+00
  1.00800000E+00  1.60000000E+01  1.00800000E+00  1.00800000E+00  1.60000000E+01
  1.00800000E+00  1.00800000E+00  1.60000000E+01  1.00800000E+00  1.00800000E+00
  1.60000000E+01  1.00800000E+00  1.00800000E+00  1.60000000E+01  1.00800000E+00
  1.00800000E+00  1.60000000E+01  1.00800000E+00  1.00800000E+00  1.60000000E+01
  1.00800000E+00  1.00800000E+00  1.60000000E+01  1.00800000E+00  1.00800000E+00
  1.60000000E+01  1.00800000E+00  1.00800000E+00  1.60000000E+01  1.00800000E+00
  1.00800000E+00  1.60000000E+01  1.00800000E+00  1.00800000E+00  1.60000000E+01
  1.00800000E+00  1.00800000E+00  1.60000000E+01  1.00800000E+00  1.00800000E+00
  1.60000000E+01  1.00800000E+00  1.00800000E+00  1.60000000E+01  1.00800000E+00
  1.00800000E+00  1.60000000E+01  1.00800000E+00  1.00800000E+00  1.60000000E+01
  1.00800000E+00  1.00800000E+00  1.60000000E+01  1.00800000E+00  1.00800000E+00
  1.60000000E+01  1.00800000E+00  1.00800000E+00  1.60000000E+01  1.00800000E+00
  1.00800000E+00  1.60000000E+01  1.00800000E+00  1.00800000E+00  1.60000000E+01
  1.00800000E+00  1.00800000E+00  1.60000000E+01  1.00800000E+00  1.00800000E+00
  1.60000000E+01  1.00800000E+00  1.00800000E+00  1.60000000E+01  1.00800000E+00
  1.00800000E+00  1.60000000E+01  1.00800000E+00  1.00800000E+00  1.60000000E+01
  1.00800000E+00  1.00800000E+00  1.60000000E+01  1.00800000E+00  1.00800000E+00
  1.60000000E+01  1.00800000E+00  1.00800000E+00  1.60000000E+01  1.00800000E+00
  1.00800000E+00  1.60000000E+01  1.00800000E+00  1.00800000E+00  1.60000000E+01
  1.00800000E+00  1.00800000E+00  1.60000000E+01  1.00800000E+00  1.00800000E+00
  1.60000000E+01  1.00800000E+00  1.00800000E+00  1.60000000E+01  1.00800000E+00
  1.00800000E+00  1.60000000E+01  1.00800000E+00  1.00800000E+00  1.60000000E+01
  1.00800000E+00  1.00800000E+00  1.60000000E+01  1.00800000E+00  1.00800000E+00
  1.60000000E+01  1.00800000E+00  1.00800000E+00  1.60000000E+01  1.00800000E+00
  1.00800000E+00  1.60000000E+01  1.00800000E+00  1.00800000E+00  1.60000000E+01
  1.00800000E+00  1.00800000E+00  1.60000000E+01  1.00800000E+00  1.00800000E+00
  1.60000000E+01  1.00800000E+00  1.00800000E+00  1.60000000E+01  1.00800000E+00
  1.00800000E+00  1.60000000E+01  1.00800000E+00  1.00800000E+00  1.60000000E+01
  1.00800000E+00  1.00800000E+00  1.60000000E+01  1.00800000E+00  1.00800000E+00
  1.60000000E+01  1.00800000E+00  1.00800000E+00  1.60000000E+01  1.00800000E+00
  1.00800000E+00  1.60000000E+01  1.00800000E+00  1.00800000E+00  1.60000000E+01
  1.00800000E+00  1.00800000E+00  1.60000000E+01  1.00800000E+00  1.00800000E+00
  1.60000000E+01  1.00800000E+00  1.00800000E+00  1.60000000E+01  1.00800000E+00
  1.00800000E+00  1.60000000E+01  1.00800000E+00  1.00800000E+00  1.60000000E+01
  1.00800000E+00  1.00800000E+00  1.60000000E+01  1.00800000E+00  1.00800000E+00
  1.60000000E+01  1.00800000E+00  1.00800000E+00  1.60000000E+01  1.00800000E+00
  1.00800000E+00  1.60000000E+01  1.00800000E+00  1.00800000E+00  1.60000000E+01
  1.00800000E+00  1.00800000E+00  1.60000000E+01  1.00800000E+00  1.00800000E+00
  1.60000000E+01  1.00800000E+00  1.00800000E+00  1.60000000E+01  1.00800000E+00
  1.00800000E+00  1.60000000E+01  1.00800000E+00  1.00800000E+00  1.60000000E+01
  1.00800000E+00  1.00800000E+00  1.60000000E+01  1.00800000E+00  1.00800000E+00
  1.60000000E+01  1.00800000E+00  1.00800000E+00  1.60000000E+01  1.00800000E+00
  1.00800000E+00  1.60000000E+01  1.00800000E+00  1.00800000E+00  1.60000000E+01
  1.00800000E+00  1.00800000E+00  1.60000000E+01  1.00800000E+00  1.00800000E+00
  1.60000000E+01  1.00800000E+00  1.00800000E+00  1.60000000E+01  1.00800000E+00
  1.00800000E+00  1.60000000E+01  1.00800000E+00  1.00800000E+00  1.60000000E+01
  1.00800000E+00  1.00800000E+00  1.60000000E+01  1.00800000E+00  1.00800000E+00
  1.60000000E+01  1.00800000E+00  1.00800000E+00  1.60000000E+01  1.00800000E+00
  1.00800000E+00  1.60000000E+01  1.00800000E+00  1.00800000E+00  1.60000000E+01
  1.00800000E+00  1.00800000E+00  1.60000000E+01  1.00800000E+00  1.00800000E+00
  1.60000000E+01  1.00800000E+00  1.00800000E+00  1.60000000E+01  1.00800000E+00
  1.00800000E+00  1.60000000E+01  1.00800000E+00  1.00800000E+00  1.60000000E+01
  1.00800000E+00  1.00800000E+00  1.60000000E+01  1.00800000E+00  1.00800000E+00
  1.60000000E+01  1.00800000E+00  1.00800000E+00  1.60000000E+01  1.00800000E+00
  1.00800000E+00  1.60000000E+01  1.00800000E+00  1.00800000E+00  1.60000000E+01
  1.00800000E+00  1.00800000E+00  1.60000000E+01  1.00800000E+00  1.00800000E+00
  1.60000000E+01  1.00800000E+00  1.00800000E+00  1.60000000E+01  1.00800000E+00
  1.00800000E+00  1.60000000E+01  1.00800000E+00  1.00800000E+00  1.60000000E+01
  1.00800000E+00  1.00800000E+00  1.60000000E+01  1.00800000E+00  1.00800000E+00
  1.60000000E+01  1.00800000E+00  1.00800000E+00  1.60000000E+01  1.00800000E+00
  1.00800000E+00  1.60000000E+01  1.00800000E+00  1.00800000E+00  1.60000000E+01
  1.00800000E+00  1.00800000E+00  1.60000000E+01  1.00800000E+00  1.00800000E+00
  1.60000000E+01  1.00800000E+00  1.00800000E+00  1.60000000E+01  1.00800000E+00
  1.00800000E+00  1.60000000E+01  1.00800000E+00  1.00800000E+00  1.60000000E+01
  1.00800000E+00  1.00800000E+00  1.60000000E+01  1.00800000E+00  1.00800000E+00
  1.60000000E+01  1.00800000E+00  1.00800000E+00  1.60000000E+01  1.00800000E+00
  1.00800000E+00  1.60000000E+01  1.00800000E+00  1.00800000E+00  1.60000000E+01
  1.00800000E+00  1.00800000E+00  1.60000000E+01  1.00800000E+00  1.00800000E+00
  1.60000000E+01  1.00800000E+00  1.00800000E+00  1.60000000E+01  1.00800000E+00
  1.00800000E+00  1.60000000E+01  1.00800000E+00  1.00800000E+00  1.60000000E+01
  1.00800000E+00  1.00800000E+00  1.60000000E+01  1.00800000E+00  1.00800000E+00
  1.60000000E+01  1.00800000E+00  1.00800000E+00  1.60000000E+01  1.00800000E+00
  1.00800000E+00  1.60000000E+01  1.00800000E+00  1.00800000E+00  1.60000000E+01
  1.00800000E+00  1.00800000E+00  1.60000000E+01  1.00800000E+00  1.00800000E+00
  1.60000000E+01  1.00800000E+00  1.00800000E+00  1.60000000E+01  1.00800000E+00
  1.00800000E+00  1.60000000E+01  1.00800000E+00  1.00800000E+00  1.60000000E+01
  1.00800000E+00  1.00800000E+00  1.60000000E+01  1.00800000E+00  1.00800000E+00
  1.60000000E+01  1.00800000E+00  1.00800000E+00  1.60000000E+01  1.00800000E+00
  1.00800000E+00  1.60000000E+01  1.00800000E+00  1.00800000E+00  1.60000000E+01
  1.00800000E+00  1.00800000E+00  1.60000000E+01  1.00800000E+00  1.00800000E+00
  1.60000000E+01  1.00800000E+00  1.00800000E+00  1.60000000E+01  1.00800000E+00
  1.00800000E+00  1.60000000E+01  1.00800000E+00  1.00800000E+00  1.60000000E+01
  1.00800000E+00  1.00800000E+00  1.60000000E+01  1.00800000E+00  1.00800000E+00
  1.60000000E+01  1.00800000E+00  1.00800000E+00  1.60000000E+01  1.00800000E+00
  1.00800000E+00  1.60000000E+01  1.00800000E+00  1.00800000E+00  1.60000000E+01
  1.00800000E+00  1.00800000E+00  1.60000000E+01  1.00800000E+00  1.00800000E+00
  1.60000000E+01  1.00800000E+00  1.00800000E+00  1.60000000E+01  1.00800000E+00
  1.00800000E+00  1.60000000E+01  1.00800000E+00  1.00800000E+00  1.60000000E+01
  1.00800000E+00  1.00800000E+00  1.60000000E+01  1.00800000E+00  1.00800000E+00
  1.60000000E+01  1.00800000E+00  1.00800000E+00  1.60000000E+01  1.00800000E+00
  1.00800000E+00  1.60000000E+01  1.00800000E+00  1.00800000E+00  1.60000000E+01
  1.00800000E+00  1.00800000E+00  1.60000000E+01  1.00800000E+00  1.00800000E+00
  1.60000000E+01  1.00800000E+00  1.00800000E+00  1.60000000E+01  1.00800000E+00
  1.00800000E+00  1.60000000E+01  1.00800000E+00  1.00800000E+00  1.60000000E+01
  1.00800000E+00  1.00800000E+00  1.60000000E+01  1.00800000E+00  1.00800000E+00
  1.60000000E+01  1.00800000E+00  1.00800000E+00  1.60000000E+01  1.00800000E+00
  1.00800000E+00  1.60000000E+01  1.00800000E+00  1.00800000E+00  1.60000000E+01
  1.00800000E+00  1.00800000E+00  1.60000000E+01  1.00800000E+00  1.00800000E+00
  1.60000000E+01  1.00800000E+00  1.00800000E+00  1.60000000E+01  1.00800000E+00
  1.00800000E+00  1.60000000E+01  1.00800000E+00  1.00800000E+00  1.60000000E+01
  1.00800000E+00  1.00800000E+00  1.60000000E+01  1.00800000E+00  1.00800000E+00
  1.60000000E+01  1.00800000E+00  1.00800000E+00  1.60000000E+01  1.00800000E+00
  1.00800000E+00  1.60000000E+01  1.00800000E+00  1.00800000E+00  1.60000000E+01
  1.00800000E+00  1.00800000E+00  1.60000000E+01  1.00800000E+00  1.00800000E+00
  1.60000000E+01  1.00800000E+00  1.00800000E+00  1.60000000E+01  1.00800000E+00
  1.00800000E+00  1.60000000E+01  1.00800000E+00  1.00800000E+00  1.60000000E+01
  1.00800000E+00  1.00800000E+00  1.60000000E+01  1.00800000E+00  1.00800000E+00
  1.60000000E+01  1.00800000E+00  1.00800000E+00  1.60000000E+01  1.00800000E+00
  1.00800000E+00  1.60000000E+01  1.00800000E+00  1.00800000E+00  1.60000000E+01
  1.00800000E+00  1.00800000E+00  1.60000000E+01  1.00800000E+00  1.00800000E+00
  1.60000000E+01  1.00800000E+00  1.00800000E+00  1.60000000E+01  1.00800000E+00
  1.00800000E+00  1.60000000E+01  1.00800000E+00  1.00800000E+00  1.60000000E+01
  1.00800000E+00  1.00800000E+00  1.60000000E+01  1.00800000E+00  1.00800000E+00
  1.60000000E+01  1.00800000E+00  1.00800000E+00  1.60000000E+01  1.00800000E+00
  1.00800000E+00  1.60000000E+01  1.00800000E+00  1.00800000E+00  1.60000000E+01
  1.00800000E+00  1.00800000E+00  1.60000000E+01  1.00800000E+00  1.00800000E+00
  1.60000000E+01  1.00800000E+00  1.00800000E+00  1.60000000E+01  1.00800000E+00
  1.00800000E+00  1.60000000E+01  1.00800000E+00  1.00800000E+00  1.60000000E+01
  1.00800000E+00  1.00800000E+00  1.60000000E+01  1.00800000E+00  1.00800000E+00
  1.60000000E+01  1.00800000E+00  1.00800000E+00  1.60000000E+01  1.00800000E+00
  1.00800000E+00  1.60000000E+01  1.00800000E+00  1.00800000E+00  1.60000000E+01
  1.00800000E+00  1.00800000E+00  1.60000000E+01  1.00800000E+00  1.00800000E+00
  1.60000000E+01  1.00800000E+00  1.00800000E+00  1.60000000E+01  1.00800000E+00
  1.00800000E+00  1.60000000E+01  1.00800000E+00  1.00800000E+00  1.60000000E+01
  1.00800000E+00  1.00800000E+00  1.60000000E+01  1.00800000E+00  1.00800000E+00
  1.60000000E+01  1.00800000E+00  1.00800000E+00  1.60000000E+01  1.00800000E+00
  1.00800000E+00  1.60000000E+01  1.00800000E+00  1.00800000E+00  1.60000000E+01
  1.00800000E+00  1.00800000E+00  1.60000000E+01  1.00800000E+00  1.00800000E+00
  1.60000000E+01  1.00800000E+00  1.00800000E+00  1.60000000E+01  1.00800000E+00
  1.00800000E+00  1.60000000E+01  1.00800000E+00  1.00800000E+00  1.60000000E+01
  1.00800000E+00  1.00800000E+00  1.60000000E+01  1.00800000E+00  1.00800000E+00
  1.60000000E+01  1.00800000E+00  1.00800000E+00  1.60000000E+01  1.00800000E+00
  1.00800000E+00  1.60000000E+01  1.00800000E+00  1.00800000E+00  1.60000000E+01
  1.00800000E+00  1.00800000E+00  1.60000000E+01  1.00800000E+00  1.00800000E+00
  1.60000000E+01  1.00800000E+00  1.00800000E+00  1.60000000E+01  1.00800000E+00
  1.00800000E+00  1.60000000E+01  1.00800000E+00  1.00800000E+00  1.60000000E+01
  1.00800000E+00  1.00800000E+00  1.60000000E+01  1.00800000E+00  1.00800000E+00
  1.60000000E+01  1.00800000E+00  1.00800000E+00  1.60000000E+01  1.00800000E+00
  1.00800000E+00  1.60000000E+01  1.00800000E+00  1.00800000E+00  1.60000000E+01
  1.00800000E+00  1.00800000E+00  1.60000000E+01  1.00800000E+00  1.00800000E+00
  1.60000000E+01  1.00800000E+00  1.00800000E+00  1.60000000E+01  1.00800000E+00
  1.00800000E+00  1.60000000E+01  1.00800000E+00  1.00800000E+00  1.60000000E+01
  1.00800000E+00  1.00800000E+00  1.60000000E+01  1.00800000E+00  1.00800000E+00
  1.60000000E+01  1.00800000E+00  1.00800000E+00  1.60000000E+01  1.00800000E+00
  1.00800000E+00  1.60000000E+01  1.00800000E+00  1.00800000E+00  1.60000000E+01
  1.00800000E+00  1.00800000E+00  1.60000000E+01  1.00800000E+00  1.00800000E+00
  1.60000000E+01  1.00800000E+00  1.00800000E+00  1.60000000E+01  1.00800000E+00
  1.00800000E+00  1.60000000E+01  1.00800000E+00  1.00800000E+00  1.60000000E+01
  1.00800000E+00  1.00800000E+00  1.60000000E+01  1.00800000E+00  1.00800000E+00
  1.60000000E+01  1.00800000E+00  1.00800000E+00  1.60000000E+01  1.00800000E+00
  1.00800000E+00  1.60000000E+01  1.00800000E+00  1.00800000E+00  1.60000000E+01
  1.00800000E+00  1.00800000E+00  1.60000000E+01  1.00800000E+00  1.00800000E+00
  1.60000000E+01  1.00800000E+00  1.00800000E+00  1.60000000E+01  1.00800000E+00
  1.00800000E+00  1.60000000E+01  1.00800000E+00  1.00800000E+00  1.60000000E+01
  1.00800000E+00  1.00800000E+00  1.60000000E+01  1.00800000E+00  1.00800000E+00
  1.60000000E+01  1.00800000E+00  1.00800000E+00  1.60000000E+01  1.00800000E+00
  1.00800000E+00  1.60000000E+01  1.00800000E+00  1.00800000E+00  1.60000000E+01
  1.00800000E+00  1.00800000E+00  1.60000000E+01  1.00800000E+00  1.00800000E+00
  1.60000000E+01  1.00800000E+00  1.00800000E+00  1.60000000E+01  1.00800000E+00
  1.00800000E+00  1.60000000E+01  1.00800000E+00  1.00800000E+00  1.60000000E+01
  1.00800000E+00  1.00800000E+00  1.60000000E+01  1.00800000E+00  1.00800000E+00
  1.60000000E+01  1.00800000E+00  1.00800000E+00  1.60000000E+01  1.00800000E+00
  1.00800000E+00  1.60000000E+01  1.00800000E+00  1.00800000E+00  1.60000000E+01
  1.00800000E+00  1.00800000E+00  1.60000000E+01  1.00800000E+00  1.00800000E+00
  1.60000000E+01  1.00800000E+00  1.00800000E+00  1.60000000E+01  1.00800000E+00
  1.00800000E+00  1.60000000E+01  1.00800000E+00  1.00800000E+00  1.60000000E+01
  1.00800000E+00  1.00800000E+00  1.60000000E+01  1.00800000E+00  1.00800000E+00
  1.60000000E+01  1.00800000E+00  1.00800000E+00  1.60000000E+01  1.00800000E+00
  1.00800000E+00  1.60000000E+01  1.00800000E+00  1.00800000E+00  1.60000000E+01
  1.00800000E+00  1.00800000E+00  1.60000000E+01  1.00800000E+00  1.00800000E+00
  1.60000000E+01  1.00800000E+00  1.00800000E+00  1.60000000E+01  1.00800000E+00
  1.00800000E+00  1.60000000E+01  1.00800000E+00  1.00800000E+00  1.60000000E+01
  1.00800000E+00  1.00800000E+00  1.60000000E+01  1.00800000E+00  1.00800000E+00
  1.60000000E+01  1.00800000E+00  1.00800000E+00  1.60000000E+01  1.00800000E+00
  1.00800000E+00  1.60000000E+01  1.00800000E+00  1.00800000E+00  1.60000000E+01
  1.00800000E+00  1.00800000E+00  1.60000000E+01  1.00800000E+00  1.00800000E+00
  1.60000000E+01  1.00800000E+00  1.00800000E+00  1.60000000E+01  1.00800000E+00
  1.00800000E+00  1.60000000E+01  1.00800000E+00  1.00800000E+00  1.60000000E+01
  1.00800000E+00  1.00800000E+00  1.60000000E+01  1.00800000E+00  1.00800000E+00
  1.60000000E+01  1.00800000E+00  1.00800000E+00  1.60000000E+01  1.00800000E+00
  1.00800000E+00  1.60000000E+01  1.00800000E+00  1.00800000E+00  1.60000000E+01
  1.00800000E+00  1.00800000E+00  1.60000000E+01  1.00800000E+00  1.00800000E+00
  1.60000000E+01  1.00800000E+00  1.00800000E+00  1.60000000E+01  1.00800000E+00
  1.00800000E+00  1.60000000E+01  1.00800000E+00  1.00800000E+00  1.60000000E+01
  1.00800000E+00  1.00800000E+00  1.60000000E+01  1.00800000E+00  1.00800000E+00
  1.60000000E+01  1.00800000E+00  1.00800000E+00  1.60000000E+01  1.00800000E+00
  1.00800000E+00  1.60000000E+01  1.00800000E+00  1.00800000E+00  1.60000000E+01
  1.00800000E+00  1.00800000E+00  1.60000000E+01  1.00800000E+00  1.00800000E+00
  1.60000000E+01  1.00800000E+00  1.00800000E+00  1.60000000E+01  1.00800000E+00
  1.00800000E+00  1.60000000E+01  1.00800000E+00  1.00800000E+00  1.60000000E+01
  1.00800000E+00  1.00800000E+00  1.60000000E+01  1.00800000E+00  1.00800000E+00
  1.60000000E+01  1.00800000E+00  1.00800000E+00  1.60000000E+01  1.00800000E+00
  1.00800000E+00  1.60000000E+01  1.00800000E+00  1.00800000E+00  1.60000000E+01
  1.00800000E+00  1.00800000E+00  1.60000000E+01  1.00800000E+00  1.00800000E+00
  1.60000000E+01  1.00800000E+00  1.00800000E+00  1.60000000E+01  1.00800000E+00
  1.00800000E+00  1.60000000E+01  1.00800000E+00  1.00800000E+00  1.60000000E+01
  1.00800000E+00  1.00800000E+00  1.60000000E+01  1.00800000E+00  1.00800000E+00
  1.60000000E+01  1.00800000E+00  1.00800000E+00  1.60000000E+01  1.00800000E+00
  1.00800000E+00  1.60000000E+01  1.00800000E+00  1.00800000E+00  1.60000000E+01
  1.00800000E+00  1.00800000E+00  1.60000000E+01  1.00800000E+00  1.00800000E+00
  1.60000000E+01  1.00800000E+00  1.00800000E+00  1.60000000E+01  1.00800000E+00
  1.00800000E+00  1.60000000E+01  1.00800000E+00  1.00800000E+00  1.60000000E+01
  1.00800000E+00  1.00800000E+00  1.60000000E+01  1.00800000E+00  1.00800000E+00
  1.60000000E+01  1.00800000E+00  1.00800000E+00  1.60000000E+01  1.00800000E+00
  1.00800000E+00  1.60000000E+01  1.00800000E+00  1.00800000E+00  1.60000000E+01
  1.00800000E+00  1.00800000E+00  1.60000000E+01  1.00800000E+00  1.00800000E+00
  1.60000000E+01  1.00800000E+00  1.00800000E+00  1.60000000E+01  1.00800000E+00
  1.00800000E+00  1.60000000E+01  1.00800000E+00  1.00800000E+00  1.60000000E+01
  1.00800000E+00  1.00800000E+00  1.60000000E+01  1.00800000E+00  1.00800000E+00
  1.60000000E+01  1.00800000E+00  1.00800000E+00  1.60000000E+01  1.00800000E+00
  1.00800000E+00  1.60000000E+01  1.00800000E+00  1.00800000E+00  1.60000000E+01
  1.00800000E+00  1.00800000E+00  1.60000000E+01  1.00800000E+00  1.00800000E+00
  1.60000000E+01  1.00800000E+00  1.00800000E+00  1.60000000E+01  1.00800000E+00
  1.00800000E+00  1.60000000E+01  1.00800000E+00  1.00800000E+00  1.60000000E+01
  1.00800000E+00  1.00800000E+00  1.60000000E+01  1.00800000E+00  1.00800000E+00
  1.60000000E+01  1.00800000E+00  1.00800000E+00  1.60000000E+01  1.00800000E+00
  1.00800000E+00  1.60000000E+01  1.00800000E+00  1.00800000E+00  1.60000000E+01
  1.00800000E+00  1.00800000E+00  1.60000000E+01  1.00800000E+00  1.00800000E+00
  1.60000000E+01  1.00800000E+00  1.00800000E+00  1.60000000E+01  1.00800000E+00
  1.00800000E+00  1.60000000E+01  1.00800000E+00  1.00800000E+00  1.60000000E+01
  1.00800000E+00  1.00800000E+00  1.60000000E+01  1.00800000E+00  1.00800000E+00
  1.60000000E+01  1.00800000E+00  1.00800000E+00  1.60000000E+01  1.00800000E+00
  1.00800000E+00  1.60000000E+01  1.00800000E+00  1.00800000E+00  1.60000000E+01
  1.00800000E+00  1.00800000E+00  1.60000000E+01  1.00800000E+00  1.00800000E+00
  1.60000000E+01  1.00800000E+00  1.00800000E+00  1.60000000E+01  1.00800000E+00
  1.00800000E+00  1.60000000E+01  1.00800000E+00  1.00800000E+00  1.60000000E+01
  1.00800000E+00  1.00800000E+00  1.60000000E+01  1.00800000E+00  1.00800000E+00
  1.60000000E+01  1.00800000E+00  1.00800000E+00  1.60000000E+01  1.00800000E+00
  1.00800000E+00  1.60000000E+01  1.00800000E+00  1.00800000E+00  1.60000000E+01
  1.00800000E+00  1.00800000E+00  1.60000000E+01  1.00800000E+00  1.00800000E+00
  1.60000000E+01  1.00800000E+00  1.00800000E+00  1.60000000E+01  1.00800000E+00
  1.00800000E+00  1.60000000E+01  1.00800000E+00  1.00800000E+00  1.60000000E+01
  1.00800000E+00  1.00800000E+00  1.60000000E+01  1.00800000E+00  1.00800000E+00
  1.60000000E+01  1.00800000E+00  1.00800000E+00  1.60000000E+01  1.00800000E+00
  1.00800000E+00  1.60000000E+01  1.00800000E+00  1.00800000E+00  1.60000000E+01
  1.00800000E+00  1.00800000E+00  1.60000000E+01  1.00800000E+00  1.00800000E+00
  1.60000000E+01  1.00800000E+00  1.00800000E+00  1.60000000E+01  1.00800000E+00
  1.00800000E+00  1.60000000E+01  1.00800000E+00  1.00800000E+00  1.60000000E+01
  1.00800000E+00  1.00800000E+00  1.60000000E+01  1.00800000E+00  1.00800000E+00
  1.60000000E+01  1.00800000E+00  1.00800000E+00  1.60000000E+01  1.00800000E+00
  1.00800000E+00  1.60000000E+01  1.00800000E+00  1.00800000E+00  1.60000000E+01
  1.00800000E+00  1.00800000E+00  1.60000000E+01  1.00800000E+00  1.00800000E+00
  1.60000000E+01  1.00800000E+00  1.00800000E+00  1.60000000E+01  1.00800000E+00
  1.00800000E+00  1.60000000E+01  1.00800000E+00  1.00800000E+00  1.60000000E+01
  1.00800000E+00  1.00800000E+00  1.60000000E+01  1.00800000E+00  1.00800000E+00
  1.60000000E+01  1.00800000E+00  1.00800000E+00  1.60000000E+01  1.00800000E+00
  1.00800000E+00  1.60000000E+01  1.00800000E+00  1.00800000E+00  1.60000000E+01
  1.00800000E+00  1.00800000E+00  1.60000000E+01  1.00800000E+00  1.00800000E+00
  1.60000000E+01  1.00800000E+00  1.00800000E+00  1.60000000E+01  1.00800000E+00
  1.00800000E+00  1.60000000E+01  1.00800000E+00  1.00800000E+00  1.60000000E+01
  1.00800000E+00  1.00800000E+00  1.60000000E+01  1.00800000E+00  1.00800000E+00
  1.60000000E+01  1.00800000E+00  1.00800000E+00  1.60000000E+01  1.00800000E+00
  1.00800000E+00  1.60000000E+01  1.00800000E+00  1.00800000E+00  1.60000000E+01
  1.00800000E+00  1.00800000E+00  1.60000000E+01  1.00800000E+00  1.00800000E+00
  1.60000000E+01  1.00800000E+00  1.00800000E+00  1.60000000E+01  1.00800000E+00
  1.00800000E+00  1.60000000E+01  1.00800000E+00  1.00800000E+00  1.60000000E+01
  1.00800000E+00  1.00800000E+00  1.60000000E+01  1.00800000E+00  1.00800000E+00
  1.60000000E+01  1.00800000E+00  1.00800000E+00  1.60000000E+01  1.00800000E+00
  1.00800000E+00  1.60000000E+01  1.00800000E+00  1.00800000E+00  1.60000000E+01
  1.00800000E+00  1.00800000E+00  1.60000000E+01  1.00800000E+00  1.00800000E+00
  1.60000000E+01  1.00800000E+00  1.00800000E+00  1.60000000E+01  1.00800000E+00
  1.00800000E+00  1.60000000E+01  1.00800000E+00  1.00800000E+00  1.60000000E+01
  1.00800000E+00  1.00800000E+00  1.60000000E+01  1.00800000E+00  1.00800000E+00
  1.60000000E+01  1.00800000E+00  1.00800000E+00  1.60000000E+01  1.00800000E+00
  1.00800000E+00  1.60000000E+01  1.00800000E+00  1.00800000E+00  1.60000000E+01
  1.00800000E+00  1.00800000E+00  1.60000000E+01  1.00800000E+00  1.00800000E+00
  1.60000000E+01  1.00800000E+00  1.00800000E+00  1.60000000E+01  1.00800000E+00
  1.00800000E+00  1.60000000E+01  1.00800000E+00  1.00800000E+00  1.60000000E+01
  1.00800000E+00  1.00800000E+00  1.60000000E+01  1.00800000E+00  1.00800000E+00
  1.60000000E+01  1.00800000E+00  1.00800000E+00  1.60000000E+01  1.00800000E+00
  1.00800000E+00  1.60000000E+01  1.00800000E+00  1.00800000E+00  1.60000000E+01
  1.00800000E+00  1.00800000E+00  1.60000000E+01  1.00800000E+00  1.00800000E+00
  1.60000000E+01  1.00800000E+00  1.00800000E+00  1.60000000E+01  1.00800000E+00
  1.00800000E+00  1.60000000E+01  1.00800000E+00  1.00800000E+00  1.60000000E+01
  1.00800000E+00  1.00800000E+00  1.60000000E+01  1.00800000E+00  1.00800000E+00
  1.60000000E+01  1.00800000E+00  1.00800000E+00  1.60000000E+01  1.00800000E+00
  1.00800000E+00  1.60000000E+01  1.00800000E+00  1.00800000E+00  1.60000000E+01
  1.00800000E+00  1.00800000E+00  1.60000000E+01  1.00800000E+00  1.00800000E+00
  1.60000000E+01  1.00800000E+00  1.00800000E+00  1.60000000E+01  1.00800000E+00
  1.00800000E+00  1.60000000E+01  1.00800000E+00  1.00800000E+00  1.60000000E+01
  1.00800000E+00  1.00800000E+00  1.60000000E+01  1.00800000E+00  1.00800000E+00
  1.60000000E+01  1.00800000E+00  1.00800000E+00  1.60000000E+01  1.00800000E+00
  1.00800000E+00  1.60000000E+01  1.00800000E+00  1.00800000E+00  1.60000000E+01
  1.00800000E+00  1.00800000E+00  1.60000000E+01  1.00800000E+00  1.00800000E+00
  1.60000000E+01  1.00800000E+00  1.00800000E+00  1.60000000E+01  1.00800000E+00
  1.00800000E+00  1.60000000E+01  1.00800000E+00  1.00800000E+00  1.60000000E+01
  1.00800000E+00  1.00800000E+00  1.60000000E+01  1.00800000E+00  1.00800000E+00
  1.60000000E+01  1.00800000E+00  1.00800000E+00  1.60000000E+01  1.00800000E+00
  1.00800000E+00  1.60000000E+01  1.00800000E+00  1.00800000E+00  1.60000000E+01
  1.00800000E+00  1.00800000E+00  1.60000000E+01  1.00800000E+00  1.00800000E+00
  1.60000000E+01  1.00800000E+00  1.00800000E+00  1.60000000E+01  1.00800000E+00
  1.00800000E+00  1.60000000E+01  1.00800000E+00  1.00800000E+00  1.60000000E+01
  1.00800000E+00  1.00800000E+00  1.60000000E+01  1.00800000E+00  1.00800000E+00
  1.60000000E+01  1.00800000E+00  1.00800000E+00  1.60000000E+01  1.00800000E+00
  1.00800000E+00  1.60000000E+01  1.00800000E+00  1.00800000E+00  1.60000000E+01
  1.00800000E+00  1.00800000E+00  1.60000000E+01  1.00800000E+00  1.00800000E+00
  1.60000000E+01  1.00800000E+00  1.00800000E+00  1.60000000E+01  1.00800000E+00
  1.00800000E+00  1.60000000E+01  1.00800000E+00  1.00800000E+00  1.60000000E+01
  1.00800000E+00  1.00800000E+00  1.60000000E+01  1.00800000E+00  1.00800000E+00
  1.60000000E+01  1.00800000E+00  1.00800000E+00  1.60000000E+01  1.00800000E+00
  1.00800000E+00  1.60000000E+01  1.00800000E+00  1.00800000E+00  1.60000000E+01
  1.00800000E+00  1.00800000E+00  1.60000000E+01  1.00800000E+00  1.00800000E+00
  1.60000000E+01  1.00800000E+00  1.00800000E+00  1.60000000E+01  1.00800000E+00
  1.00800000E+00  1.60000000E+01  1.00800000E+00  1.00800000E+00  1.60000000E+01
  1.00800000E+00  1.00800000E+00  1.60000000E+01  1.00800000E+00  1.00800000E+00
  1.60000000E+01  1.00800000E+00  1.00800000E+00  1.60000000E+01  1.00800000E+00
  1.00800000E+00  1.60000000E+01  1.00800000E+00  1.00800000E+00  1.60000000E+01
  1.00800000E+00  1.00800000E+00  1.60000000E+01  1.00800000E+00  1.00800000E+00
  1.60000000E+01  1.00800000E+00  1.00800000E+00  1.60000000E+01  1.00800000E+00
  1.00800000E+00  1.60000000E+01  1.00800000E+00  1.00800000E+00  1.60000000E+01
  1.00800000E+00  1.00800000E+00  1.60000000E+01  1.00800000E+00  1.00800000E+00
  1.60000000E+01  1.00800000E+00  1.00800000E+00  1.60000000E+01  1.00800000E+00
  1.00800000E+00  1.60000000E+01  1.00800000E+00  1.00800000E+00  1.60000000E+01
  1.00800000E+00  1.00800000E+00  1.60000000E+01  1.00800000E+00  1.00800000E+00
  1.60000000E+01  1.00800000E+00  1.00800000E+00  1.60000000E+01  1.00800000E+00
  1.00800000E+00  1.60000000E+01  1.00800000E+00  1.00800000E+00  1.60000000E+01
  1.00800000E+00  1.00800000E+00  1.60000000E+01  1.00800000E+00  1.00800000E+00
  1.60000000E+01  1.00800000E+00  1.00800000E+00  1.60000000E+01  1.00800000E+00
  1.00800000E+00  1.60000000E+01  1.00800000E+00  1.00800000E+00  1.60000000E+01
  1.00800000E+00  1.00800000E+00  1.60000000E+01  1.00800000E+00  1.00800000E+00
  1.60000000E+01  1.00800000E+00  1.00800000E+00  1.60000000E+01  1.00800000E+00
  1.00800000E+00  1.60000000E+01  1.00800000E+00  1.00800000E+00  1.60000000E+01
  1.00800000E+00  1.00800000E+00  1.60000000E+01  1.00800000E+00  1.00800000E+00
  1.60000000E+01  1.00800000E+00  1.00800000E+00  1.60000000E+01  1.00800000E+00
  1.00800000E+00  1.60000000E+01  1.00800000E+00  1.00800000E+00  1.60000000E+01
  1.00800000E+00  1.00800000E+00  1.60000000E+01  1.00800000E+00  1.00800000E+00
  1.60000000E+01  1.00800000E+00  1.00800000E+00  1.60000000E+01  1.00800000E+00
  1.00800000E+00  1.60000000E+01  1.00800000E+00  1.00800000E+00  1.60000000E+01
  1.00800000E+00  1.00800000E+00  1.60000000E+01  1.00800000E+00  1.00800000E+00
  1.60000000E+01  1.00800000E+00  1.00800000E+00  1.60000000E+01  1.00800000E+00
  1.00800000E+00  1.60000000E+01  1.00800000E+00  1.00800000E+00  1.60000000E+01
  1.00800000E+00  1.00800000E+00  1.60000000E+01  1.00800000E+00  1.00800000E+00
  1.60000000E+01  1.00800000E+00  1.00800000E+00  1.60000000E+01  1.00800000E+00
  1.00800000E+00  1.60000000E+01  1.00800000E+00  1.00800000E+00  1.60000000E+01
  1.00800000E+00  1.00800000E+00  1.60000000E+01  1.00800000E+00  1.00800000E+00
  1.60000000E+01  1.00800000E+00  1.00800000E+00  1.60000000E+01  1.00800000E+00
  1.00800000E+00  1.60000000E+01  1.00800000E+00  1.00800000E+00  1.60000000E+01
  1.00800000E+00  1.00800000E+00  1.60000000E+01  1.00800000E+00  1.00800000E+00
  1.60000000E+01  1.00800000E+00  1.00800000E+00  1.60000000E+01  1.00800000E+00
  1.00800000E+00  1.60000000E+01  1.00800000E+00  1.00800000E+00  1.60000000E+01
  1.00800000E+00  1.00800000E+00  1.60000000E+01  1.00800000E+00  1.00800000E+00
  1.60000000E+01  1.00800000E+00  1.00800000E+00  1.60000000E+01  1.00800000E+00
  1.00800000E+00  1.60000000E+01  1.00800000E+00  1.00800000E+00  1.60000000E+01
  1.00800000E+00  1.00800000E+00  1.60000000E+01  1.00800000E+00  1.00800000E+00
  1.60000000E+01  1.00800000E+00  1.00800000E+00  1.60000000E+01  1.00800000E+00
  1.00800000E+00  1.60000000E+01  1.00800000E+00  1.00800000E+00  1.60000000E+01
  1.00800000E+00  1.00800000E+00  1.60000000E+01  1.00800000E+00  1.00800000E+00
  1.60000000E+01  1.00800000E+00  1.00800000E+00  1.60000000E+01  1.00800000E+00
  1.00800000E+00  1.60000000E+01  1.00800000E+00  1.00800000E+00  1.60000000E+01
  1.00800000E+00  1.00800000E+00  1.60000000E+01  1.00800000E+00  1.00800000E+00
  1.60000000E+01  1.00800000E+00  1.00800000E+00  1.60000000E+01  1.00800000E+00
  1.00800000E+00  1.60000000E+01  1.00800000E+00  1.00800000E+00  1.60000000E+01
  1.00800000E+00  1.00800000E+00  1.60000000E+01  1.00800000E+00  1.00800000E+00
  1.60000000E+01  1.00800000E+00  1.00800000E+00  1.60000000E+01  1.00800000E+00
  1.00800000E+00  1.60000000E+01  1.00800000E+00  1.00800000E+00  1.60000000E+01
  1.00800000E+00  1.00800000E+00  1.60000000E+01  1.00800000E+00  1.00800000E+00
  1.60000000E+01  1.00800000E+00  1.00800000E+00  1.60000000E+01  1.00800000E+00
  1.00800000E+00  1.60000000E+01  1.00800000E+00  1.00800000E+00  1.60000000E+01
  1.00800000E+00  1.00800000E+00  1.60000000E+01  1.00800000E+00  1.00800000E+00
  1.60000000E+01  1.00800000E+00  1.00800000E+00  1.60000000E+01  1.00800000E+00
  1.00800000E+00  1.60000000E+01  1.00800000E+00  1.00800000E+00  1.60000000E+01
  1.00800000E+00  1.00800000E+00  1.60000000E+01  1.00800000E+00  1.00800000E+00
  1.60000000E+01  1.00800000E+00  1.00800000E+00  1.60000000E+01  1.00800000E+00
  1.00800000E+00  1.60000000E+01  1.00800000E+00  1.00800000E+00  1.60000000E+01
  1.00800000E+00  1.00800000E+00  1.60000000E+01  1.00800000E+00  1.00800000E+00
  1.60000000E+01  1.00800000E+00  1.00800000E+00  1.60000000E+01  1.00800000E+00
  1.00800000E+00  1.60000000E+01  1.00800000E+00  1.00800000E+00  1.60000000E+01
  1.00800000E+00  1.00800000E+00  1.60000000E+01  1.00800000E+00  1.00800000E+00
  1.60000000E+01  1.00800000E+00  1.00800000E+00  1.60000000E+01  1.00800000E+00
  1.00800000E+00  1.60000000E+01  1.00800000E+00  1.00800000E+00  1.60000000E+01
  1.00800000E+00  1.00800000E+00  1.60000000E+01  1.00800000E+00  1.00800000E+00
  1.60000000E+01  1.00800000E+00  1.00800000E+00  1.60000000E+01  1.00800000E+00
  1.00800000E+00  1.60000000E+01  1.00800000E+00  1.00800000E+00  1.60000000E+01
  1.00800000E+00  1.00800000E+00  1.60000000E+01  1.00800000E+00  1.00800000E+00
  1.60000000E+01  1.00800000E+00  1.00800000E+00  1.60000000E+01  1.00800000E+00
  1.00800000E+00  1.60000000E+01  1.00800000E+00  1.00800000E+00  1.60000000E+01
  1.00800000E+00  1.00800000E+00  1.60000000E+01  1.00800000E+00  1.00800000E+00
  1.60000000E+01  1.00800000E+00  1.00800000E+00  1.60000000E+01  1.00800000E+00
  1.00800000E+00  1.60000000E+01  1.00800000E+00  1.00800000E+00  1.60000000E+01
  1.00800000E+00  1.00800000E+00  1.60000000E+01  1.00800000E+00  1.00800000E+00
  1.60000000E+01  1.00800000E+00  1.00800000E+00  1.60000000E+01  1.00800000E+00
  1.00800000E+00  1.60000000E+01  1.00800000E+00  1.00800000E+00  1.60000000E+01
  1.00800000E+00  1.00800000E+00  1.60000000E+01  1.00800000E+00  1.00800000E+00
  1.60000000E+01  1.00800000E+00  1.00800000E+00  1.60000000E+01  1.00800000E+00
  1.00800000E+00  1.60000000E+01  1.00800000E+00  1.00800000E+00  1.60000000E+01
  1.00800000E+00  1.00800000E+00  1.60000000E+01  1.00800000E+00  1.00800000E+00
  1.60000000E+01  1.00800000E+00  1.00800000E+00  1.60000000E+01  1.00800000E+00
  1.00800000E+00  1.60000000E+01  1.00800000E+00  1.00800000E+00  1.60000000E+01
  1.00800000E+00  1.00800000E+00  1.60000000E+01  1.00800000E+00  1.00800000E+00
  1.60000000E+01  1.00800000E+00  1.00800000E+00  1.60000000E+01  1.00800000E+00
  1.00800000E+00  1.60000000E+01  1.00800000E+00  1.00800000E+00  1.60000000E+01
  1.00800000E+00  1.00800000E+00  1.60000000E+01  1.00800000E+00  1.00800000E+00
  1.60000000E+01  1.00800000E+00  1.00800000E+00  1.60000000E+01  1.00800000E+00
  1.00800000E+00  1.60000000E+01  1.00800000E+00  1.00800000E+00  1.60000000E+01
  1.00800000E+00  1.00800000E+00  1.60000000E+01  1.00800000E+00  1.00800000E+00
  1.60000000E+01  1.00800000E+00  1.00800000E+00  1.60000000E+01  1.00800000E+00
  1.00800000E+00  1.60000000E+01  1.00800000E+00  1.00800000E+00  1.60000000E+01
  1.00800000E+00  1.00800000E+00  1.60000000E+01  1.00800000E+00  1.00800000E+00
  1.60000000E+01  1.00800000E+00  1.00800000E+00  1.60000000E+01  1.00800000E+00
  1.00800000E+00  1.60000000E+01  1.00800000E+00  1.00800000E+00  1.60000000E+01
  1.00800000E+00  1.00800000E+00  1.60000000E+01  1.00800000E+00  1.00800000E+00
  1.60000000E+01  1.00800000E+00  1.00800000E+00  1.60000000E+01  1.00800000E+00
  1.00800000E+00  1.60000000E+01  1.00800000E+00  1.00800000E+00  1.60000000E+01
  1.00800000E+00  1.00800000E+00  1.60000000E+01  1.00800000E+00  1.00800000E+00
  1.60000000E+01  1.00800000E+00  1.00800000E+00  1.60000000E+01  1.00800000E+00
  1.00800000E+00  1.60000000E+01  1.00800000E+00  1.00800000E+00  1.60000000E+01
  1.00800000E+00  1.00800000E+00  1.60000000E+01  1.00800000E+00  1.00800000E+00
  1.60000000E+01  1.00800000E+00  1.00800000E+00  1.60000000E+01  1.00800000E+00
  1.00800000E+00  1.60000000E+01  1.00800000E+00  1.00800000E+00  1.60000000E+01
  1.00800000E+00  1.00800000E+00  1.60000000E+01  1.00800000E+00  1.00800000E+00
  1.60000000E+01  1.00800000E+00  1.00800000E+00  1.60000000E+01  1.00800000E+00
  1.00800000E+00  1.60000000E+01  1.00800000E+00  1.00800000E+00  1.60000000E+01
  1.00800000E+00  1.00800000E+00  1.60000000E+01  1.00800000E+00  1.00800000E+00
  1.60000000E+01  1.00800000E+00  1.00800000E+00  1.60000000E+01  1.00800000E+00
  1.00800000E+00  1.60000000E+01  1.00800000E+00  1.00800000E+00  1.60000000E+01
  1.00800000E+00  1.00800000E+00  1.60000000E+01  1.00800000E+00  1.00800000E+00
  1.60000000E+01  1.00800000E+00  1.00800000E+00  1.60000000E+01  1.00800000E+00
  1.00800000E+00  1.60000000E+01  1.00800000E+00  1.00800000E+00  1.60000000E+01
  1.00800000E+00  1.00800000E+00  1.60000000E+01  1.00800000E+00  1.00800000E+00
  1.60000000E+01  1.00800000E+00  1.00800000E+00  1.60000000E+01  1.00800000E+00
  1.00800000E+00  1.60000000E+01  1.00800000E+00  1.00800000E+00  1.60000000E+01
  1.00800000E+00  1.00800000E+00  1.60000000E+01  1.00800000E+00  1.00800000E+00
  1.60000000E+01  1.00800000E+00  1.00800000E+00  1.60000000E+01  1.00800000E+00
  1.00800000E+00  1.60000000E+01  1.00800000E+00  1.00800000E+00  1.60000000E+01
  1.00800000E+00  1.00800000E+00  1.60000000E+01  1.00800000E+00  1.00800000E+00
  1.60000000E+01  1.00800000E+00  1.00800000E+00  1.60000000E+01  1.00800000E+00
  1.00800000E+00  1.60000000E+01  1.00800000E+00  1.00800000E+00  1.60000000E+01
  1.00800000E+00  1.00800000E+00  1.60000000E+01  1.00800000E+00  1.00800000E+00
  1.60000000E+01  1.00800000E+00  1.00800000E+00  1.60000000E+01  1.00800000E+00
  1.00800000E+00  1.60000000E+01  1.00800000E+00  1.00800000E+00  1.60000000E+01
  1.00800000E+00  1.00800000E+00  1.60000000E+01  1.00800000E+00  1.00800000E+00
  1.60000000E+01  1.00800000E+00  1.00800000E+00  1.60000000E+01  1.00800000E+00
  1.00800000E+00  1.60000000E+01  1.00800000E+00  1.00800000E+00  1.60000000E+01
  1.00800000E+00  1.00800000E+00  1.60000000E+01  1.00800000E+00  1.00800000E+00
  1.60000000E+01  1.00800000E+00  1.00800000E+00  1.60000000E+01  1.00800000E+00
  1.00800000E+00  1.60000000E+01  1.00800000E+00  1.00800000E+00  1.60000000E+01
  1.00800000E+00  1.00800000E+00  1.60000000E+01  1.00800000E+00  1.00800000E+00
  1.60000000E+01  1.00800000E+00  1.00800000E+00  1.60000000E+01  1.00800000E+00
  1.00800000E+00  1.60000000E+01  1.00800000E+00  1.00800000E+00  1.60000000E+01
  1.00800000E+00  1.00800000E+00  1.60000000E+01  1.00800000E+00  1.00800000E+00
  1.60000000E+01  1.00800000E+00  1.00800000E+00  1.60000000E+01  1.00800000E+00
  1.00800000E+00  1.60000000E+01  1.00800000E+00  1.00800000E+00  1.60000000E+01
  1.00800000E+00  1.00800000E+00  1.60000000E+01  1.00800000E+00  1.00800000E+00
  1.60000000E+01  1.00800000E+00  1.00800000E+00  1.60000000E+01  1.00800000E+00
  1.00800000E+00  1.60000000E+01  1.00800000E+00  1.00800000E+00  1.60000000E+01
  1.00800000E+00  1.00800000E+00  1.60000000E+01  1.00800000E+00  1.00800000E+00
  1.60000000E+01  1.00800000E+00  1.00800000E+00  1.60000000E+01  1.00800000E+00
  1.00800000E+00  1.60000000E+01  1.00800000E+00  1.00800000E+00  1.60000000E+01
  1.00800000E+00  1.00800000E+00  1.60000000E+01  1.00800000E+00  1.00800000E+00
  1.60000000E+01  1.00800000E+00  1.00800000E+00  1.60000000E+01  1.00800000E+00
  1.00800000E+00  1.60000000E+01  1.00800000E+00  1.00800000E+00  1.60000000E+01
  1.00800000E+00  1.00800000E+00  1.60000000E+01  1.00800000E+00  1.00800000E+00
  1.60000000E+01  1.00800000E+00  1.00800000E+00  1.60000000E+01  1.00800000E+00
  1.00800000E+00  1.60000000E+01  1.00800000E+00  1.00800000E+00  1.60000000E+01
  1.00800000E+00  1.00800000E+00  1.60000000E+01  1.00800000E+00  1.00800000E+00
  1.60000000E+01  1.00800000E+00  1.00800000E+00  1.60000000E+01  1.00800000E+00
  1.00800000E+00  1.60000000E+01  1.00800000E+00  1.00800000E+00  1.60000000E+01
  1.00800000E+00  1.00800000E+00  1.60000000E+01  1.00800000E+00  1.00800000E+00
  1.60000000E+01  1.00800000E+00  1.00800000E+00  1.60000000E+01  1.00800000E+00
  1.00800000E+00  1.60000000E+01  1.00800000E+00  1.00800000E+00  1.60000000E+01
  1.00800000E+00  1.00800000E+00  1.60000000E+01  1.00800000E+00  1.00800000E+00
  1.60000000E+01  1.00800000E+00  1.00800000E+00  1.60000000E+01  1.00800000E+00
  1.00800000E+00  1.60000000E+01  1.00800000E+00  1.00800000E+00  1.60000000E+01
  1.00800000E+00  1.00800000E+00  1.60000000E+01  1.00800000E+00  1.00800000E+00
  1.60000000E+01  1.00800000E+00  1.00800000E+00  1.60000000E+01  1.00800000E+00
  1.00800000E+00  1.60000000E+01  1.00800000E+00  1.00800000E+00  1.60000000E+01
  1.00800000E+00  1.00800000E+00  1.60000000E+01  1.00800000E+00  1.00800000E+00
  1.60000000E+01  1.00800000E+00  1.00800000E+00  1.60000000E+01  1.00800000E+00
  1.00800000E+00  1.60000000E+01  1.00800000E+00  1.00800000E+00  1.60000000E+01
  1.00800000E+00  1.00800000E+00  1.60000000E+01  1.00800000E+00  1.00800000E+00
  1.60000000E+01  1.00800000E+00  1.00800000E+00  1.60000000E+01  1.00800000E+00
  1.00800000E+00  1.60000000E+01  1.00800000E+00  1.00800000E+00  1.60000000E+01
  1.00800000E+00  1.00800000E+00  1.60000000E+01  1.00800000E+00  1.00800000E+00
  1.60000000E+01  1.00800000E+00  1.00800000E+00  1.60000000E+01  1.00800000E+00
  1.00800000E+00  1.60000000E+01  1.00800000E+00  1.00800000E+00  1.60000000E+01
  1.00800000E+00  1.00800000E+00  1.60000000E+01  1.00800000E+00  1.00800000E+00
  1.60000000E+01  1.00800000E+00  1.00800000E+00  1.60000000E+01  1.00800000E+00
  1.00800000E+00  1.60000000E+01  1.00800000E+00  1.00800000E+00  1.60000000E+01
  1.00800000E+00  1.00800000E+00  1.60000000E+01  1.00800000E+00  1.00800000E+00
  1.60000000E+01  1.00800000E+00  1.00800000E+00  1.60000000E+01  1.00800000E+00
  1.00800000E+00  1.60000000E+01  1.00800000E+00  1.00800000E+00  1.60000000E+01
  1.00800000E+00  1.00800000E+00  1.60000000E+01  1.00800000E+00  1.00800000E+00
  1.60000000E+01  1.00800000E+00  1.00800000E+00  1.60000000E+01  1.00800000E+00
  1.00800000E+00  1.60000000E+01  1.00800000E+00  1.00800000E+00  1.60000000E+01
  1.00800000E+00  1.00800000E+00  1.60000000E+01  1.00800000E+00  1.00800000E+00
  1.60000000E+01  1.00800000E+00  1.00800000E+00  1.60000000E+01  1.00800000E+00
  1.00800000E+00  1.60000000E+01  1.00800000E+00  1.00800000E+00  1.60000000E+01
  1.00800000E+00  1.00800000E+00  1.60000000E+01  1.00800000E+00  1.00800000E+00
  1.60000000E+01  1.00800000E+00  1.00800000E+00  1.60000000E+01  1.00800000E+00
  1.00800000E+00  1.60000000E+01  1.00800000E+00  1.00800000E+00  1.60000000E+01
  1.00800000E+00  1.00800000E+00  1.60000000E+01  1.00800000E+00  1.00800000E+00
  1.60000000E+01  1.00800000E+00  1.00800000E+00  1.60000000E+01  1.00800000E+00
  1.00800000E+00  1.60000000E+01  1.00800000E+00  1.00800000E+00  1.60000000E+01
  1.00800000E+00  1.00800000E+00  1.60000000E+01  1.00800000E+00  1.00800000E+00
  1.60000000E+01  1.00800000E+00  1.00800000E+00  1.60000000E+01  1.00800000E+00
  1.00800000E+00  1.60000000E+01  1.00800000E+00  1.00800000E+00  1.60000000E+01
  1.00800000E+00  1.00800000E+00  1.60000000E+01  1.00800000E+00  1.00800000E+00
  1.60000000E+01  1.00800000E+00  1.00800000E+00  1.60000000E+01  1.00800000E+00
  1.00800000E+00  1.60000000E+01  1.00800000E+00  1.00800000E+00  1.60000000E+01
  1.00800000E+00  1.00800000E+00  1.60000000E+01  1.00800000E+00  1.00800000E+00
  1.60000000E+01  1.00800000E+00  1.00800000E+00  1.60000000E+01  1.00800000E+00
  1.00800000E+00  1.60000000E+01  1.00800000E+00  1.00800000E+00  1.60000000E+01
  1.00800000E+00  1.00800000E+00  1.60000000E+01  1.00800000E+00  1.00800000E+00
  1.60000000E+01  1.00800000E+00  1.00800000E+00  1.60000000E+01  1.00800000E+00
  1.00800000E+00  1.60000000E+01  1.00800000E+00  1.00800000E+00  1.60000000E+01
  1.00800000E+00  1.00800000E+00  1.60000000E+01  1.00800000E+00  1.00800000E+00
  1.60000000E+01  1.00800000E+00  1.00800000E+00  1.60000000E+01  1.00800000E+00
  1.00800000E+00  1.60000000E+01  1.00800000E+00  1.00800000E+00  1.60000000E+01
  1.00800000E+00  1.00800000E+00  1.60000000E+01  1.00800000E+00  1.00800000E+00
  1.60000000E+01  1.00800000E+00  1.00800000E+00  1.60000000E+01  1.00800000E+00
  1.00800000E+00  1.60000000E+01  1.00800000E+00  1.00800000E+00  1.60000000E+01
  1.00800000E+00  1.00800000E+00  1.60000000E+01  1.00800000E+00  1.00800000E+00
  1.60000000E+01  1.00800000E+00  1.00800000E+00  1.60000000E+01  1.00800000E+00
  1.00800000E+00  1.60000000E+01  1.00800000E+00  1.00800000E+00  1.60000000E+01
  1.00800000E+00  1.00800000E+00  1.60000000E+01  1.00800000E+00  1.00800000E+00
  1.60000000E+01  1.00800000E+00  1.00800000E+00  1.60000000E+01  1.00800000E+00
  1.00800000E+00  1.60000000E+01  1.00800000E+00  1.00800000E+00  1.60000000E+01
  1.00800000E+00  1.00800000E+00  1.60000000E+01  1.00800000E+00  1.00800000E+00
  1.60000000E+01  1.00800000E+00  1.00800000E+00  1.60000000E+01  1.00800000E+00
  1.00800000E+00  1.60000000E+01  1.00800000E+00  1.00800000E+00  1.60000000E+01
  1.00800000E+00  1.00800000E+00  1.60000000E+01  1.00800000E+00  1.00800000E+00
  1.60000000E+01  1.00800000E+00  1.00800000E+00  1.60000000E+01  1.00800000E+00
  1.00800000E+00  1.60000000E+01  1.00800000E+00  1.00800000E+00  1.60000000E+01
  1.00800000E+00  1.00800000E+00  1.60000000E+01  1.00800000E+00  1.00800000E+00
  1.60000000E+01  1.00800000E+00  1.00800000E+00  1.60000000E+01  1.00800000E+00
  1.00800000E+00  1.60000000E+01  1.00800000E+00  1.00800000E+00  1.60000000E+01
  1.00800000E+00  1.00800000E+00  1.60000000E+01  1.00800000E+00  1.00800000E+00
  1.60000000E+01  1.00800000E+00  1.00800000E+00  1.60000000E+01  1.00800000E+00
  1.00800000E+00  1.60000000E+01  1.00800000E+00  1.00800000E+00  1.60000000E+01
  1.00800000E+00  1.00800000E+00  1.60000000E+01  1.00800000E+00  1.00800000E+00
  1.60000000E+01  1.00800000E+00  1.00800000E+00  1.60000000E+01  1.00800000E+00
  1.00800000E+00  1.60000000E+01  1.00800000E+00  1.00800000E+00  1.60000000E+01
  1.00800000E+00  1.00800000E+00  1.60000000E+01  1.00800000E+00  1.00800000E+00
  1.60000000E+01  1.00800000E+00  1.00800000E+00  1.60000000E+01  1.00800000E+00
  1.00800000E+00  1.60000000E+01  1.00800000E+00  1.00800000E+00  1.60000000E+01
  1.00800000E+00  1.00800000E+00  1.60000000E+01  1.00800000E+00  1.00800000E+00
  1.60000000E+01  1.00800000E+00  1.00800000E+00  1.60000000E+01  1.00800000E+00
  1.00800000E+00  1.60000000E+01  1.00800000E+00  1.00800000E+00  1.60000000E+01
  1.00800000E+00  1.00800000E+00  1.60000000E+01  1.00800000E+00  1.00800000E+00
  1.60000000E+01  1.00800000E+00  1.00800000E+00  1.60000000E+01  1.00800000E+00
  1.00800000E+00  1.60000000E+01  1.00800000E+00  1.00800000E+00  1.60000000E+01
  1.00800000E+00  1.00800000E+00  1.60000000E+01  1.00800000E+00  1.00800000E+00
  1.60000000E+01  1.00800000E+00  1.00800000E+00  1.60000000E+01  1.00800000E+00
  1.00800000E+00  1.60000000E+01  1.00800000E+00  1.00800000E+00  1.60000000E+01
  1.00800000E+00  1.00800000E+00  1.60000000E+01  1.00800000E+00  1.00800000E+00
  1.60000000E+01  1.00800000E+00  1.00800000E+00  1.60000000E+01  1.00800000E+00
  1.00800000E+00  1.60000000E+01  1.00800000E+00  1.00800000E+00  1.60000000E+01
  1.00800000E+00  1.00800000E+00  1.60000000E+01  1.00800000E+00  1.00800000E+00
  1.60000000E+01  1.00800000E+00  1.00800000E+00  1.60000000E+01  1.00800000E+00
  1.00800000E+00  1.60000000E+01  1.00800000E+00  1.00800000E+00  1.60000000E+01
  1.00800000E+00  1.00800000E+00  1.60000000E+01  1.00800000E+00  1.00800000E+00
  1.60000000E+01  1.00800000E+00  1.00800000E+00  1.60000000E+01  1.00800000E+00
  1.00800000E+00  1.60000000E+01  1.00800000E+00  1.00800000E+00  1.60000000E+01
  1.00800000E+00  1.00800000E+00  1.60000000E+01  1.00800000E+00  1.00800000E+00
  1.60000000E+01  1.00800000E+00  1.00800000E+00  1.60000000E+01  1.00800000E+00
  1.00800000E+00  1.60000000E+01  1.00800000E+00  1.00800000E+00  1.60000000E+01
  1.00800000E+00  1.00800000E+00  1.60000000E+01  1.00800000E+00  1.00800000E+00
  1.60000000E+01  1.00800000E+00  1.00800000E+00  1.60000000E+01  1.00800000E+00
  1.00800000E+00  1.60000000E+01  1.00800000E+00  1.00800000E+00  1.60000000E+01
  1.00800000E+00  1.00800000E+00  1.60000000E+01  1.00800000E+00  1.00800000E+00
  1.60000000E+01  1.00800000E+00  1.00800000E+00  1.60000000E+01  1.00800000E+00
  1.00800000E+00  1.60000000E+01  1.00800000E+00  1.00800000E+00  1.60000000E+01
  1.00800000E+00  1.00800000E+00  1.60000000E+01  1.00800000E+00  1.00800000E+00
  1.60000000E+01  1.00800000E+00  1.00800000E+00  1.60000000E+01  1.00800000E+00
  1.00800000E+00  1.60000000E+01  1.00800000E+00  1.00800000E+00  1.60000000E+01
  1.00800000E+00  1.00800000E+00  1.60000000E+01  1.00800000E+00  1.00800000E+00
  1.60000000E+01  1.00800000E+00  1.00800000E+00  1.60000000E+01  1.00800000E+00
  1.00800000E+00  1.60000000E+01  1.00800000E+00  1.00800000E+00  1.60000000E+01
  1.00800000E+00  1.00800000E+00  1.60000000E+01  1.00800000E+00  1.00800000E+00
  1.60000000E+01  1.00800000E+00  1.00800000E+00  1.60000000E+01  1.00800000E+00
  1.00800000E+00  1.60000000E+01  1.00800000E+00  1.00800000E+00  1.60000000E+01
  1.00800000E+00  1.00800000E+00  1.60000000E+01  1.00800000E+00  1.00800000E+00
  1.60000000E+01  1.00800000E+00  1.00800000E+00  1.60000000E+01  1.00800000E+00
  1.00800000E+00  1.60000000E+01  1.00800000E+00  1.00800000E+00  1.60000000E+01
  1.00800000E+00  1.00800000E+00  1.60000000E+01  1.00800000E+00  1.00800000E+00
  1.60000000E+01  1.00800000E+00  1.00800000E+00  1.60000000E+01  1.00800000E+00
  1.00800000E+00  1.60000000E+01  1.00800000E+00  1.00800000E+00  1.60000000E+01
  1.00800000E+00  1.00800000E+00  1.60000000E+01  1.00800000E+00  1.00800000E+00
  1.60000000E+01  1.00800000E+00  1.00800000E+00  1.60000000E+01  1.00800000E+00
  1.00800000E+00  1.60000000E+01  1.00800000E+00  1.00800000E+00  1.60000000E+01
  1.00800000E+00  1.00800000E+00  1.60000000E+01  1.00800000E+00  1.00800000E+00
  1.60000000E+01  1.00800000E+00  1.00800000E+00  1.60000000E+01  1.00800000E+00
  1.00800000E+00  1.60000000E+01  1.00800000E+00  1.00800000E+00  1.60000000E+01
  1.00800000E+00  1.00800000E+00  1.60000000E+01  1.00800000E+00  1.00800000E+00
  1.60000000E+01  1.00800000E+00  1.00800000E+00  1.60000000E+01  1.00800000E+00
  1.00800000E+00  1.60000000E+01  1.00800000E+00  1.00800000E+00  1.60000000E+01
  1.00800000E+00  1.00800000E+00  1.60000000E+01  1.00800000E+00  1.00800000E+00
  1.60000000E+01  1.00800000E+00  1.00800000E+00  1.60000000E+01  1.00800000E+00
  1.00800000E+00  1.60000000E+01  1.00800000E+00  1.00800000E+00  1.60000000E+01
  1.00800000E+00  1.00800000E+00  1.60000000E+01  1.00800000E+00  1.00800000E+00
  1.60000000E+01  1.00800000E+00  1.00800000E+00  1.60000000E+01  1.00800000E+00
  1.00800000E+00  1.60000000E+01  1.00800000E+00  1.00800000E+00  1.60000000E+01
  1.00800000E+00  1.00800000E+00  1.60000000E+01  1.00800000E+00  1.00800000E+00
  1.60000000E+01  1.00800000E+00  1.00800000E+00  1.60000000E+01  1.00800000E+00
  1.00800000E+00  1.60000000E+01  1.00800000E+00  1.00800000E+00  1.60000000E+01
  1.00800000E+00  1.00800000E+00  1.60000000E+01  1.00800000E+00  1.00800000E+00
  1.60000000E+01  1.00800000E+00  1.00800000E+00  1.60000000E+01  1.00800000E+00
  1.00800000E+00  1.60000000E+01  1.00800000E+00  1.00800000E+00  1.60000000E+01
  1.00800000E+00  1.00800000E+00  1.60000000E+01  1.00800000E+00  1.00800000E+00
  1.60000000E+01  1.00800000E+00  1.00800000E+00  1.60000000E+01  1.00800000E+00
  1.00800000E+00  1.60000000E+01  1.00800000E+00  1.00800000E+00  1.60000000E+01
  1.00800000E+00  1.00800000E+00  1.60000000E+01  1.00800000E+00  1.00800000E+00
  1.60000000E+01  1.00800000E+00  1.00800000E+00  1.60000000E+01  1.00800000E+00
  1.00800000E+00  1.60000000E+01  1.00800000E+00  1.00800000E+00  1.60000000E+01
  1.00800000E+00  1.00800000E+00  1.60000000E+01  1.00800000E+00  1.00800000E+00
  1.60000000E+01  1.00800000E+00  1.00800000E+00  1.60000000E+01  1.00800000E+00
  1.00800000E+00  1.60000000E+01  1.00800000E+00  1.00800000E+00  1.60000000E+01
  1.00800000E+00  1.00800000E+00  1.60000000E+01  1.00800000E+00  1.00800000E+00
  1.60000000E+01  1.00800000E+00  1.00800000E+00  1.60000000E+01  1.00800000E+00
  1.00800000E+00  1.60000000E+01  1.00800000E+00  1.00800000E+00  1.60000000E+01
  1.00800000E+00  1.00800000E+00  1.60000000E+01  1.00800000E+00  1.00800000E+00
  1.60000000E+01  1.00800000E+00  1.00800000E+00  1.60000000E+01  1.00800000E+00
  1.00800000E+00  1.60000000E+01  1.00800000E+00  1.00800000E+00  1.60000000E+01
  1.00800000E+00  1.00800000E+00  1.60000000E+01  1.00800000E+00  1.00800000E+00
  1.60000000E+01  1.00800000E+00  1.00800000E+00  1.60000000E+01  1.00800000E+00
  1.00800000E+00  1.60000000E+01  1.00800000E+00  1.00800000E+00  1.60000000E+01
  1.00800000E+00  1.00800000E+00  1.60000000E+01  1.00800000E+00  1.00800000E+00
  1.60000000E+01  1.00800000E+00  1.00800000E+00  1.60000000E+01  1.00800000E+00
  1.00800000E+00  1.60000000E+01  1.00800000E+00  1.00800000E+00  1.60000000E+01
  1.00800000E+00  1.00800000E+00  1.60000000E+01  1.00800000E+00  1.00800000E+00
  1.60000000E+01  1.00800000E+00  1.00800000E+00  1.60000000E+01  1.00800000E+00
  1.00800000E+00  1.60000000E+01  1.00800000E+00  1.00800000E+00  1.60000000E+01
  1.00800000E+00  1.00800000E+00  1.60000000E+01  1.00800000E+00  1.00800000E+00
  1.60000000E+01  1.00800000E+00  1.00800000E+00  1.60000000E+01  1.00800000E+00
  1.00800000E+00  1.60000000E+01  1.00800000E+00  1.00800000E+00  1.60000000E+01
  1.00800000E+00  1.00800000E+00  1.60000000E+01  1.00800000E+00  1.00800000E+00
  1.60000000E+01  1.00800000E+00  1.00800000E+00  1.60000000E+01  1.00800000E+00
  1.00800000E+00  1.60000000E+01  1.00800000E+00  1.00800000E+00  1.60000000E+01
  1.00800000E+00  1.00800000E+00  1.60000000E+01  1.00800000E+00  1.00800000E+00
  1.60000000E+01  1.00800000E+00  1.00800000E+00  1.60000000E+01  1.00800000E+00
  1.00800000E+00  1.60000000E+01  1.00800000E+00  1.00800000E+00  1.60000000E+01
  1.00800000E+00  1.00800000E+00  1.60000000E+01  1.00800000E+00  1.00800000E+00
  1.60000000E+01  1.00800000E+00  1.00800000E+00  1.60000000E+01  1.00800000E+00
  1.00800000E+00  1.60000000E+01  1.00800000E+00  1.00800000E+00  1.60000000E+01
  1.00800000E+00  1.00800000E+00  1.60000000E+01  1.00800000E+00  1.00800000E+00
  1.60000000E+01  1.00800000E+00  1.00800000E+00  1.60000000E+01  1.00800000E+00
  1.00800000E+00  1.60000000E+01  1.00800000E+00  1.00800000E+00  1.60000000E+01
  1.00800000E+00  1.00800000E+00  1.60000000E+01  1.00800000E+00  1.00800000E+00
  1.60000000E+01  1.00800000E+00  1.00800000E+00  1.60000000E+01  1.00800000E+00
  1.00800000E+00  1.60000000E+01  1.00800000E+00  1.00800000E+00  1.60000000E+01
  1.00800000E+00  1.00800000E+00  1.60000000E+01  1.00800000E+00  1.00800000E+00
  1.60000000E+01  1.00800000E+00  1.00800000E+00  1.60000000E+01  1.00800000E+00
  1.00800000E+00  1.60000000E+01  1.00800000E+00  1.00800000E+00  1.60000000E+01
  1.00800000E+00  1.00800000E+00  1.60000000E+01  1.00800000E+00  1.00800000E+00
  1.60000000E+01  1.00800000E+00  1.00800000E+00  1.60000000E+01  1.00800000E+00
  1.00800000E+00  1.60000000E+01  1.00800000E+00  1.00800000E+00  1.60000000E+01
  1.00800000E+00  1.00800000E+00  1.60000000E+01  1.00800000E+00  1.00800000E+00
  1.60000000E+01  1.00800000E+00  1.00800000E+00  1.60000000E+01  1.00800000E+00
  1.00800000E+00  1.60000000E+01  1.00800000E+00  1.00800000E+00  1.60000000E+01
  1.00800000E+00  1.00800000E+00  1.60000000E+01  1.00800000E+00  1.00800000E+00
  1.60000000E+01  1.00800000E+00  1.00800000E+00  1.60000000E+01  1.00800000E+00
  1.00800000E+00  1.60000000E+01  1.00800000E+00  1.00800000E+00  1.60000000E+01
  1.00800000E+00  1.00800000E+00  1.60000000E+01  1.00800000E+00  1.00800000E+00
  1.60000000E+01  1.00800000E+00  1.00800000E+00  1.60000000E+01  1.00800000E+00
  1.00800000E+00  1.60000000E+01  1.00800000E+00  1.00800000E+00  1.60000000E+01
  1.00800000E+00  1.00800000E+00  1.60000000E+01  1.00800000E+00  1.00800000E+00
  1.60000000E+01  1.00800000E+00  1.00800000E+00  1.60000000E+01  1.00800000E+00
  1.00800000E+00  1.60000000E+01  1.00800000E+00  1.00800000E+00  1.60000000E+01
  1.00800000E+00  1.00800000E+00  1.60000000E+01  1.00800000E+00  1.00800000E+00
  1.60000000E+01  1.00800000E+00  1.00800000E+00  1.60000000E+01  1.00800000E+00
  1.00800000E+00  1.60000000E+01  1.00800000E+00  1.00800000E+00  1.60000000E+01
  1.00800000E+00  1.00800000E+00  1.60000000E+01  1.00800000E+00  1.00800000E+00
  1.60000000E+01  1.00800000E+00  1.00800000E+00  1.60000000E+01  1.00800000E+00
  1.00800000E+00  1.60000000E+01  1.00800000E+00  1.00800000E+00  1.60000000E+01
  1.00800000E+00  1.00800000E+00  1.60000000E+01  1.00800000E+00  1.00800000E+00
  1.60000000E+01  1.00800000E+00  1.00800000E+00  1.60000000E+01  1.00800000E+00
  1.00800000E+00  1.60000000E+01  1.00800000E+00  1.00800000E+00  1.60000000E+01
  1.00800000E+00  1.00800000E+00  1.60000000E+01  1.00800000E+00  1.00800000E+00
  1.60000000E+01  1.00800000E+00  1.00800000E+00  1.60000000E+01  1.00800000E+00
  1.00800000E+00  1.60000000E+01  1.00800000E+00  1.00800000E+00  1.60000000E+01
  1.00800000E+00  1.00800000E+00  1.60000000E+01  1.00800000E+00  1.00800000E+00
  1.60000000E+01  1.00800000E+00  1.00800000E+00  1.60000000E+01  1.00800000E+00
  1.00800000E+00  1.60000000E+01  1.00800000E+00  1.00800000E+00  1.60000000E+01
  1.00800000E+00  1.00800000E+00  1.60000000E+01  1.00800000E+00  1.00800000E+00
  1.60000000E+01  1.00800000E+00  1.00800000E+00  1.60000000E+01  1.00800000E+00
  1.00800000E+00  1.60000000E+01  1.00800000E+00  1.00800000E+00  1.60000000E+01
  1.00800000E+00  1.00800000E+00  1.60000000E+01  1.00800000E+00  1.00800000E+00
  1.60000000E+01  1.00800000E+00  1.00800000E+00  1.60000000E+01  1.00800000E+00
  1.00800000E+00  1.60000000E+01  1.00800000E+00  1.00800000E+00  1.60000000E+01
  1.00800000E+00  1.00800000E+00  1.60000000E+01  1.00800000E+00  1.00800000E+00
  1.60000000E+01  1.00800000E+00  1.00800000E+00  1.60000000E+01  1.00800000E+00
  1.00800000E+00  1.60000000E+01  1.00800000E+00  1.00800000E+00  1.60000000E+01
  1.00800000E+00  1.00800000E+00  1.60000000E+01  1.00800000E+00  1.00800000E+00
  1.60000000E+01  1.00800000E+00  1.00800000E+00  1.60000000E+01  1.00800000E+00
  1.00800000E+00  1.60000000E+01  1.00800000E+00  1.00800000E+00  1.60000000E+01
  1.00800000E+00  1.00800000E+00  1.60000000E+01  1.00800000E+00  1.00800000E+00
  1.60000000E+01  1.00800000E+00  1.00800000E+00  1.60000000E+01  1.00800000E+00
  1.00800000E+00  1.60000000E+01  1.00800000E+00  1.00800000E+00  1.60000000E+01
  1.00800000E+00  1.00800000E+00  1.60000000E+01  1.00800000E+00  1.00800000E+00
  1.60000000E+01  1.00800000E+00  1.00800000E+00  1.60000000E+01  1.00800000E+00
  1.00800000E+00  1.60000000E+01  1.00800000E+00  1.00800000E+00  1.60000000E+01
  1.00800000E+00  1.00800000E+00  1.60000000E+01  1.00800000E+00  1.00800000E+00
  1.60000000E+01  1.00800000E+00  1.00800000E+00  1.60000000E+01  1.00800000E+00
  1.00800000E+00  1.60000000E+01  1.00800000E+00  1.00800000E+00  1.60000000E+01
  1.00800000E+00  1.00800000E+00  1.60000000E+01  1.00800000E+00  1.00800000E+00
  1.60000000E+01  1.00800000E+00  1.00800000E+00  1.60000000E+01  1.00800000E+00
  1.00800000E+00  1.60000000E+01  1.00800000E+00  1.00800000E+00  1.60000000E+01
  1.00800000E+00  1.00800000E+00  1.60000000E+01  1.00800000E+00  1.00800000E+00
  1.60000000E+01  1.00800000E+00  1.00800000E+00  1.60000000E+01  1.00800000E+00
  1.00800000E+00  1.60000000E+01  1.00800000E+00  1.00800000E+00  1.60000000E+01
  1.00800000E+00  1.00800000E+00  1.60000000E+01  1.00800000E+00  1.00800000E+00
  1.60000000E+01  1.00800000E+00  1.00800000E+00  1.60000000E+01  1.00800000E+00
  1.00800000E+00  1.60000000E+01  1.00800000E+00  1.00800000E+00  1.60000000E+01
  1.00800000E+00  1.00800000E+00  1.60000000E+01  1.00800000E+00  1.00800000E+00
  1.60000000E+01  1.00800000E+00  1.00800000E+00  1.60000000E+01  1.00800000E+00
  1.00800000E+00  1.60000000E+01  1.00800000E+00  1.00800000E+00  1.60000000E+01
  1.00800000E+00  1.00800000E+00  1.60000000E+01  1.00800000E+00  1.00800000E+00
  1.60000000E+01  1.00800000E+00  1.00800000E+00  1.60000000E+01  1.00800000E+00
  1.00800000E+00  1.60000000E+01  1.00800000E+00  1.00800000E+00  1.60000000E+01
  1.00800000E+00  1.00800000E+00  1.60000000E+01  1.00800000E+00  1.00800000E+00
  1.60000000E+01  1.00800000E+00  1.00800000E+00  1.60000000E+01  1.00800000E+00
  1.00800000E+00  1.60000000E+01  1.00800000E+00  1.00800000E+00  1.60000000E+01
  1.00800000E+00  1.00800000E+00  1.60000000E+01  1.00800000E+00  1.00800000E+00
  1.60000000E+01  1.00800000E+00  1.00800000E+00  1.60000000E+01  1.00800000E+00
  1.00800000E+00  1.60000000E+01  1.00800000E+00  1.00800000E+00  1.60000000E+01
  1.00800000E+00  1.00800000E+00  1.60000000E+01  1.00800000E+00  1.00800000E+00
  1.60000000E+01  1.00800000E+00  1.00800000E+00  1.60000000E+01  1.00800000E+00
  1.00800000E+00  1.60000000E+01  1.00800000E+00  1.00800000E+00  1.60000000E+01
  1.00800000E+00  1.00800000E+00  1.60000000E+01  1.00800000E+00  1.00800000E+00
  1.60000000E+01  1.00800000E+00  1.00800000E+00  1.60000000E+01  1.00800000E+00
  1.00800000E+00  1.60000000E+01  1.00800000E+00  1.00800000E+00  1.60000000E+01
  1.00800000E+00  1.00800000E+00  1.60000000E+01  1.00800000E+00  1.00800000E+00
  1.60000000E+01  1.00800000E+00  1.00800000E+00  1.60000000E+01  1.00800000E+00
  1.00800000E+00  1.60000000E+01  1.00800000E+00  1.00800000E+00  1.60000000E+01
  1.00800000E+00  1.00800000E+00  1.60000000E+01  1.00800000E+00  1.00800000E+00
  1.60000000E+01  1.00800000E+00  1.00800000E+00  1.60000000E+01  1.00800000E+00
  1.00800000E+00  1.60000000E+01  1.00800000E+00  1.00800000E+00  1.60000000E+01
  1.00800000E+00  1.00800000E+00  1.60000000E+01  1.00800000E+00  1.00800000E+00
  1.60000000E+01  1.00800000E+00  1.00800000E+00  1.60000000E+01  1.00800000E+00
  1.00800000E+00  1.60000000E+01  1.00800000E+00  1.00800000E+00  1.60000000E+01
  1.00800000E+00  1.00800000E+00  1.60000000E+01  1.00800000E+00  1.00800000E+00
  1.60000000E+01  1.00800000E+00  1.00800000E+00  1.60000000E+01  1.00800000E+00
  1.00800000E+00  1.60000000E+01  1.00800000E+00  1.00800000E+00  1.60000000E+01
  1.00800000E+00  1.00800000E+00  1.60000000E+01  1.00800000E+00  1.00800000E+00
  1.60000000E+01  1.00800000E+00  1.00800000E+00  1.60000000E+01  1.00800000E+00
  1.00800000E+00  1.60000000E+01  1.00800000E+00  1.00800000E+00  1.60000000E+01
  1.00800000E+00  1.00800000E+00  1.60000000E+01  1.00800000E+00  1.00800000E+00
  1.60000000E+01  1.00800000E+00  1.00800000E+00  1.60000000E+01  1.00800000E+00
  1.00800000E+00  1.60000000E+01  1.00800000E+00  1.00800000E+00  1.60000000E+01
  1.00800000E+00  1.00800000E+00  1.60000000E+01  1.00800000E+00  1.00800000E+00
  1.60000000E+01  1.00800000E+00  1.00800000E+00  1.60000000E+01  1.00800000E+00
  1.00800000E+00  1.60000000E+01  1.00800000E+00  1.00800000E+00  1.60000000E+01
  1.00800000E+00  1.00800000E+00  1.60000000E+01  1.00800000E+00  1.00800000E+00
  1.60000000E+01  1.00800000E+00  1.00800000E+00  1.60000000E+01  1.00800000E+00
  1.00800000E+00  1.60000000E+01  1.00800000E+00  1.00800000E+00  1.60000000E+01
  1.00800000E+00  1.00800000E+00  1.60000000E+01  1.00800000E+00  1.00800000E+00
  1.60000000E+01  1.00800000E+00  1.00800000E+00  1.60000000E+01  1.00800000E+00
  1.00800000E+00  1.60000000E+01  1.00800000E+00  1.00800000E+00  1.60000000E+01
  1.00800000E+00  1.00800000E+00  1.60000000E+01  1.00800000E+00  1.00800000E+00
  1.60000000E+01  1.00800000E+00  1.00800000E+00  1.60000000E+01  1.00800000E+00
  1.00800000E+00  1.60000000E+01  1.00800000E+00  1.00800000E+00  1.60000000E+01
  1.00800000E+00  1.00800000E+00  1.60000000E+01  1.00800000E+00  1.00800000E+00
  1.60000000E+01  1.00800000E+00  1.00800000E+00  1.60000000E+01  1.00800000E+00
  1.00800000E+00  1.60000000E+01  1.00800000E+00  1.00800000E+00  1.60000000E+01
  1.00800000E+00  1.00800000E+00  1.60000000E+01  1.00800000E+00  1.00800000E+00
  1.60000000E+01  1.00800000E+00  1.00800000E+00  1.60000000E+01  1.00800000E+00
  1.00800000E+00  1.60000000E+01  1.00800000E+00  1.00800000E+00  1.60000000E+01
  1.00800000E+00  1.00800000E+00  1.60000000E+01  1.00800000E+00  1.00800000E+00
  1.60000000E+01  1.00800000E+00  1.00800000E+00  1.60000000E+01  1.00800000E+00
  1.00800000E+00  1.60000000E+01  1.00800000E+00  1.00800000E+00  1.60000000E+01
  1.00800000E+00  1.00800000E+00  1.60000000E+01  1.00800000E+00  1.00800000E+00
  1.60000000E+01  1.00800000E+00  1.00800000E+00  1.60000000E+01  1.00800000E+00
  1.00800000E+00  1.60000000E+01  1.00800000E+00  1.00800000E+00  1.60000000E+01
  1.00800000E+00  1.00800000E+00  1.60000000E+01  1.00800000E+00  1.00800000E+00
  1.60000000E+01  1.00800000E+00  1.00800000E+00  1.60000000E+01  1.00800000E+00
  1.00800000E+00  1.60000000E+01  1.00800000E+00  1.00800000E+00  1.60000000E+01
  1.00800000E+00  1.00800000E+00  1.60000000E+01  1.00800000E+00  1.00800000E+00
  1.60000000E+01  1.00800000E+00  1.00800000E+00  1.60000000E+01  1.00800000E+00
  1.00800000E+00  1.60000000E+01  1.00800000E+00  1.00800000E+00  1.60000000E+01
  1.00800000E+00  1.00800000E+00  1.60000000E+01  1.00800000E+00  1.00800000E+00
  1.60000000E+01  1.00800000E+00  1.00800000E+00  1.60000000E+01  1.00800000E+00
  1.00800000E+00  1.60000000E+01  1.00800000E+00  1.00800000E+00  1.60000000E+01
  1.00800000E+00  1.00800000E+00  1.60000000E+01  1.00800000E+00  1.00800000E+00
  1.60000000E+01  1.00800000E+00  1.00800000E+00  1.60000000E+01  1.00800000E+00
  1.00800000E+00  1.60000000E+01  1.00800000E+00  1.00800000E+00  1.60000000E+01
  1.00800000E+00  1.00800000E+00  1.60000000E+01  1.00800000E+00  1.00800000E+00
  1.60000000E+01  1.00800000E+00  1.00800000E+00  1.60000000E+01  1.00800000E+00
  1.00800000E+00  1.60000000E+01  1.00800000E+00  1.00800000E+00  1.60000000E+01
  1.00800000E+00  1.00800000E+00  1.60000000E+01  1.00800000E+00  1.00800000E+00
  1.60000000E+01  1.00800000E+00  1.00800000E+00  1.60000000E+01  1.00800000E+00
  1.00800000E+00  1.60000000E+01  1.00800000E+00  1.00800000E+00  1.60000000E+01
  1.00800000E+00  1.00800000E+00  1.60000000E+01  1.00800000E+00  1.00800000E+00
  1.60000000E+01  1.00800000E+00  1.00800000E+00  1.60000000E+01  1.00800000E+00
  1.00800000E+00  1.60000000E+01  1.00800000E+00  1.00800000E+00  1.60000000E+01
  1.00800000E+00  1.00800000E+00  1.60000000E+01  1.00800000E+00  1.00800000E+00
  1.60000000E+01  1.00800000E+00  1.00800000E+00  1.60000000E+01  1.00800000E+00
  1.00800000E+00  1.60000000E+01  1.00800000E+00  1.00800000E+00  1.60000000E+01
  1.00800000E+00  1.00800000E+00  1.60000000E+01  1.00800000E+00  1.00800000E+00
  1.60000000E+01  1.00800000E+00  1.00800000E+00  1.60000000E+01  1.00800000E+00
  1.00800000E+00  1.60000000E+01  1.00800000E+00  1.00800000E+00  1.60000000E+01
  1.00800000E+00  1.00800000E+00  1.60000000E+01  1.00800000E+00  1.00800000E+00
  1.60000000E+01  1.00800000E+00  1.00800000E+00  1.60000000E+01  1.00800000E+00
  1.00800000E+00  1.60000000E+01  1.00800000E+00  1.00800000E+00  1.60000000E+01
  1.00800000E+00  1.00800000E+00  1.60000000E+01  1.00800000E+00  1.00800000E+00
  1.60000000E+01  1.00800000E+00  1.00800000E+00  1.60000000E+01  1.00800000E+00
  1.00800000E+00  1.60000000E+01  1.00800000E+00  1.00800000E+00  1.60000000E+01
  1.00800000E+00  1.00800000E+00  1.60000000E+01  1.00800000E+00  1.00800000E+00
  1.60000000E+01  1.00800000E+00  1.00800000E+00  1.60000000E+01  1.00800000E+00
  1.00800000E+00  1.60000000E+01  1.00800000E+00  1.00800000E+00  1.60000000E+01
  1.00800000E+00  1.00800000E+00  1.60000000E+01  1.00800000E+00  1.00800000E+00
  1.60000000E+01  1.00800000E+00  1.00800000E+00  1.60000000E+01  1.00800000E+00
  1.00800000E+00  1.60000000E+01  1.00800000E+00  1.00800000E+00  1.60000000E+01
  1.00800000E+00  1.00800000E+00  1.60000000E+01  1.00800000E+00  1.00800000E+00
  1.60000000E+01  1.00800000E+00  1.00800000E+00  1.60000000E+01  1.00800000E+00
  1.00800000E+00  1.60000000E+01  1.00800000E+00  1.00800000E+00  1.60000000E+01
  1.00800000E+00  1.00800000E+00  1.60000000E+01  1.00800000E+00  1.00800000E+00
  1.60000000E+01  1.00800000E+00  1.00800000E+00  1.60000000E+01  1.00800000E+00
  1.00800000E+00  1.60000000E+01  1.00800000E+00  1.00800000E+00  1.60000000E+01
  1.00800000E+00  1.00800000E+00  1.60000000E+01  1.00800000E+00  1.00800000E+00
  1.60000000E+01  1.00800000E+00  1.00800000E+00  1.60000000E+01  1.00800000E+00
  1.00800000E+00  1.60000000E+01  1.00800000E+00  1.00800000E+00  1.60000000E+01
  1.00800000E+00  1.00800000E+00  1.60000000E+01  1.00800000E+00  1.00800000E+00
  1.60000000E+01  1.00800000E+00  1.00800000E+00  1.60000000E+01  1.00800000E+00
  1.00800000E+00  1.60000000E+01  1.00800000E+00  1.00800000E+00  1.60000000E+01
  1.00800000E+00  1.00800000E+00  1.60000000E+01  1.00800000E+00  1.00800000E+00
  1.60000000E+01  1.00800000E+00  1.00800000E+00  1.60000000E+01  1.00800000E+00
  1.00800000E+00  1.60000000E+01  1.00800000E+00  1.00800000E+00  1.60000000E+01
  1.00800000E+00  1.00800000E+00  1.60000000E+01  1.00800000E+00  1.00800000E+00
  1.60000000E+01  1.00800000E+00  1.00800000E+00  1.60000000E+01  1.00800000E+00
  1.00800000E+00  1.60000000E+01  1.00800000E+00  1.00800000E+00  1.60000000E+01
  1.00800000E+00  1.00800000E+00  1.60000000E+01  1.00800000E+00  1.00800000E+00
  1.60000000E+01  1.00800000E+00  1.00800000E+00  1.60000000E+01  1.00800000E+00
  1.00800000E+00  1.60000000E+01  1.00800000E+00  1.00800000E+00  1.60000000E+01
  1.00800000E+00  1.00800000E+00  1.60000000E+01  1.00800000E+00  1.00800000E+00
  1.60000000E+01  1.00800000E+00  1.00800000E+00  1.60000000E+01  1.00800000E+00
  1.00800000E+00  1.60000000E+01  1.00800000E+00  1.00800000E+00  1.60000000E+01
  1.00800000E+00  1.00800000E+00  1.60000000E+01  1.00800000E+00  1.00800000E+00
  1.60000000E+01  1.00800000E+00  1.00800000E+00  1.60000000E+01  1.00800000E+00
  1.00800000E+00  1.60000000E+01  1.00800000E+00  1.00800000E+00  1.60000000E+01
  1.00800000E+00  1.00800000E+00  1.60000000E+01  1.00800000E+00  1.00800000E+00
  1.60000000E+01  1.00800000E+00  1.00800000E+00  1.60000000E+01  1.00800000E+00
  1.00800000E+00  1.60000000E+01  1.00800000E+00  1.00800000E+00  1.60000000E+01
  1.00800000E+00  1.00800000E+00  1.60000000E+01  1.00800000E+00  1.00800000E+00
  1.60000000E+01  1.00800000E+00  1.00800000E+00  1.60000000E+01  1.00800000E+00
  1.00800000E+00  1.60000000E+01  1.00800000E+00  1.00800000E+00  1.60000000E+01
  1.00800000E+00  1.00800000E+00  1.60000000E+01  1.00800000E+00  1.00800000E+00
  1.60000000E+01  1.00800000E+00  1.00800000E+00  1.60000000E+01  1.00800000E+00
  1.00800000E+00  1.60000000E+01  1.00800000E+00  1.00800000E+00  1.60000000E+01
  1.00800000E+00  1.00800000E+00  1.60000000E+01  1.00800000E+00  1.00800000E+00
  1.60000000E+01  1.00800000E+00  1.00800000E+00  1.60000000E+01  1.00800000E+00
  1.00800000E+00  1.60000000E+01  1.00800000E+00  1.00800000E+00  1.60000000E+01
  1.00800000E+00  1.00800000E+00  1.60000000E+01  1.00800000E+00  1.00800000E+00
  1.60000000E+01  1.00800000E+00  1.00800000E+00  1.60000000E+01  1.00800000E+00
  1.00800000E+00  1.60000000E+01  1.00800000E+00  1.00800000E+00  1.60000000E+01
  1.00800000E+00  1.00800000E+00  1.60000000E+01  1.00800000E+00  1.00800000E+00
  1.60000000E+01  1.00800000E+00  1.00800000E+00  1.60000000E+01  1.00800000E+00
  1.00800000E+00  1.60000000E+01  1.00800000E+00  1.00800000E+00  1.60000000E+01
  1.00800000E+00  1.00800000E+00  1.60000000E+01  1.00800000E+00  1.00800000E+00
  1.60000000E+01  1.00800000E+00  1.00800000E+00  1.60000000E+01  1.00800000E+00
  1.00800000E+00  1.60000000E+01  1.00800000E+00  1.00800000E+00  1.60000000E+01
  1.00800000E+00  1.00800000E+00  1.60000000E+01  1.00800000E+00  1.00800000E+00
  1.60000000E+01  1.00800000E+00  1.00800000E+00  1.60000000E+01  1.00800000E+00
  1.00800000E+00  1.60000000E+01  1.00800000E+00  1.00800000E+00  1.60000000E+01
  1.00800000E+00  1.00800000E+00  1.60000000E+01  1.00800000E+00  1.00800000E+00
  1.60000000E+01  1.00800000E+00  1.00800000E+00  1.60000000E+01  1.00800000E+00
  1.00800000E+00  1.60000000E+01  1.00800000E+00  1.00800000E+00  1.60000000E+01
  1.00800000E+00  1.00800000E+00  1.60000000E+01  1.00800000E+00  1.00800000E+00
  1.60000000E+01  1.00800000E+00  1.00800000E+00  1.60000000E+01  1.00800000E+00
  1.00800000E+00  1.60000000E+01  1.00800000E+00  1.00800000E+00  1.60000000E+01
  1.00800000E+00  1.00800000E+00  1.60000000E+01  1.00800000E+00  1.00800000E+00
  1.60000000E+01  1.00800000E+00  1.00800000E+00  1.60000000E+01  1.00800000E+00
  1.00800000E+00  1.60000000E+01  1.00800000E+00  1.00800000E+00  1.60000000E+01
  1.00800000E+00  1.00800000E+00  1.60000000E+01  1.00800000E+00  1.00800000E+00
  1.60000000E+01  1.00800000E+00  1.00800000E+00  1.60000000E+01  1.00800000E+00
  1.00800000E+00  1.60000000E+01  1.00800000E+00  1.00800000E+00  1.60000000E+01
  1.00800000E+00  1.00800000E+00  1.60000000E+01  1.00800000E+00  1.00800000E+00
  1.60000000E+01  1.00800000E+00  1.00800000E+00  1.60000000E+01  1.00800000E+00
  1.00800000E+00  1.60000000E+01  1.00800000E+00  1.00800000E+00  1.60000000E+01
  1.00800000E+00  1.00800000E+00  1.60000000E+01  1.00800000E+00  1.00800000E+00
  1.60000000E+01  1.00800000E+00  1.00800000E+00  1.60000000E+01  1.00800000E+00
  1.00800000E+00  1.60000000E+01  1.00800000E+00  1.00800000E+00  1.60000000E+01
  1.00800000E+00  1.00800000E+00  1.60000000E+01  1.00800000E+00  1.00800000E+00
  1.60000000E+01  1.00800000E+00  1.00800000E+00  1.60000000E+01  1.00800000E+00
  1.00800000E+00  1.60000000E+01  1.00800000E+00  1.00800000E+00  1.60000000E+01
  1.00800000E+00  1.00800000E+00  1.60000000E+01  1.00800000E+00  1.00800000E+00
  1.60000000E+01  1.00800000E+00  1.00800000E+00  1.60000000E+01  1.00800000E+00
  1.00800000E+00  1.60000000E+01  1.00800000E+00  1.00800000E+00  1.60000000E+01
  1.00800000E+00  1.00800000E+00  1.60000000E+01  1.00800000E+00  1.00800000E+00
  1.60000000E+01  1.00800000E+00  1.00800000E+00  1.60000000E+01  1.00800000E+00
  1.00800000E+00  1.60000000E+01  1.00800000E+00  1.00800000E+00  1.60000000E+01
  1.00800000E+00  1.00800000E+00  1.60000000E+01  1.00800000E+00  1.00800000E+00
  1.60000000E+01  1.00800000E+00  1.00800000E+00  1.60000000E+01  1.00800000E+00
  1.00800000E+00  1.60000000E+01  1.00800000E+00  1.00800000E+00  1.60000000E+01
  1.00800000E+00  1.00800000E+00  1.60000000E+01  1.00800000E+00  1.00800000E+00
  1.60000000E+01  1.00800000E+00  1.00800000E+00  1.60000000E+01  1.00800000E+00
  1.00800000E+00  1.60000000E+01  1.00800000E+00  1.00800000E+00  1.60000000E+01
  1.00800000E+00  1.00800000E+00  1.60000000E+01  1.00800000E+00  1.00800000E+00
  1.60000000E+01  1.00800000E+00  1.00800000E+00  1.60000000E+01  1.00800000E+00
  1.00800000E+00  1.60000000E+01  1.00800000E+00  1.00800000E+00  1.60000000E+01
  1.00800000E+00  1.00800000E+00  1.60000000E+01  1.00800000E+00  1.00800000E+00
  1.60000000E+01  1.00800000E+00  1.00800000E+00  1.60000000E+01  1.00800000E+00
  1.00800000E+00  1.60000000E+01  1.00800000E+00  1.00800000E+00  1.60000000E+01
  1.00800000E+00  1.00800000E+00  1.60000000E+01  1.00800000E+00  1.00800000E+00
  1.60000000E+01  1.00800000E+00  1.00800000E+00  1.60000000E+01  1.00800000E+00
  1.00800000E+00  1.60000000E+01  1.00800000E+00  1.00800000E+00  1.60000000E+01
  1.00800000E+00  1.00800000E+00  1.60000000E+01  1.00800000E+00  1.00800000E+00
  1.60000000E+01  1.00800000E+00  1.00800000E+00  1.60000000E+01  1.00800000E+00
  1.00800000E+00  1.60000000E+01  1.00800000E+00  1.00800000E+00  1.60000000E+01
  1.00800000E+00  1.00800000E+00  1.60000000E+01  1.00800000E+00  1.00800000E+00
  1.60000000E+01  1.00800000E+00  1.00800000E+00  1.60000000E+01  1.00800000E+00
  1.00800000E+00  1.60000000E+01  1.00800000E+00  1.00800000E+00  1.60000000E+01
  1.00800000E+00  1.00800000E+00  1.60000000E+01  1.00800000E+00  1.00800000E+00
  1.60000000E+01  1.00800000E+00  1.00800000E+00  1.60000000E+01  1.00800000E+00
  1.00800000E+00  1.60000000E+01  1.00800000E+00  1.00800000E+00  1.60000000E+01
  1.00800000E+00  1.00800000E+00  1.60000000E+01  1.00800000E+00  1.00800000E+00
  1.60000000E+01  1.00800000E+00  1.00800000E+00  1.60000000E+01  1.00800000E+00
  1.00800000E+00  1.60000000E+01  1.00800000E+00  1.00800000E+00  1.60000000E+01
  1.00800000E+00  1.00800000E+00  1.60000000E+01  1.00800000E+00  1.00800000E+00
  1.60000000E+01  1.00800000E+00  1.00800000E+00  1.60000000E+01  1.00800000E+00
  1.00800000E+00  1.60000000E+01  1.00800000E+00  1.00800000E+00  1.60000000E+01
  1.00800000E+00  1.00800000E+00  1.60000000E+01  1.00800000E+00  1.00800000E+00
  1.60000000E+01  1.00800000E+00  1.00800000E+00  1.60000000E+01  1.00800000E+00
  1.00800000E+00  1.60000000E+01  1.00800000E+00  1.00800000E+00  1.60000000E+01
  1.00800000E+00  1.00800000E+00  1.60000000E+01  1.00800000E+00  1.00800000E+00
  1.60000000E+01  1.00800000E+00  1.00800000E+00  1.60000000E+01  1.00800000E+00
  1.00800000E+00  1.60000000E+01  1.00800000E+00  1.00800000E+00  1.60000000E+01
  1.00800000E+00  1.00800000E+00  1.60000000E+01  1.00800000E+00  1.00800000E+00
  1.60000000E+01  1.00800000E+00  1.00800000E+00  1.60000000E+01  1.00800000E+00
  1.00800000E+00  1.60000000E+01  1.00800000E+00  1.00800000E+00  1.60000000E+01
  1.00800000E+00  1.00800000E+00  1.60000000E+01  1.00800000E+00  1.00800000E+00
  1.60000000E+01  1.00800000E+00  1.00800000E+00  1.60000000E+01  1.00800000E+00
  1.00800000E+00  1.60000000E+01  1.00800000E+00  1.00800000E+00  1.60000000E+01
  1.00800000E+00  1.00800000E+00  1.60000000E+01  1.00800000E+00  1.00800000E+00
  1.60000000E+01  1.00800000E+00  1.00800000E+00  1.60000000E+01  1.00800000E+00
  1.00800000E+00  1.60000000E+01  1.00800000E+00  1.00800000E+00  1.60000000E+01
  1.00800000E+00  1.00800000E+00  1.60000000E+01  1.00800000E+00  1.00800000E+00
  1.60000000E+01  1.00800000E+00  1.00800000E+00  1.60000000E+01  1.00800000E+00
  1.00800000E+00  1.60000000E+01  1.00800000E+00  1.00800000E+00  1.60000000E+01
  1.00800000E+00  1.00800000E+00  1.60000000E+01  1.00800000E+00  1.00800000E+00
  1.60000000E+01  1.00800000E+00  1.00800000E+00  1.60000000E+01  1.00800000E+00
  1.00800000E+00  1.60000000E+01  1.00800000E+00  1.00800000E+00  1.60000000E+01
  1.00800000E+00  1.00800000E+00  1.60000000E+01  1.00800000E+00  1.00800000E+00
  1.60000000E+01  1.00800000E+00  1.00800000E+00  1.60000000E+01  1.00800000E+00
  1.00800000E+00  1.60000000E+01  1.00800000E+00  1.00800000E+00  1.60000000E+01
  1.00800000E+00  1.00800000E+00  1.60000000E+01  1.00800000E+00  1.00800000E+00
  1.60000000E+01  1.00800000E+00  1.00800000E+00  1.60000000E+01  1.00800000E+00
  1.00800000E+00  1.60000000E+01  1.00800000E+00  1.00800000E+00  1.60000000E+01
  1.00800000E+00  1.00800000E+00  1.60000000E+01  1.00800000E+00  1.00800000E+00
  1.60000000E+01  1.00800000E+00  1.00800000E+00  1.60000000E+01  1.00800000E+00
  1.00800000E+00  1.60000000E+01  1.00800000E+00  1.00800000E+00  1.60000000E+01
  1.00800000E+00  1.00800000E+00  1.60000000E+01  1.00800000E+00  1.00800000E+00
  1.60000000E+01  1.00800000E+00  1.00800000E+00  1.60000000E+01  1.00800000E+00
  1.00800000E+00  1.60000000E+01  1.00800000E+00  1.00800000E+00  1.60000000E+01
  1.00800000E+00  1.00800000E+00  1.60000000E+01  1.00800000E+00  1.00800000E+00
  1.60000000E+01  1.00800000E+00  1.00800000E+00  1.60000000E+01  1.00800000E+00
  1.00800000E+00  1.60000000E+01  1.00800000E+00  1.00800000E+00  1.60000000E+01
  1.00800000E+00  1.00800000E+00  1.60000000E+01  1.00800000E+00  1.00800000E+00
  1.60000000E+01  1.00800000E+00  1.00800000E+00  1.60000000E+01  1.00800000E+00
  1.00800000E+00  1.60000000E+01  1.00800000E+00  1.00800000E+00  1.60000000E+01
  1.00800000E+00  1.00800000E+00  1.60000000E+01  1.00800000E+00  1.00800000E+00
  1.60000000E+01  1.00800000E+00  1.00800000E+00  1.60000000E+01  1.00800000E+00
  1.00800000E+00  1.60000000E+01  1.00800000E+00  1.00800000E+00  1.60000000E+01
  1.00800000E+00  1.00800000E+00  1.60000000E+01  1.00800000E+00  1.00800000E+00
  1.60000000E+01  1.00800000E+00  1.00800000E+00  1.60000000E+01  1.00800000E+00
  1.00800000E+00  1.60000000E+01  1.00800000E+00  1.00800000E+00  1.60000000E+01
  1.00800000E+00  1.00800000E+00  1.60000000E+01  1.00800000E+00  1.00800000E+00
  1.60000000E+01  1.00800000E+00  1.00800000E+00  1.60000000E+01  1.00800000E+00
  1.00800000E+00  1.60000000E+01  1.00800000E+00  1.00800000E+00  1.60000000E+01
  1.00800000E+00  1.00800000E+00  1.60000000E+01  1.00800000E+00  1.00800000E+00
  1.60000000E+01  1.00800000E+00  1.00800000E+00  1.60000000E+01  1.00800000E+00
  1.00800000E+00  1.60000000E+01  1.00800000E+00  1.00800000E+00  1.60000000E+01
  1.00800000E+00  1.00800000E+00  1.60000000E+01  1.00800000E+00  1.00800000E+00
  1.60000000E+01  1.00800000E+00  1.00800000E+00  1.60000000E+01  1.00800000E+00
  1.00800000E+00  1.60000000E+01  1.00800000E+00  1.00800000E+00  1.60000000E+01
  1.00800000E+00  1.00800000E+00  1.60000000E+01  1.00800000E+00  1.00800000E+00
  1.60000000E+01  1.00800000E+00  1.00800000E+00  1.60000000E+01  1.00800000E+00
  1.00800000E+00  1.60000000E+01  1.00800000E+00  1.00800000E+00  1.60000000E+01
  1.00800000E+00  1.00800000E+00  1.60000000E+01  1.00800000E+00  1.00800000E+00
  1.60000000E+01  1.00800000E+00  1.00800000E+00  1.60000000E+01  1.00800000E+00
  1.00800000E+00  1.60000000E+01  1.00800000E+00  1.00800000E+00  1.60000000E+01
  1.00800000E+00  1.00800000E+00  1.60000000E+01  1.00800000E+00  1.00800000E+00
  1.60000000E+01  1.00800000E+00  1.00800000E+00  1.60000000E+01  1.00800000E+00
  1.00800000E+00  1.60000000E+01  1.00800000E+00  1.00800000E+00  1.60000000E+01
  1.00800000E+00  1.00800000E+00  1.60000000E+01  1.00800000E+00  1.00800000E+00
  1.60000000E+01  1.00800000E+00  1.00800000E+00  1.60000000E+01  1.00800000E+00
  1.00800000E+00  1.60000000E+01  1.00800000E+00  1.00800000E+00  1.60000000E+01
  1.00800000E+00  1.00800000E+00  1.60000000E+01  1.00800000E+00  1.00800000E+00
  1.60000000E+01  1.00800000E+00  1.00800000E+00  1.60000000E+01  1.00800000E+00
  1.00800000E+00  1.60000000E+01  1.00800000E+00  1.00800000E+00  1.60000000E+01
  1.00800000E+00  1.00800000E+00  1.60000000E+01  1.00800000E+00  1.00800000E+00
  1.60000000E+01  1.00800000E+00  1.00800000E+00  1.60000000E+01  1.00800000E+00
  1.00800000E+00  1.60000000E+01  1.00800000E+00  1.00800000E+00  1.60000000E+01
  1.00800000E+00  1.00800000E+00  1.60000000E+01  1.00800000E+00  1.00800000E+00
  1.60000000E+01  1.00800000E+00  1.00800000E+00  1.60000000E+01  1.00800000E+00
  1.00800000E+00  1.60000000E+01  1.00800000E+00  1.00800000E+00  1.60000000E+01
  1.00800000E+00  1.00800000E+00  1.60000000E+01  1.00800000E+00  1.00800000E+00
  1.60000000E+01  1.00800000E+00  1.00800000E+00  1.60000000E+01  1.00800000E+00
  1.00800000E+00  1.60000000E+01  1.00800000E+00  1.00800000E+00  1.60000000E+01
  1.00800000E+00  1.00800000E+00  1.60000000E+01  1.00800000E+00  1.00800000E+00
  1.60000000E+01  1.00800000E+00  1.00800000E+00  1.60000000E+01  1.00800000E+00
  1.00800000E+00  1.60000000E+01  1.00800000E+00  1.00800000E+00  1.60000000E+01
  1.00800000E+00  1.00800000E+00  1.60000000E+01  1.00800000E+00  1.00800000E+00
  1.60000000E+01  1.00800000E+00  1.00800000E+00  1.60000000E+01  1.00800000E+00
  1.00800000E+00  1.60000000E+01  1.00800000E+00  1.00800000E+00  1.60000000E+01
  1.00800000E+00  1.00800000E+00  1.60000000E+01  1.00800000E+00  1.00800000E+00
  1.60000000E+01  1.00800000E+00  1.00800000E+00  1.60000000E+01  1.00800000E+00
  1.00800000E+00  1.60000000E+01  1.00800000E+00  1.00800000E+00  1.60000000E+01
  1.00800000E+00  1.00800000E+00  1.60000000E+01  1.00800000E+00  1.00800000E+00
  1.60000000E+01  1.00800000E+00  1.00800000E+00  1.60000000E+01  1.00800000E+00
  1.00800000E+00  1.60000000E+01  1.00800000E+00  1.00800000E+00  1.60000000E+01
  1.00800000E+00  1.00800000E+00  1.60000000E+01  1.00800000E+00  1.00800000E+00
  1.60000000E+01  1.00800000E+00  1.00800000E+00  1.60000000E+01  1.00800000E+00
  1.00800000E+00  1.60000000E+01  1.00800000E+00  1.00800000E+00  1.60000000E+01
  1.00800000E+00  1.00800000E+00  1.60000000E+01  1.00800000E+00  1.00800000E+00
  1.60000000E+01  1.00800000E+00  1.00800000E+00  1.60000000E+01  1.00800000E+00
  1.00800000E+00  1.60000000E+01  1.00800000E+00  1.00800000E+00  1.60000000E+01
  1.00800000E+00  1.00800000E+00  1.60000000E+01  1.00800000E+00  1.00800000E+00
  1.60000000E+01  1.00800000E+00  1.00800000E+00  1.60000000E+01  1.00800000E+00
  1.00800000E+00  1.60000000E+01  1.00800000E+00  1.00800000E+00  1.60000000E+01
  1.00800000E+00  1.00800000E+00  1.60000000E+01  1.00800000E+00  1.00800000E+00
  1.60000000E+01  1.00800000E+00  1.00800000E+00  1.60000000E+01  1.00800000E+00
  1.00800000E+00  1.60000000E+01  1.00800000E+00  1.00800000E+00  1.60000000E+01
  1.00800000E+00  1.00800000E+00  1.60000000E+01  1.00800000E+00  1.00800000E+00
  1.60000000E+01  1.00800000E+00  1.00800000E+00  1.60000000E+01  1.00800000E+00
  1.00800000E+00  1.60000000E+01  1.00800000E+00  1.00800000E+00  1.60000000E+01
  1.00800000E+00  1.00800000E+00  1.60000000E+01  1.00800000E+00  1.00800000E+00
  1.60000000E+01  1.00800000E+00  1.00800000E+00  1.60000000E+01  1.00800000E+00
  1.00800000E+00  1.60000000E+01  1.00800000E+00  1.00800000E+00  1.60000000E+01
  1.00800000E+00  1.00800000E+00  1.60000000E+01  1.00800000E+00  1.00800000E+00
  1.60000000E+01  1.00800000E+00  1.00800000E+00  1.60000000E+01  1.00800000E+00
  1.00800000E+00  1.60000000E+01  1.00800000E+00  1.00800000E+00  1.60000000E+01
  1.00800000E+00  1.00800000E+00  1.60000000E+01  1.00800000E+00  1.00800000E+00
  1.60000000E+01  1.00800000E+00  1.00800000E+00  1.60000000E+01  1.00800000E+00
  1.00800000E+00  1.60000000E+01  1.00800000E+00  1.00800000E+00  1.60000000E+01
  1.00800000E+00  1.00800000E+00  1.60000000E+01  1.00800000E+00  1.00800000E+00
  1.60000000E+01  1.00800000E+00  1.00800000E+00  1.60000000E+01  1.00800000E+00
  1.00800000E+00  1.60000000E+01  1.00800000E+00  1.00800000E+00  1.60000000E+01
  1.00800000E+00  1.00800000E+00  1.60000000E+01  1.00800000E+00  1.00800000E+00
  1.60000000E+01  1.00800000E+00  1.00800000E+00  1.60000000E+01  1.00800000E+00
  1.00800000E+00  1.60000000E+01  1.00800000E+00  1.00800000E+00  1.60000000E+01
  1.00800000E+00  1.00800000E+00  1.60000000E+01  1.00800000E+00  1.00800000E+00
  1.60000000E+01  1.00800000E+00  1.00800000E+00  1.60000000E+01  1.00800000E+00
  1.00800000E+00  1.60000000E+01  1.00800000E+00  1.00800000E+00  1.60000000E+01
  1.00800000E+00  1.00800000E+00  1.60000000E+01  1.00800000E+00  1.00800000E+00
  1.60000000E+01  1.00800000E+00  1.00800000E+00  1.60000000E+01  1.00800000E+00
  1.00800000E+00  1.60000000E+01  1.00800000E+00  1.00800000E+00  1.60000000E+01
  1.00800000E+00  1.00800000E+00  1.60000000E+01  1.00800000E+00  1.00800000E+00
  1.60000000E+01  1.00800000E+00  1.00800000E+00  1.60000000E+01  1.00800000E+00
  1.00800000E+00  1.60000000E+01  1.00800000E+00  1.00800000E+00  1.60000000E+01
  1.00800000E+00  1.00800000E+00  1.60000000E+01  1.00800000E+00  1.00800000E+00
  1.60000000E+01  1.00800000E+00  1.00800000E+00  1.60000000E+01  1.00800000E+00
  1.00800000E+00  1.60000000E+01  1.00800000E+00  1.00800000E+00  1.60000000E+01
  1.00800000E+00  1.00800000E+00  1.60000000E+01  1.00800000E+00  1.00800000E+00
  1.60000000E+01  1.00800000E+00  1.00800000E+00  1.60000000E+01  1.00800000E+00
  1.00800000E+00  1.60000000E+01  1.00800000E+00  1.00800000E+00  1.60000000E+01
  1.00800000E+00  1.00800000E+00  1.60000000E+01  1.00800000E+00  1.00800000E+00
  1.60000000E+01  1.00800000E+00  1.00800000E+00  1.60000000E+01  1.00800000E+00
  1.00800000E+00  1.60000000E+01  1.00800000E+00  1.00800000E+00  1.60000000E+01
  1.00800000E+00  1.00800000E+00  1.60000000E+01  1.00800000E+00  1.00800000E+00
  1.60000000E+01  1.00800000E+00  1.00800000E+00  1.60000000E+01  1.00800000E+00
  1.00800000E+00  1.60000000E+01  1.00800000E+00  1.00800000E+00  1.60000000E+01
  1.00800000E+00  1.00800000E+00  1.60000000E+01  1.00800000E+00  1.00800000E+00
  1.60000000E+01  1.00800000E+00  1.00800000E+00  1.60000000E+01  1.00800000E+00
  1.00800000E+00  1.60000000E+01  1.00800000E+00  1.00800000E+00  1.60000000E+01
  1.00800000E+00  1.00800000E+00  1.60000000E+01  1.00800000E+00  1.00800000E+00
  1.60000000E+01  1.00800000E+00  1.00800000E+00  1.60000000E+01  1.00800000E+00
  1.00800000E+00  1.60000000E+01  1.00800000E+00  1.00800000E+00  1.60000000E+01
  1.00800000E+00  1.00800000E+00  1.60000000E+01  1.00800000E+00  1.00800000E+00
  1.60000000E+01  1.00800000E+00  1.00800000E+00  1.60000000E+01  1.00800000E+00
  1.00800000E+00  1.60000000E+01  1.00800000E+00  1.00800000E+00  1.60000000E+01
  1.00800000E+00  1.00800000E+00  1.60000000E+01  1.00800000E+00  1.00800000E+00
  1.60000000E+01  1.00800000E+00  1.00800000E+00  1.60000000E+01  1.00800000E+00
  1.00800000E+00  1.60000000E+01  1.00800000E+00  1.00800000E+00  1.60000000E+01
  1.00800000E+00  1.00800000E+00  1.60000000E+01  1.00800000E+00  1.00800000E+00
  1.60000000E+01  1.00800000E+00  1.00800000E+00  1.60000000E+01  1.00800000E+00
  1.00800000E+00  1.60000000E+01  1.00800000E+00  1.00800000E+00  1.60000000E+01
  1.00800000E+00  1.00800000E+00  1.60000000E+01  1.00800000E+00  1.00800000E+00
  1.60000000E+01  1.00800000E+00  1.00800000E+00  1.60000000E+01  1.00800000E+00
  1.00800000E+00  1.60000000E+01  1.00800000E+00  1.00800000E+00  1.60000000E+01
  1.00800000E+00  1.00800000E+00  1.60000000E+01  1.00800000E+00  1.00800000E+00
  1.60000000E+01  1.00800000E+00  1.00800000E+00  1.60000000E+01  1.00800000E+00
  1.00800000E+00  1.60000000E+01  1.00800000E+00  1.00800000E+00  1.60000000E+01
  1.00800000E+00  1.00800000E+00  1.60000000E+01  1.00800000E+00  1.00800000E+00
  1.60000000E+01  1.00800000E+00  1.00800000E+00  1.60000000E+01  1.00800000E+00
  1.00800000E+00  1.60000000E+01  1.00800000E+00  1.00800000E+00  1.60000000E+01
  1.00800000E+00  1.00800000E+00  1.60000000E+01  1.00800000E+00  1.00800000E+00
  1.60000000E+01  1.00800000E+00  1.00800000E+00  1.60000000E+01  1.00800000E+00
  1.00800000E+00  1.60000000E+01  1.00800000E+00  1.00800000E+00  1.60000000E+01
  1.00800000E+00  1.00800000E+00  1.60000000E+01  1.00800000E+00  1.00800000E+00
  1.60000000E+01  1.00800000E+00  1.00800000E+00  1.60000000E+01  1.00800000E+00
  1.00800000E+00  1.60000000E+01  1.00800000E+00  1.00800000E+00  1.60000000E+01
  1.00800000E+00  1.00800000E+00  1.60000000E+01  1.00800000E+00  1.00800000E+00
  1.60000000E+01  1.00800000E+00  1.00800000E+00  1.60000000E+01  1.00800000E+00
  1.00800000E+00  1.60000000E+01  1.00800000E+00  1.00800000E+00  1.60000000E+01
  1.00800000E+00  1.00800000E+00  1.60000000E+01  1.00800000E+00  1.00800000E+00
  1.60000000E+01  1.00800000E+00  1.00800000E+00  1.60000000E+01  1.00800000E+00
  1.00800000E+00  1.60000000E+01  1.00800000E+00  1.00800000E+00  1.60000000E+01
  1.00800000E+00  1.00800000E+00  1.60000000E+01  1.00800000E+00  1.00800000E+00
  1.60000000E+01  1.00800000E+00  1.00800000E+00  1.60000000E+01  1.00800000E+00
  1.00800000E+00  1.60000000E+01  1.00800000E+00  1.00800000E+00  1.60000000E+01
  1.00800000E+00  1.00800000E+00  1.60000000E+01  1.00800000E+00  1.00800000E+00
  1.60000000E+01  1.00800000E+00  1.00800000E+00  1.60000000E+01  1.00800000E+00
  1.00800000E+00  1.60000000E+01  1.00800000E+00  1.00800000E+00  1.60000000E+01
  1.00800000E+00  1.00800000E+00  1.60000000E+01  1.00800000E+00  1.00800000E+00
  1.60000000E+01  1.00800000E+00  1.00800000E+00  1.60000000E+01  1.00800000E+00
  1.00800000E+00  1.60000000E+01  1.00800000E+00  1.00800000E+00  1.60000000E+01
  1.00800000E+00  1.00800000E+00  1.60000000E+01  1.00800000E+00  1.00800000E+00
  1.60000000E+01  1.00800000E+00  1.00800000E+00  1.60000000E+01  1.00800000E+00
  1.00800000E+00  1.60000000E+01  1.00800000E+00  1.00800000E+00  1.60000000E+01
  1.00800000E+00  1.00800000E+00  1.60000000E+01  1.00800000E+00  1.00800000E+00
  1.60000000E+01  1.00800000E+00  1.00800000E+00  1.60000000E+01  1.00800000E+00
  1.00800000E+00  1.60000000E+01  1.00800000E+00  1.00800000E+00  1.60000000E+01
  1.00800000E+00  1.00800000E+00  1.60000000E+01  1.00800000E+00  1.00800000E+00
  1.60000000E+01  1.00800000E+00  1.00800000E+00  1.60000000E+01  1.00800000E+00
  1.00800000E+00  1.60000000E+01  1.00800000E+00  1.00800000E+00  1.60000000E+01
  1.00800000E+00  1.00800000E+00  1.60000000E+01  1.00800000E+00  1.00800000E+00
  1.60000000E+01  1.00800000E+00  1.00800000E+00  1.60000000E+01  1.00800000E+00
  1.00800000E+00  1.60000000E+01  1.00800000E+00  1.00800000E+00  1.60000000E+01
  1.00800000E+00  1.00800000E+00  1.60000000E+01  1.00800000E+00  1.00800000E+00
  1.60000000E+01  1.00800000E+00  1.00800000E+00  1.60000000E+01  1.00800000E+00
  1.00800000E+00  1.60000000E+01  1.00800000E+00  1.00800000E+00  1.60000000E+01
  1.00800000E+00  1.00800000E+00  1.60000000E+01  1.00800000E+00  1.00800000E+00
  1.60000000E+01  1.00800000E+00  1.00800000E+00  1.60000000E+01  1.00800000E+00
  1.00800000E+00  1.60000000E+01  1.00800000E+00  1.00800000E+00  1.60000000E+01
  1.00800000E+00  1.00800000E+00  1.60000000E+01  1.00800000E+00  1.00800000E+00
  1.60000000E+01  1.00800000E+00  1.00800000E+00  1.60000000E+01  1.00800000E+00
  1.00800000E+00  1.60000000E+01  1.00800000E+00  1.00800000E+00  1.60000000E+01
  1.00800000E+00  1.00800000E+00  1.60000000E+01  1.00800000E+00  1.00800000E+00
  1.60000000E+01  1.00800000E+00  1.00800000E+00  1.60000000E+01  1.00800000E+00
  1.00800000E+00  1.60000000E+01  1.00800000E+00  1.00800000E+00  1.60000000E+01
  1.00800000E+00  1.00800000E+00  1.60000000E+01  1.00800000E+00  1.00800000E+00
  1.60000000E+01  1.00800000E+00  1.00800000E+00  1.60000000E+01  1.00800000E+00
  1.00800000E+00  1.60000000E+01  1.00800000E+00  1.00800000E+00  1.60000000E+01
  1.00800000E+00  1.00800000E+00  1.60000000E+01  1.00800000E+00  1.00800000E+00
  1.60000000E+01  1.00800000E+00  1.00800000E+00  1.60000000E+01  1.00800000E+00
  1.00800000E+00  1.60000000E+01  1.00800000E+00  1.00800000E+00  1.60000000E+01
  1.00800000E+00  1.00800000E+00  1.60000000E+01  1.00800000E+00  1.00800000E+00
  1.60000000E+01  1.00800000E+00  1.00800000E+00  1.60000000E+01  1.00800000E+00
  1.00800000E+00  1.60000000E+01  1.00800000E+00  1.00800000E+00  1.60000000E+01
  1.00800000E+00  1.00800000E+00  1.60000000E+01  1.00800000E+00  1.00800000E+00
  1.60000000E+01  1.00800000E+00  1.00800000E+00  1.60000000E+01  1.00800000E+00
  1.00800000E+00  1.60000000E+01  1.00800000E+00  1.00800000E+00  1.60000000E+01
  1.00800000E+00  1.00800000E+00  1.60000000E+01  1.00800000E+00  1.00800000E+00
  1.60000000E+01  1.00800000E+00  1.00800000E+00  1.60000000E+01  1.00800000E+00
  1.00800000E+00  1.60000000E+01  1.00800000E+00  1.00800000E+00  1.60000000E+01
  1.00800000E+00  1.00800000E+00  1.60000000E+01  1.00800000E+00  1.00800000E+00
  1.60000000E+01  1.00800000E+00  1.00800000E+00  1.60000000E+01  1.00800000E+00
  1.00800000E+00  1.60000000E+01  1.00800000E+00  1.00800000E+00  1.60000000E+01
  1.00800000E+00  1.00800000E+00  1.60000000E+01  1.00800000E+00  1.00800000E+00
  1.60000000E+01  1.00800000E+00  1.00800000E+00  1.60000000E+01  1.00800000E+00
  1.00800000E+00  1.60000000E+01  1.00800000E+00  1.00800000E+00  1.60000000E+01
  1.00800000E+00  1.00800000E+00  1.60000000E+01  1.00800000E+00  1.00800000E+00
  1.60000000E+01  1.00800000E+00  1.00800000E+00  1.60000000E+01  1.00800000E+00
  1.00800000E+00  1.60000000E+01  1.00800000E+00  1.00800000E+00  1.60000000E+01
  1.00800000E+00  1.00800000E+00  1.60000000E+01  1.00800000E+00  1.00800000E+00
  1.60000000E+01  1.00800000E+00  1.00800000E+00  1.60000000E+01  1.00800000E+00
  1.00800000E+00  1.60000000E+01  1.00800000E+00  1.00800000E+00  1.60000000E+01
  1.00800000E+00  1.00800000E+00  1.60000000E+01  1.00800000E+00  1.00800000E+00
  1.60000000E+01  1.00800000E+00  1.00800000E+00  1.60000000E+01  1.00800000E+00
  1.00800000E+00  1.60000000E+01  1.00800000E+00  1.00800000E+00  1.60000000E+01
  1.00800000E+00  1.00800000E+00  1.60000000E+01  1.00800000E+00  1.00800000E+00
  1.60000000E+01  1.00800000E+00  1.00800000E+00  1.60000000E+01  1.00800000E+00
  1.00800000E+00  1.60000000E+01  1.00800000E+00  1.00800000E+00  1.60000000E+01
  1.00800000E+00  1.00800000E+00  1.60000000E+01  1.00800000E+00  1.00800000E+00
  1.60000000E+01  1.00800000E+00  1.00800000E+00  1.60000000E+01  1.00800000E+00
  1.00800000E+00  1.60000000E+01  1.00800000E+00  1.00800000E+00  1.60000000E+01
  1.00800000E+00  1.00800000E+00  1.60000000E+01  1.00800000E+00  1.00800000E+00
  1.60000000E+01  1.00800000E+00  1.00800000E+00  1.60000000E+01  1.00800000E+00
  1.00800000E+00  1.60000000E+01  1.00800000E+00  1.00800000E+00  1.60000000E+01
  1.00800000E+00  1.00800000E+00  1.60000000E+01  1.00800000E+00  1.00800000E+00
  1.60000000E+01  1.00800000E+00  1.00800000E+00  1.60000000E+01  1.00800000E+00
  1.00800000E+00  1.60000000E+01  1.00800000E+00  1.00800000E+00  1.60000000E+01
  1.00800000E+00  1.00800000E+00  1.60000000E+01  1.00800000E+00  1.00800000E+00
  1.60000000E+01  1.00800000E+00  1.00800000E+00  1.60000000E+01  1.00800000E+00
  1.00800000E+00  1.60000000E+01  1.00800000E+00  1.00800000E+00  1.60000000E+01
  1.00800000E+00  1.00800000E+00  1.60000000E+01  1.00800000E+00  1.00800000E+00
  1.60000000E+01  1.00800000E+00  1.00800000E+00  1.60000000E+01  1.00800000E+00
  1.00800000E+00  1.60000000E+01  1.00800000E+00  1.00800000E+00  1.60000000E+01
  1.00800000E+00  1.00800000E+00  1.60000000E+01  1.00800000E+00  1.00800000E+00
  1.60000000E+01  1.00800000E+00  1.00800000E+00  1.60000000E+01  1.00800000E+00
  1.00800000E+00  1.60000000E+01  1.00800000E+00  1.00800000E+00  1.60000000E+01
  1.00800000E+00  1.00800000E+00  1.60000000E+01  1.00800000E+00  1.00800000E+00
  1.60000000E+01  1.00800000E+00  1.00800000E+00  1.60000000E+01  1.00800000E+00
  1.00800000E+00  1.60000000E+01  1.00800000E+00  1.00800000E+00  1.60000000E+01
  1.00800000E+00  1.00800000E+00  1.60000000E+01  1.00800000E+00  1.00800000E+00
  1.60000000E+01  1.00800000E+00  1.00800000E+00  1.60000000E+01  1.00800000E+00
  1.00800000E+00  1.60000000E+01  1.00800000E+00  1.00800000E+00  1.60000000E+01
  1.00800000E+00  1.00800000E+00  1.60000000E+01  1.00800000E+00  1.00800000E+00
  1.60000000E+01  1.00800000E+00  1.00800000E+00  1.60000000E+01  1.00800000E+00
  1.00800000E+00  1.60000000E+01  1.00800000E+00  1.00800000E+00  1.60000000E+01
  1.00800000E+00  1.00800000E+00  1.60000000E+01  1.00800000E+00  1.00800000E+00
  1.60000000E+01  1.00800000E+00  1.00800000E+00  1.60000000E+01  1.00800000E+00
  1.00800000E+00  1.60000000E+01  1.00800000E+00  1.00800000E+00  1.60000000E+01
  1.00800000E+00  1.00800000E+00  1.60000000E+01  1.00800000E+00  1.00800000E+00
  1.60000000E+01  1.00800000E+00  1.00800000E+00  1.60000000E+01  1.00800000E+00
  1.00800000E+00  1.60000000E+01  1.00800000E+00  1.00800000E+00  1.60000000E+01
  1.00800000E+00  1.00800000E+00  1.60000000E+01  1.00800000E+00  1.00800000E+00
  1.60000000E+01  1.00800000E+00  1.00800000E+00  1.60000000E+01  1.00800000E+00
  1.00800000E+00  1.60000000E+01  1.00800000E+00  1.00800000E+00  1.60000000E+01
  1.00800000E+00  1.00800000E+00  1.60000000E+01  1.00800000E+00  1.00800000E+00
  1.60000000E+01  1.00800000E+00  1.00800000E+00  1.60000000E+01  1.00800000E+00
  1.00800000E+00  1.60000000E+01  1.00800000E+00  1.00800000E+00  1.60000000E+01
  1.00800000E+00  1.00800000E+00  1.60000000E+01  1.00800000E+00  1.00800000E+00
  1.60000000E+01  1.00800000E+00  1.00800000E+00  1.60000000E+01  1.00800000E+00
  1.00800000E+00  1.60000000E+01  1.00800000E+00  1.00800000E+00  1.60000000E+01
  1.00800000E+00  1.00800000E+00  1.60000000E+01  1.00800000E+00  1.00800000E+00
  1.60000000E+01  1.00800000E+00  1.00800000E+00  1.60000000E+01  1.00800000E+00
  1.00800000E+00  1.60000000E+01  1.00800000E+00  1.00800000E+00  1.60000000E+01
  1.00800000E+00  1.00800000E+00  1.60000000E+01  1.00800000E+00  1.00800000E+00
  1.60000000E+01  1.00800000E+00  1.00800000E+00  1.60000000E+01  1.00800000E+00
  1.00800000E+00  1.60000000E+01  1.00800000E+00  1.00800000E+00  1.60000000E+01
  1.00800000E+00  1.00800000E+00  1.60000000E+01  1.00800000E+00  1.00800000E+00
  1.60000000E+01  1.00800000E+00  1.00800000E+00  1.60000000E+01  1.00800000E+00
  1.00800000E+00  1.60000000E+01  1.00800000E+00  1.00800000E+00  1.60000000E+01
  1.00800000E+00  1.00800000E+00  1.60000000E+01  1.00800000E+00  1.00800000E+00
  1.60000000E+01  1.00800000E+00  1.00800000E+00  1.60000000E+01  1.00800000E+00
  1.00800000E+00  1.60000000E+01  1.00800000E+00  1.00800000E+00  1.60000000E+01
  1.00800000E+00  1.00800000E+00  1.60000000E+01  1.00800000E+00  1.00800000E+00
  1.60000000E+01  1.00800000E+00  1.00800000E+00  1.60000000E+01  1.00800000E+00
  1.00800000E+00  1.60000000E+01  1.00800000E+00  1.00800000E+00  1.60000000E+01
  1.00800000E+00  1.00800000E+00  1.60000000E+01  1.00800000E+00  1.00800000E+00
  1.60000000E+01  1.00800000E+00  1.00800000E+00  1.60000000E+01  1.00800000E+00
  1.00800000E+00  1.60000000E+01  1.00800000E+00  1.00800000E+00  1.60000000E+01
  1.00800000E+00  1.00800000E+00  1.60000000E+01  1.00800000E+00  1.00800000E+00
  1.60000000E+01  1.00800000E+00  1.00800000E+00  1.60000000E+01  1.00800000E+00
  1.00800000E+00  1.60000000E+01  1.00800000E+00  1.00800000E+00  1.60000000E+01
  1.00800000E+00  1.00800000E+00  1.60000000E+01  1.00800000E+00  1.00800000E+00
  1.60000000E+01  1.00800000E+00  1.00800000E+00  1.60000000E+01  1.00800000E+00
  1.00800000E+00  1.60000000E+01  1.00800000E+00  1.00800000E+00  1.60000000E+01
  1.00800000E+00  1.00800000E+00  1.60000000E+01  1.00800000E+00  1.00800000E+00
  1.60000000E+01  1.00800000E+00  1.00800000E+00  1.60000000E+01  1.00800000E+00
  1.00800000E+00  1.60000000E+01  1.00800000E+00  1.00800000E+00  1.60000000E+01
  1.00800000E+00  1.00800000E+00  1.60000000E+01  1.00800000E+00  1.00800000E+00
  1.60000000E+01  1.00800000E+00  1.00800000E+00  1.60000000E+01  1.00800000E+00
  1.00800000E+00  1.60000000E+01  1.00800000E+00  1.00800000E+00  1.60000000E+01
  1.00800000E+00  1.00800000E+00  1.60000000E+01  1.00800000E+00  1.00800000E+00
  1.60000000E+01  1.00800000E+00  1.00800000E+00  1.60000000E+01  1.00800000E+00
  1.00800000E+00  1.60000000E+01  1.00800000E+00  1.00800000E+00  1.60000000E+01
  1.00800000E+00  1.00800000E+00  1.60000000E+01  1.00800000E+00  1.00800000E+00
  1.60000000E+01  1.00800000E+00  1.00800000E+00  1.60000000E+01  1.00800000E+00
  1.00800000E+00  1.60000000E+01  1.00800000E+00  1.00800000E+00  1.60000000E+01
  1.00800000E+00  1.00800000E+00  1.60000000E+01  1.00800000E+00  1.00800000E+00
  1.60000000E+01  1.00800000E+00  1.00800000E+00  1.60000000E+01  1.00800000E+00
  1.00800000E+00  1.60000000E+01  1.00800000E+00  1.00800000E+00  1.60000000E+01
  1.00800000E+00  1.00800000E+00  1.60000000E+01  1.00800000E+00  1.00800000E+00
  1.60000000E+01  1.00800000E+00  1.00800000E+00  1.60000000E+01  1.00800000E+00
  1.00800000E+00  1.60000000E+01  1.00800000E+00  1.00800000E+00  1.60000000E+01
  1.00800000E+00  1.00800000E+00  1.60000000E+01  1.00800000E+00  1.00800000E+00
  1.60000000E+01  1.00800000E+00  1.00800000E+00  1.60000000E+01  1.00800000E+00
  1.00800000E+00  1.60000000E+01  1.00800000E+00  1.00800000E+00  1.60000000E+01
  1.00800000E+00  1.00800000E+00  1.60000000E+01  1.00800000E+00  1.00800000E+00
  1.60000000E+01  1.00800000E+00  1.00800000E+00  1.60000000E+01  1.00800000E+00
  1.00800000E+00  1.60000000E+01  1.00800000E+00  1.00800000E+00  1.60000000E+01
  1.00800000E+00  1.00800000E+00  1.60000000E+01  1.00800000E+00  1.00800000E+00
  1.60000000E+01  1.00800000E+00  1.00800000E+00  1.60000000E+01  1.00800000E+00
  1.00800000E+00  1.60000000E+01  1.00800000E+00  1.00800000E+00  1.60000000E+01
  1.00800000E+00  1.00800000E+00  1.60000000E+01  1.00800000E+00  1.00800000E+00
  1.60000000E+01  1.00800000E+00  1.00800000E+00  1.60000000E+01  1.00800000E+00
  1.00800000E+00  1.60000000E+01  1.00800000E+00  1.00800000E+00  1.60000000E+01
  1.00800000E+00  1.00800000E+00  1.60000000E+01  1.00800000E+00  1.00800000E+00
  1.60000000E+01  1.00800000E+00  1.00800000E+00  1.60000000E+01  1.00800000E+00
  1.00800000E+00  1.60000000E+01  1.00800000E+00  1.00800000E+00  1.60000000E+01
  1.00800000E+00  1.00800000E+00  1.60000000E+01  1.00800000E+00  1.00800000E+00
  1.60000000E+01  1.00800000E+00  1.00800000E+00  1.60000000E+01  1.00800000E+00
  1.00800000E+00  1.60000000E+01  1.00800000E+00  1.00800000E+00  1.60000000E+01
  1.00800000E+00  1.00800000E+00  1.60000000E+01  1.00800000E+00  1.00800000E+00
  1.60000000E+01  1.00800000E+00  1.00800000E+00  1.60000000E+01  1.00800000E+00
  1.00800000E+00  1.60000000E+01  1.00800000E+00  1.00800000E+00  1.60000000E+01
  1.00800000E+00  1.00800000E+00  1.60000000E+01  1.00800000E+00  1.00800000E+00
  1.60000000E+01  1.00800000E+00  1.00800000E+00  1.60000000E+01  1.00800000E+00
  1.00800000E+00  1.60000000E+01  1.00800000E+00  1.00800000E+00  1.60000000E+01
  1.00800000E+00  1.00800000E+00  1.60000000E+01  1.00800000E+00  1.00800000E+00
  1.60000000E+01  1.00800000E+00  1.00800000E+00  1.60000000E+01  1.00800000E+00
  1.00800000E+00  1.60000000E+01  1.00800000E+00  1.00800000E+00  1.60000000E+01
  1.00800000E+00  1.00800000E+00  1.60000000E+01  1.00800000E+00  1.00800000E+00
  1.60000000E+01  1.00800000E+00  1.00800000E+00  1.60000000E+01  1.00800000E+00
  1.00800000E+00  1.60000000E+01  1.00800000E+00  1.00800000E+00  1.60000000E+01
  1.00800000E+00  1.00800000E+00  1.60000000E+01  1.00800000E+00  1.00800000E+00
  1.60000000E+01  1.00800000E+00  1.00800000E+00  1.60000000E+01  1.00800000E+00
  1.00800000E+00  1.60000000E+01  1.00800000E+00  1.00800000E+00  1.60000000E+01
  1.00800000E+00  1.00800000E+00  1.60000000E+01  1.00800000E+00  1.00800000E+00
  1.60000000E+01  1.00800000E+00  1.00800000E+00  1.60000000E+01  1.00800000E+00
  1.00800000E+00  1.60000000E+01  1.00800000E+00  1.00800000E+00  1.60000000E+01
  1.00800000E+00  1.00800000E+00  1.60000000E+01  1.00800000E+00  1.00800000E+00
  1.60000000E+01  1.00800000E+00  1.00800000E+00  1.60000000E+01  1.00800000E+00
  1.00800000E+00  1.60000000E+01  1.00800000E+00  1.00800000E+00  1.60000000E+01
  1.00800000E+00  1.00800000E+00  1.60000000E+01  1.00800000E+00  1.00800000E+00
  1.60000000E+01  1.00800000E+00  1.00800000E+00  1.60000000E+01  1.00800000E+00
  1.00800000E+00  1.60000000E+01  1.00800000E+00  1.00800000E+00  1.60000000E+01
  1.00800000E+00  1.00800000E+00  1.60000000E+01  1.00800000E+00  1.00800000E+00
  1.60000000E+01  1.00800000E+00  1.00800000E+00  1.60000000E+01  1.00800000E+00
  1.00800000E+00  1.60000000E+01  1.00800000E+00  1.00800000E+00  1.60000000E+01
  1.00800000E+00  1.00800000E+00  1.60000000E+01  1.00800000E+00  1.00800000E+00
  1.60000000E+01  1.00800000E+00  1.00800000E+00  1.60000000E+01  1.00800000E+00
  1.00800000E+00  1.60000000E+01  1.00800000E+00  1.00800000E+00  1.60000000E+01
  1.00800000E+00  1.00800000E+00  1.60000000E+01  1.00800000E+00  1.00800000E+00
  1.60000000E+01  1.00800000E+00  1.00800000E+00  1.60000000E+01  1.00800000E+00
  1.00800000E+00  1.60000000E+01  1.00800000E+00  1.00800000E+00  1.60000000E+01
  1.00800000E+00  1.00800000E+00  1.60000000E+01  1.00800000E+00  1.00800000E+00
  1.60000000E+01  1.00800000E+00  1.00800000E+00  1.60000000E+01  1.00800000E+00
  1.00800000E+00  1.60000000E+01  1.00800000E+00  1.00800000E+00  1.60000000E+01
  1.00800000E+00  1.00800000E+00  1.60000000E+01  1.00800000E+00  1.00800000E+00
  1.60000000E+01  1.00800000E+00  1.00800000E+00  1.60000000E+01  1.00800000E+00
  1.00800000E+00  1.60000000E+01  1.00800000E+00  1.00800000E+00  1.60000000E+01
  1.00800000E+00  1.00800000E+00  1.60000000E+01  1.00800000E+00  1.00800000E+00
  1.60000000E+01  1.00800000E+00  1.00800000E+00  1.60000000E+01  1.00800000E+00
  1.00800000E+00  1.60000000E+01  1.00800000E+00  1.00800000E+00  1.60000000E+01
  1.00800000E+00  1.00800000E+00  1.60000000E+01  1.00800000E+00  1.00800000E+00
  1.60000000E+01  1.00800000E+00  1.00800000E+00  1.60000000E+01  1.00800000E+00
  1.00800000E+00  1.60000000E+01  1.00800000E+00  1.00800000E+00  1.60000000E+01
  1.00800000E+00  1.00800000E+00  1.60000000E+01  1.00800000E+00  1.00800000E+00
  1.60000000E+01  1.00800000E+00  1.00800000E+00  1.60000000E+01  1.00800000E+00
  1.00800000E+00  1.60000000E+01  1.00800000E+00  1.00800000E+00  1.60000000E+01
  1.00800000E+00  1.00800000E+00  1.60000000E+01  1.00800000E+00  1.00800000E+00
  1.60000000E+01  1.00800000E+00  1.00800000E+00  1.60000000E+01  1.00800000E+00
  1.00800000E+00  1.60000000E+01  1.00800000E+00  1.00800000E+00  1.60000000E+01
  1.00800000E+00  1.00800000E+00  1.60000000E+01  1.00800000E+00  1.00800000E+00
  1.60000000E+01  1.00800000E+00  1.00800000E+00  1.60000000E+01  1.00800000E+00
  1.00800000E+00  1.60000000E+01  1.00800000E+00  1.00800000E+00  1.60000000E+01
  1.00800000E+00  1.00800000E+00  1.60000000E+01  1.00800000E+00  1.00800000E+00
  1.60000000E+01  1.00800000E+00  1.00800000E+00  1.60000000E+01  1.00800000E+00
  1.00800000E+00  1.60000000E+01  1.00800000E+00  1.00800000E+00  1.60000000E+01
  1.00800000E+00  1.00800000E+00  1.60000000E+01  1.00800000E+00  1.00800000E+00
  1.60000000E+01  1.00800000E+00  1.00800000E+00  1.60000000E+01  1.00800000E+00
  1.00800000E+00  1.60000000E+01  1.00800000E+00  1.00800000E+00  1.60000000E+01
  1.00800000E+00  1.00800000E+00  1.60000000E+01  1.00800000E+00  1.00800000E+00
  1.60000000E+01  1.00800000E+00  1.00800000E+00  1.60000000E+01  1.00800000E+00
  1.00800000E+00  1.60000000E+01  1.00800000E+00  1.00800000E+00  1.60000000E+01
  1.00800000E+00  1.00800000E+00  1.60000000E+01  1.00800000E+00  1.00800000E+00
  1.60000000E+01  1.00800000E+00  1.00800000E+00  1.60000000E+01  1.00800000E+00
  1.00800000E+00  1.60000000E+01  1.00800000E+00  1.00800000E+00  1.60000000E+01
  1.00800000E+00  1.00800000E+00  1.60000000E+01  1.00800000E+00  1.00800000E+00
  1.60000000E+01  1.00800000E+00  1.00800000E+00  1.60000000E+01  1.00800000E+00
  1.00800000E+00  1.60000000E+01  1.00800000E+00  1.00800000E+00  1.60000000E+01
  1.00800000E+00  1.00800000E+00  1.60000000E+01  1.00800000E+00  1.00800000E+00
  1.60000000E+01  1.00800000E+00  1.00800000E+00  1.60000000E+01  1.00800000E+00
  1.00800000E+00  1.60000000E+01  1.00800000E+00  1.00800000E+00  1.60000000E+01
  1.00800000E+00  1.00800000E+00  1.60000000E+01  1.00800000E+00  1.00800000E+00
  1.60000000E+01  1.00800000E+00  1.00800000E+00  1.60000000E+01  1.00800000E+00
  1.00800000E+00  1.60000000E+01  1.00800000E+00  1.00800000E+00  1.60000000E+01
  1.00800000E+00  1.00800000E+00  1.60000000E+01  1.00800000E+00  1.00800000E+00
  1.60000000E+01  1.00800000E+00  1.00800000E+00  1.60000000E+01  1.00800000E+00
  1.00800000E+00  1.60000000E+01  1.00800000E+00  1.00800000E+00  1.60000000E+01
  1.00800000E+00  1.00800000E+00  1.60000000E+01  1.00800000E+00  1.00800000E+00
  1.60000000E+01  1.00800000E+00  1.00800000E+00  1.60000000E+01  1.00800000E+00
  1.00800000E+00  1.60000000E+01  1.00800000E+00  1.00800000E+00  1.60000000E+01
  1.00800000E+00  1.00800000E+00  1.60000000E+01  1.00800000E+00  1.00800000E+00
  1.60000000E+01  1.00800000E+00  1.00800000E+00  1.60000000E+01  1.00800000E+00
  1.00800000E+00  1.60000000E+01  1.00800000E+00  1.00800000E+00  1.60000000E+01
  1.00800000E+00  1.00800000E+00  1.60000000E+01  1.00800000E+00  1.00800000E+00
  1.60000000E+01  1.00800000E+00  1.00800000E+00  1.60000000E+01  1.00800000E+00
  1.00800000E+00  1.60000000E+01  1.00800000E+00  1.00800000E+00  1.60000000E+01
  1.00800000E+00  1.00800000E+00  1.60000000E+01  1.00800000E+00  1.00800000E+00
  1.60000000E+01  1.00800000E+00  1.00800000E+00  1.60000000E+01  1.00800000E+00
  1.00800000E+00  1.60000000E+01  1.00800000E+00  1.00800000E+00  1.60000000E+01
  1.00800000E+00  1.00800000E+00  1.60000000E+01  1.00800000E+00  1.00800000E+00
  1.60000000E+01  1.00800000E+00  1.00800000E+00  1.60000000E+01  1.00800000E+00
  1.00800000E+00  1.60000000E+01  1.00800000E+00  1.00800000E+00  1.60000000E+01
  1.00800000E+00  1.00800000E+00  1.60000000E+01  1.00800000E+00  1.00800000E+00
  1.60000000E+01  1.00800000E+00  1.00800000E+00  1.60000000E+01  1.00800000E+00
  1.00800000E+00  1.60000000E+01  1.00800000E+00  1.00800000E+00  1.60000000E+01
  1.00800000E+00  1.00800000E+00  1.60000000E+01  1.00800000E+00  1.00800000E+00
  1.60000000E+01  1.00800000E+00  1.00800000E+00  1.60000000E+01  1.00800000E+00
  1.00800000E+00  1.60000000E+01  1.00800000E+00  1.00800000E+00  1.60000000E+01
  1.00800000E+00  1.00800000E+00  1.60000000E+01  1.00800000E+00  1.00800000E+00
  1.60000000E+01  1.00800000E+00  1.00800000E+00  1.60000000E+01  1.00800000E+00
  1.00800000E+00  1.60000000E+01  1.00800000E+00  1.00800000E+00  1.60000000E+01
  1.00800000E+00  1.00800000E+00  1.60000000E+01  1.00800000E+00  1.00800000E+00
  1.60000000E+01  1.00800000E+00  1.00800000E+00  1.60000000E+01  1.00800000E+00
  1.00800000E+00  1.60000000E+01  1.00800000E+00  1.00800000E+00  1.60000000E+01
  1.00800000E+00  1.00800000E+00  1.60000000E+01  1.00800000E+00  1.00800000E+00
  1.60000000E+01  1.00800000E+00  1.00800000E+00  1.60000000E+01  1.00800000E+00
  1.00800000E+00  1.60000000E+01  1.00800000E+00  1.00800000E+00  1.60000000E+01
  1.00800000E+00  1.00800000E+00  1.60000000E+01  1.00800000E+00  1.00800000E+00
  1.60000000E+01  1.00800000E+00  1.00800000E+00  1.60000000E+01  1.00800000E+00
  1.00800000E+00  1.60000000E+01  1.00800000E+00  1.00800000E+00  1.60000000E+01
  1.00800000E+00  1.00800000E+00  1.60000000E+01  1.00800000E+00  1.00800000E+00
  1.60000000E+01  1.00800000E+00  1.00800000E+00  1.60000000E+01  1.00800000E+00
  1.00800000E+00  1.60000000E+01  1.00800000E+00  1.00800000E+00  1.60000000E+01
  1.00800000E+00  1.00800000E+00  1.60000000E+01  1.00800000E+00  1.00800000E+00
  1.60000000E+01  1.00800000E+00  1.00800000E+00  1.60000000E+01  1.00800000E+00
  1.00800000E+00  1.60000000E+01  1.00800000E+00  1.00800000E+00  1.60000000E+01
  1.00800000E+00  1.00800000E+00  1.60000000E+01  1.00800000E+00  1.00800000E+00
  1.60000000E+01  1.00800000E+00  1.00800000E+00  1.60000000E+01  1.00800000E+00
  1.00800000E+00  1.60000000E+01  1.00800000E+00  1.00800000E+00  1.60000000E+01
  1.00800000E+00  1.00800000E+00  1.60000000E+01  1.00800000E+00  1.00800000E+00
  1.60000000E+01  1.00800000E+00  1.00800000E+00  1.60000000E+01  1.00800000E+00
  1.00800000E+00  1.60000000E+01  1.00800000E+00  1.00800000E+00  1.60000000E+01
  1.00800000E+00  1.00800000E+00  1.60000000E+01  1.00800000E+00  1.00800000E+00
  1.60000000E+01  1.00800000E+00  1.00800000E+00  1.60000000E+01  1.00800000E+00
  1.00800000E+00  1.60000000E+01  1.00800000E+00  1.00800000E+00  1.60000000E+01
  1.00800000E+00  1.00800000E+00  1.60000000E+01  1.00800000E+00  1.00800000E+00
  1.60000000E+01  1.00800000E+00  1.00800000E+00  1.60000000E+01  1.00800000E+00
  1.00800000E+00  1.60000000E+01  1.00800000E+00  1.00800000E+00  1.60000000E+01
  1.00800000E+00  1.00800000E+00  1.60000000E+01  1.00800000E+00  1.00800000E+00
  1.60000000E+01  1.00800000E+00  1.00800000E+00  1.60000000E+01  1.00800000E+00
  1.00800000E+00  1.60000000E+01  1.00800000E+00  1.00800000E+00  1.60000000E+01
  1.00800000E+00  1.00800000E+00  1.60000000E+01  1.00800000E+00  1.00800000E+00
  1.60000000E+01  1.00800000E+00  1.00800000E+00  1.60000000E+01  1.00800000E+00
  1.00800000E+00  1.60000000E+01  1.00800000E+00  1.00800000E+00  1.60000000E+01
  1.00800000E+00  1.00800000E+00  1.60000000E+01  1.00800000E+00  1.00800000E+00
  1.60000000E+01  1.00800000E+00  1.00800000E+00  1.60000000E+01  1.00800000E+00
  1.00800000E+00  1.60000000E+01  1.00800000E+00  1.00800000E+00  1.60000000E+01
  1.00800000E+00  1.00800000E+00  1.60000000E+01  1.00800000E+00  1.00800000E+00
  1.60000000E+01  1.00800000E+00  1.00800000E+00  1.60000000E+01  1.00800000E+00
  1.00800000E+00  1.60000000E+01  1.00800000E+00  1.00800000E+00  1.60000000E+01
  1.00800000E+00  1.00800000E+00  1.60000000E+01  1.00800000E+00  1.00800000E+00
  1.60000000E+01  1.00800000E+00  1.00800000E+00  1.60000000E+01  1.00800000E+00
  1.00800000E+00  1.60000000E+01  1.00800000E+00  1.00800000E+00  1.60000000E+01
  1.00800000E+00  1.00800000E+00  1.60000000E+01  1.00800000E+00  1.00800000E+00
  1.60000000E+01  1.00800000E+00  1.00800000E+00  1.60000000E+01  1.00800000E+00
  1.00800000E+00  1.60000000E+01  1.00800000E+00  1.00800000E+00  1.60000000E+01
  1.00800000E+00  1.00800000E+00  1.60000000E+01  1.00800000E+00  1.00800000E+00
  1.60000000E+01  1.00800000E+00  1.00800000E+00  1.60000000E+01  1.00800000E+00
  1.00800000E+00  1.60000000E+01  1.00800000E+00  1.00800000E+00  1.60000000E+01
  1.00800000E+00  1.00800000E+00  1.60000000E+01  1.00800000E+00  1.00800000E+00
  1.60000000E+01  1.00800000E+00  1.00800000E+00  1.60000000E+01  1.00800000E+00
  1.00800000E+00  1.60000000E+01  1.00800000E+00  1.00800000E+00  1.60000000E+01
  1.00800000E+00  1.00800000E+00  1.60000000E+01  1.00800000E+00  1.00800000E+00
  1.60000000E+01  1.00800000E+00  1.00800000E+00  1.60000000E+01  1.00800000E+00
  1.00800000E+00  1.60000000E+01  1.00800000E+00  1.00800000E+00  1.60000000E+01
  1.00800000E+00  1.00800000E+00  1.60000000E+01  1.00800000E+00  1.00800000E+00
  1.60000000E+01  1.00800000E+00  1.00800000E+00  1.60000000E+01  1.00800000E+00
  1.00800000E+00  1.60000000E+01  1.00800000E+00  1.00800000E+00  1.60000000E+01
  1.00800000E+00  1.00800000E+00  1.60000000E+01  1.00800000E+00  1.00800000E+00
  1.60000000E+01  1.00800000E+00  1.00800000E+00  1.60000000E+01  1.00800000E+00
  1.00800000E+00  1.60000000E+01  1.00800000E+00  1.00800000E+00  1.60000000E+01
  1.00800000E+00  1.00800000E+00  1.60000000E+01  1.00800000E+00  1.00800000E+00
  1.60000000E+01  1.00800000E+00  1.00800000E+00  1.60000000E+01  1.00800000E+00
  1.00800000E+00  1.60000000E+01  1.00800000E+00  1.00800000E+00  1.60000000E+01
  1.00800000E+00  1.00800000E+00  1.60000000E+01  1.00800000E+00  1.00800000E+00
  1.60000000E+01  1.00800000E+00  1.00800000E+00  1.60000000E+01  1.00800000E+00
  1.00800000E+00  1.60000000E+01  1.00800000E+00  1.00800000E+00  1.60000000E+01
  1.00800000E+00  1.00800000E+00  1.60000000E+01  1.00800000E+00  1.00800000E+00
  1.60000000E+01  1.00800000E+00  1.00800000E+00  1.60000000E+01  1.00800000E+00
  1.00800000E+00  1.60000000E+01  1.00800000E+00  1.00800000E+00  1.60000000E+01
  1.00800000E+00  1.00800000E+00  1.60000000E+01  1.00800000E+00  1.00800000E+00
  1.60000000E+01  1.00800000E+00  1.00800000E+00  1.60000000E+01  1.00800000E+00
  1.00800000E+00  1.60000000E+01  1.00800000E+00  1.00800000E+00  1.60000000E+01
  1.00800000E+00  1.00800000E+00  1.60000000E+01  1.00800000E+00  1.00800000E+00
  1.60000000E+01  1.00800000E+00  1.00800000E+00  1.60000000E+01  1.00800000E+00
  1.00800000E+00  1.60000000E+01  1.00800000E+00  1.00800000E+00  1.60000000E+01
  1.00800000E+00  1.00800000E+00  1.60000000E+01  1.00800000E+00  1.00800000E+00
  1.60000000E+01  1.00800000E+00  1.00800000E+00  1.60000000E+01  1.00800000E+00
  1.00800000E+00  1.60000000E+01  1.00800000E+00  1.00800000E+00  1.60000000E+01
  1.00800000E+00  1.00800000E+00  1.60000000E+01  1.00800000E+00  1.00800000E+00
  1.60000000E+01  1.00800000E+00  1.00800000E+00  1.60000000E+01  1.00800000E+00
  1.00800000E+00  1.60000000E+01  1.00800000E+00  1.00800000E+00  1.60000000E+01
  1.00800000E+00  1.00800000E+00  1.60000000E+01  1.00800000E+00  1.00800000E+00
  1.60000000E+01  1.00800000E+00  1.00800000E+00  1.60000000E+01  1.00800000E+00
  1.00800000E+00  1.60000000E+01  1.00800000E+00  1.00800000E+00  1.60000000E+01
  1.00800000E+00  1.00800000E+00  1.60000000E+01  1.00800000E+00  1.00800000E+00
  1.60000000E+01  1.00800000E+00  1.00800000E+00  1.60000000E+01  1.00800000E+00
  1.00800000E+00  1.60000000E+01  1.00800000E+00  1.00800000E+00  1.60000000E+01
  1.00800000E+00  1.00800000E+00  1.60000000E+01  1.00800000E+00  1.00800000E+00
  1.60000000E+01  1.00800000E+00  1.00800000E+00  1.60000000E+01  1.00800000E+00
  1.00800000E+00  1.60000000E+01  1.00800000E+00  1.00800000E+00  1.60000000E+01
  1.00800000E+00  1.00800000E+00  1.60000000E+01  1.00800000E+00  1.00800000E+00
  1.60000000E+01  1.00800000E+00  1.00800000E+00  1.60000000E+01  1.00800000E+00
  1.00800000E+00  1.60000000E+01  1.00800000E+00  1.00800000E+00  1.60000000E+01
  1.00800000E+00  1.00800000E+00  1.60000000E+01  1.00800000E+00  1.00800000E+00
  1.60000000E+01  1.00800000E+00  1.00800000E+00  1.60000000E+01  1.00800000E+00
  1.00800000E+00  1.60000000E+01  1.00800000E+00  1.00800000E+00  1.60000000E+01
  1.00800000E+00  1.00800000E+00  1.60000000E+01  1.00800000E+00  1.00800000E+00
  1.60000000E+01  1.00800000E+00  1.00800000E+00  1.60000000E+01  1.00800000E+00
  1.00800000E+00  1.60000000E+01  1.00800000E+00  1.00800000E+00  1.60000000E+01
  1.00800000E+00  1.00800000E+00  1.60000000E+01  1.00800000E+00  1.00800000E+00
  1.60000000E+01  1.00800000E+00  1.00800000E+00  1.60000000E+01  1.00800000E+00
  1.00800000E+00  1.60000000E+01  1.00800000E+00  1.00800000E+00  1.60000000E+01
  1.00800000E+00  1.00800000E+00  1.60000000E+01  1.00800000E+00  1.00800000E+00
  1.60000000E+01  1.00800000E+00  1.00800000E+00  1.60000000E+01  1.00800000E+00
  1.00800000E+00  1.60000000E+01  1.00800000E+00  1.00800000E+00  1.60000000E+01
  1.00800000E+00  1.00800000E+00  1.60000000E+01  1.00800000E+00  1.00800000E+00
  1.60000000E+01  1.00800000E+00  1.00800000E+00  1.60000000E+01  1.00800000E+00
  1.00800000E+00  1.60000000E+01  1.00800000E+00  1.00800000E+00  1.60000000E+01
  1.00800000E+00  1.00800000E+00  1.60000000E+01  1.00800000E+00  1.00800000E+00
  1.60000000E+01  1.00800000E+00  1.00800000E+00  1.60000000E+01  1.00800000E+00
  1.00800000E+00  1.60000000E+01  1.00800000E+00  1.00800000E+00  1.60000000E+01
  1.00800000E+00  1.00800000E+00  1.60000000E+01  1.00800000E+00  1.00800000E+00
  1.60000000E+01  1.00800000E+00  1.00800000E+00  1.60000000E+01  1.00800000E+00
  1.00800000E+00  1.60000000E+01  1.00800000E+00  1.00800000E+00  1.60000000E+01
  1.00800000E+00  1.00800000E+00  1.60000000E+01  1.00800000E+00  1.00800000E+00
  1.60000000E+01  1.00800000E+00  1.00800000E+00  1.60000000E+01  1.00800000E+00
  1.00800000E+00  1.60000000E+01  1.00800000E+00  1.00800000E+00  1.60000000E+01
  1.00800000E+00  1.00800000E+00  1.60000000E+01  1.00800000E+00  1.00800000E+00
  1.60000000E+01  1.00800000E+00  1.00800000E+00  1.60000000E+01  1.00800000E+00
  1.00800000E+00  1.60000000E+01  1.00800000E+00  1.00800000E+00  1.60000000E+01
  1.00800000E+00  1.00800000E+00  1.60000000E+01  1.00800000E+00  1.00800000E+00
  1.60000000E+01  1.00800000E+00  1.00800000E+00  1.60000000E+01  1.00800000E+00
  1.00800000E+00  1.60000000E+01  1.00800000E+00  1.00800000E+00  1.60000000E+01
  1.00800000E+00  1.00800000E+00  1.60000000E+01  1.00800000E+00  1.00800000E+00
  1.60000000E+01  1.00800000E+00  1.00800000E+00  1.60000000E+01  1.00800000E+00
  1.00800000E+00  1.60000000E+01  1.00800000E+00  1.00800000E+00  1.60000000E+01
  1.00800000E+00  1.00800000E+00  1.60000000E+01  1.00800000E+00  1.00800000E+00
  1.60000000E+01  1.00800000E+00  1.00800000E+00  1.60000000E+01  1.00800000E+00
  1.00800000E+00  1.60000000E+01  1.00800000E+00  1.00800000E+00  1.60000000E+01
  1.00800000E+00  1.00800000E+00  1.60000000E+01  1.00800000E+00  1.00800000E+00
  1.60000000E+01  1.00800000E+00  1.00800000E+00  1.60000000E+01  1.00800000E+00
  1.00800000E+00  1.60000000E+01  1.00800000E+00  1.00800000E+00  1.60000000E+01
  1.00800000E+00  1.00800000E+00  1.60000000E+01  1.00800000E+00  1.00800000E+00
  1.60000000E+01  1.00800000E+00  1.00800000E+00  1.60000000E+01  1.00800000E+00
  1.00800000E+00  1.60000000E+01  1.00800000E+00  1.00800000E+00  1.60000000E+01
  1.00800000E+00  1.00800000E+00  1.60000000E+01  1.00800000E+00  1.00800000E+00
  1.60000000E+01  1.00800000E+00  1.00800000E+00  1.60000000E+01  1.00800000E+00
  1.00800000E+00  1.60000000E+01  1.00800000E+00  1.00800000E+00  1.60000000E+01
  1.00800000E+00  1.00800000E+00  1.60000000E+01  1.00800000E+00  1.00800000E+00
  1.60000000E+01  1.00800000E+00  1.00800000E+00  1.60000000E+01  1.00800000E+00
  1.00800000E+00  1.60000000E+01  1.00800000E+00  1.00800000E+00  1.60000000E+01
  1.00800000E+00  1.00800000E+00  1.60000000E+01  1.00800000E+00  1.00800000E+00
  1.60000000E+01  1.00800000E+00  1.00800000E+00  1.60000000E+01  1.00800000E+00
  1.00800000E+00  1.60000000E+01  1.00800000E+00  1.00800000E+00  1.60000000E+01
  1.00800000E+00  1.00800000E+00  1.60000000E+01  1.00800000E+00  1.00800000E+00
  1.60000000E+01  1.00800000E+00  1.00800000E+00  1.60000000E+01  1.00800000E+00
  1.00800000E+00  1.60000000E+01  1.00800000E+00  1.00800000E+00  1.60000000E+01
  1.00800000E+00  1.00800000E+00  1.60000000E+01  1.00800000E+00  1.00800000E+00
  1.60000000E+01  1.00800000E+00  1.00800000E+00  1.60000000E+01  1.00800000E+00
  1.00800000E+00  1.60000000E+01  1.00800000E+00  1.00800000E+00  1.60000000E+01
  1.00800000E+00  1.00800000E+00  1.60000000E+01  1.00800000E+00  1.00800000E+00
  1.60000000E+01  1.00800000E+00  1.00800000E+00  1.60000000E+01  1.00800000E+00
  1.00800000E+00  1.60000000E+01  1.00800000E+00  1.00800000E+00  1.60000000E+01
  1.00800000E+00  1.00800000E+00  1.60000000E+01  1.00800000E+00  1.00800000E+00
  1.60000000E+01  1.00800000E+00  1.00800000E+00  1.60000000E+01  1.00800000E+00
  1.00800000E+00  1.60000000E+01  1.00800000E+00  1.00800000E+00  1.60000000E+01
  1.00800000E+00  1.00800000E+00  1.60000000E+01  1.00800000E+00  1.00800000E+00
  1.60000000E+01  1.00800000E+00  1.00800000E+00  1.60000000E+01  1.00800000E+00
  1.00800000E+00  1.60000000E+01  1.00800000E+00  1.00800000E+00  1.60000000E+01
  1.00800000E+00  1.00800000E+00  1.60000000E+01  1.00800000E+00  1.00800000E+00
  1.60000000E+01  1.00800000E+00  1.00800000E+00  1.60000000E+01  1.00800000E+00
  1.00800000E+00  1.60000000E+01  1.00800000E+00  1.00800000E+00  1.60000000E+01
  1.00800000E+00  1.00800000E+00  1.60000000E+01  1.00800000E+00  1.00800000E+00
  1.60000000E+01  1.00800000E+00  1.00800000E+00  1.60000000E+01  1.00800000E+00
  1.00800000E+00  1.60000000E+01  1.00800000E+00  1.00800000E+00  1.60000000E+01
  1.00800000E+00  1.00800000E+00  1.60000000E+01  1.00800000E+00  1.00800000E+00
  1.60000000E+01  1.00800000E+00  1.00800000E+00  1.60000000E+01  1.00800000E+00
  1.00800000E+00  1.60000000E+01  1.00800000E+00  1.00800000E+00  1.60000000E+01
  1.00800000E+00  1.00800000E+00  1.60000000E+01  1.00800000E+00  1.00800000E+00
  1.60000000E+01  1.00800000E+00  1.00800000E+00  1.60000000E+01  1.00800000E+00
  1.00800000E+00  1.60000000E+01  1.00800000E+00  1.00800000E+00  1.60000000E+01
  1.00800000E+00  1.00800000E+00  1.60000000E+01  1.00800000E+00  1.00800000E+00
  1.60000000E+01  1.00800000E+00  1.00800000E+00  1.60000000E+01  1.00800000E+00
  1.00800000E+00  1.60000000E+01  1.00800000E+00  1.00800000E+00  1.60000000E+01
  1.00800000E+00  1.00800000E+00  1.60000000E+01  1.00800000E+00  1.00800000E+00
  1.60000000E+01  1.00800000E+00  1.00800000E+00  1.60000000E+01  1.00800000E+00
  1.00800000E+00  1.60000000E+01  1.00800000E+00  1.00800000E+00  1.60000000E+01
  1.00800000E+00  1.00800000E+00  1.60000000E+01  1.00800000E+00  1.00800000E+00
  1.60000000E+01  1.00800000E+00  1.00800000E+00  1.60000000E+01  1.00800000E+00
  1.00800000E+00  1.60000000E+01  1.00800000E+00  1.00800000E+00  1.60000000E+01
  1.00800000E+00  1.00800000E+00  1.60000000E+01  1.00800000E+00  1.00800000E+00
  1.60000000E+01  1.00800000E+00  1.00800000E+00  1.60000000E+01  1.00800000E+00
  1.00800000E+00  1.60000000E+01  1.00800000E+00  1.00800000E+00  1.60000000E+01
  1.00800000E+00  1.00800000E+00  1.60000000E+01  1.00800000E+00  1.00800000E+00
  1.60000000E+01  1.00800000E+00  1.00800000E+00  1.60000000E+01  1.00800000E+00
  1.00800000E+00  1.60000000E+01  1.00800000E+00  1.00800000E+00  1.60000000E+01
  1.00800000E+00  1.00800000E+00  1.60000000E+01  1.00800000E+00  1.00800000E+00
  1.60000000E+01  1.00800000E+00  1.00800000E+00  1.60000000E+01  1.00800000E+00
  1.00800000E+00  1.60000000E+01  1.00800000E+00  1.00800000E+00  1.60000000E+01
  1.00800000E+00  1.00800000E+00  1.60000000E+01  1.00800000E+00  1.00800000E+00
  1.60000000E+01  1.00800000E+00  1.00800000E+00  1.60000000E+01  1.00800000E+00
  1.00800000E+00  1.60000000E+01  1.00800000E+00  1.00800000E+00  1.60000000E+01
  1.00800000E+00  1.00800000E+00  1.60000000E+01  1.00800000E+00  1.00800000E+00
  1.60000000E+01  1.00800000E+00  1.00800000E+00  1.60000000E+01  1.00800000E+00
  1.00800000E+00  1.60000000E+01  1.00800000E+00  1.00800000E+00  1.60000000E+01
  1.00800000E+00  1.00800000E+00  1.60000000E+01  1.00800000E+00  1.00800000E+00
  1.60000000E+01  1.00800000E+00  1.00800000E+00  1.60000000E+01  1.00800000E+00
  1.00800000E+00  1.60000000E+01  1.00800000E+00  1.00800000E+00  1.60000000E+01
  1.00800000E+00  1.00800000E+00  1.60000000E+01  1.00800000E+00  1.00800000E+00
  1.60000000E+01  1.00800000E+00  1.00800000E+00  1.60000000E+01  1.00800000E+00
  1.00800000E+00  1.60000000E+01  1.00800000E+00  1.00800000E+00  1.60000000E+01
  1.00800000E+00  1.00800000E+00  1.60000000E+01  1.00800000E+00  1.00800000E+00
  1.60000000E+01  1.00800000E+00  1.00800000E+00  1.60000000E+01  1.00800000E+00
  1.00800000E+00  1.60000000E+01  1.00800000E+00  1.00800000E+00  1.60000000E+01
  1.00800000E+00  1.00800000E+00  1.60000000E+01  1.00800000E+00  1.00800000E+00
  1.60000000E+01  1.00800000E+00  1.00800000E+00  1.60000000E+01  1.00800000E+00
  1.00800000E+00  1.60000000E+01  1.00800000E+00  1.00800000E+00  1.60000000E+01
  1.00800000E+00  1.00800000E+00  1.60000000E+01  1.00800000E+00  1.00800000E+00
  1.60000000E+01  1.00800000E+00  1.00800000E+00  1.60000000E+01  1.00800000E+00
  1.00800000E+00  1.60000000E+01  1.00800000E+00  1.00800000E+00  1.60000000E+01
  1.00800000E+00  1.00800000E+00  1.60000000E+01  1.00800000E+00  1.00800000E+00
  1.60000000E+01  1.00800000E+00  1.00800000E+00  1.60000000E+01  1.00800000E+00
  1.00800000E+00  1.60000000E+01  1.00800000E+00  1.00800000E+00  1.60000000E+01
  1.00800000E+00  1.00800000E+00  1.60000000E+01  1.00800000E+00  1.00800000E+00
  1.60000000E+01  1.00800000E+00  1.00800000E+00  1.60000000E+01  1.00800000E+00
  1.00800000E+00  1.60000000E+01  1.00800000E+00  1.00800000E+00  1.60000000E+01
  1.00800000E+00  1.00800000E+00  1.60000000E+01  1.00800000E+00  1.00800000E+00
  1.60000000E+01  1.00800000E+00  1.00800000E+00  1.60000000E+01  1.00800000E+00
  1.00800000E+00  1.60000000E+01  1.00800000E+00  1.00800000E+00  1.60000000E+01
  1.00800000E+00  1.00800000E+00  1.60000000E+01  1.00800000E+00  1.00800000E+00
  1.60000000E+01  1.00800000E+00  1.00800000E+00  1.60000000E+01  1.00800000E+00
  1.00800000E+00  1.60000000E+01  1.00800000E+00  1.00800000E+00  1.60000000E+01
  1.00800000E+00  1.00800000E+00  1.60000000E+01  1.00800000E+00  1.00800000E+00
  1.60000000E+01  1.00800000E+00  1.00800000E+00  1.60000000E+01  1.00800000E+00
  1.00800000E+00  1.60000000E+01  1.00800000E+00  1.00800000E+00  1.60000000E+01
  1.00800000E+00  1.00800000E+00  1.60000000E+01  1.00800000E+00  1.00800000E+00
  1.60000000E+01  1.00800000E+00  1.00800000E+00  1.60000000E+01  1.00800000E+00
  1.00800000E+00  1.60000000E+01  1.00800000E+00  1.00800000E+00  1.60000000E+01
  1.00800000E+00  1.00800000E+00  1.60000000E+01  1.00800000E+00  1.00800000E+00
  1.60000000E+01  1.00800000E+00  1.00800000E+00  1.60000000E+01  1.00800000E+00
  1.00800000E+00  1.60000000E+01  1.00800000E+00  1.00800000E+00  1.60000000E+01
  1.00800000E+00  1.00800000E+00  1.60000000E+01  1.00800000E+00  1.00800000E+00
  1.60000000E+01  1.00800000E+00  1.00800000E+00  1.60000000E+01  1.00800000E+00
  1.00800000E+00  1.60000000E+01  1.00800000E+00  1.00800000E+00  1.60000000E+01
  1.00800000E+00  1.00800000E+00  1.60000000E+01  1.00800000E+00  1.00800000E+00
  1.60000000E+01  1.00800000E+00  1.00800000E+00  1.60000000E+01  1.00800000E+00
  1.00800000E+00  1.60000000E+01  1.00800000E+00  1.00800000E+00  1.60000000E+01
  1.00800000E+00  1.00800000E+00  1.60000000E+01  1.00800000E+00  1.00800000E+00
  1.60000000E+01  1.00800000E+00  1.00800000E+00  1.60000000E+01  1.00800000E+00
  1.00800000E+00  1.60000000E+01  1.00800000E+00  1.00800000E+00  1.60000000E+01
  1.00800000E+00  1.00800000E+00  1.60000000E+01  1.00800000E+00  1.00800000E+00
  1.60000000E+01  1.00800000E+00  1.00800000E+00  1.60000000E+01  1.00800000E+00
  1.00800000E+00  1.60000000E+01  1.00800000E+00  1.00800000E+00  1.60000000E+01
  1.00800000E+00  1.00800000E+00  1.60000000E+01  1.00800000E+00  1.00800000E+00
  1.60000000E+01  1.00800000E+00  1.00800000E+00  1.60000000E+01  1.00800000E+00
  1.00800000E+00  1.60000000E+01  1.00800000E+00  1.00800000E+00  1.60000000E+01
  1.00800000E+00  1.00800000E+00  1.60000000E+01  1.00800000E+00  1.00800000E+00
  1.60000000E+01  1.00800000E+00  1.00800000E+00  1.60000000E+01  1.00800000E+00
  1.00800000E+00  1.60000000E+01  1.00800000E+00  1.00800000E+00  1.60000000E+01
  1.00800000E+00  1.00800000E+00  1.60000000E+01  1.00800000E+00  1.00800000E+00
  1.60000000E+01  1.00800000E+00  1.00800000E+00  1.60000000E+01  1.00800000E+00
  1.00800000E+00  1.60000000E+01  1.00800000E+00  1.00800000E+00  1.60000000E+01
  1.00800000E+00  1.00800000E+00  1.60000000E+01  1.00800000E+00  1.00800000E+00
  1.60000000E+01  1.00800000E+00  1.00800000E+00  1.60000000E+01  1.00800000E+00
  1.00800000E+00  1.60000000E+01  1.00800000E+00  1.00800000E+00  1.60000000E+01
  1.00800000E+00  1.00800000E+00  1.60000000E+01  1.00800000E+00  1.00800000E+00
  1.60000000E+01  1.00800000E+00  1.00800000E+00  1.60000000E+01  1.00800000E+00
  1.00800000E+00  1.60000000E+01  1.00800000E+00  1.00800000E+00  1.60000000E+01
  1.00800000E+00  1.00800000E+00  1.60000000E+01  1.00800000E+00  1.00800000E+00
  1.60000000E+01  1.00800000E+00  1.00800000E+00  1.60000000E+01  1.00800000E+00
  1.00800000E+00  1.60000000E+01  1.00800000E+00  1.00800000E+00  1.60000000E+01
  1.00800000E+00  1.00800000E+00  1.60000000E+01  1.00800000E+00  1.00800000E+00
  1.60000000E+01  1.00800000E+00  1.00800000E+00  1.60000000E+01  1.00800000E+00
  1.00800000E+00  1.60000000E+01  1.00800000E+00  1.00800000E+00  1.60000000E+01
  1.00800000E+00  1.00800000E+00  1.60000000E+01  1.00800000E+00  1.00800000E+00
  1.60000000E+01  1.00800000E+00  1.00800000E+00  1.60000000E+01  1.00800000E+00
  1.00800000E+00  1.60000000E+01  1.00800000E+00  1.00800000E+00  1.60000000E+01
  1.00800000E+00  1.00800000E+00  1.60000000E+01  1.00800000E+00  1.00800000E+00
  1.60000000E+01  1.00800000E+00  1.00800000E+00  1.60000000E+01  1.00800000E+00
  1.00800000E+00  1.60000000E+01  1.00800000E+00  1.00800000E+00  1.60000000E+01
  1.00800000E+00  1.00800000E+00  1.60000000E+01  1.00800000E+00  1.00800000E+00
  1.60000000E+01  1.00800000E+00  1.00800000E+00  1.60000000E+01  1.00800000E+00
  1.00800000E+00  1.60000000E+01  1.00800000E+00  1.00800000E+00  1.60000000E+01
  1.00800000E+00  1.00800000E+00  1.60000000E+01  1.00800000E+00  1.00800000E+00
  1.60000000E+01  1.00800000E+00  1.00800000E+00  1.60000000E+01  1.00800000E+00
  1.00800000E+00  1.60000000E+01  1.00800000E+00  1.00800000E+00  1.60000000E+01
  1.00800000E+00  1.00800000E+00  1.60000000E+01  1.00800000E+00  1.00800000E+00
  1.60000000E+01  1.00800000E+00  1.00800000E+00  1.60000000E+01  1.00800000E+00
  1.00800000E+00  1.60000000E+01  1.00800000E+00  1.00800000E+00  1.60000000E+01
  1.00800000E+00  1.00800000E+00  1.60000000E+01  1.00800000E+00  1.00800000E+00
  1.60000000E+01  1.00800000E+00  1.00800000E+00  1.60000000E+01  1.00800000E+00
  1.00800000E+00  1.60000000E+01  1.00800000E+00  1.00800000E+00  1.60000000E+01
  1.00800000E+00  1.00800000E+00  1.60000000E+01  1.00800000E+00  1.00800000E+00
  1.60000000E+01  1.00800000E+00  1.00800000E+00  1.60000000E+01  1.00800000E+00
  1.00800000E+00  1.60000000E+01  1.00800000E+00  1.00800000E+00  1.60000000E+01
  1.00800000E+00  1.00800000E+00  1.60000000E+01  1.00800000E+00  1.00800000E+00
  1.60000000E+01  1.00800000E+00  1.00800000E+00  1.60000000E+01  1.00800000E+00
  1.00800000E+00  1.60000000E+01  1.00800000E+00  1.00800000E+00  1.60000000E+01
  1.00800000E+00  1.00800000E+00  1.60000000E+01  1.00800000E+00  1.00800000E+00
  1.60000000E+01  1.00800000E+00  1.00800000E+00  1.60000000E+01  1.00800000E+00
  1.00800000E+00  1.60000000E+01  1.00800000E+00  1.00800000E+00  1.60000000E+01
  1.00800000E+00  1.00800000E+00  1.60000000E+01  1.00800000E+00  1.00800000E+00
  1.60000000E+01  1.00800000E+00  1.00800000E+00  1.60000000E+01  1.00800000E+00
  1.00800000E+00  1.60000000E+01  1.00800000E+00  1.00800000E+00  1.60000000E+01
  1.00800000E+00  1.00800000E+00  1.60000000E+01  1.00800000E+00  1.00800000E+00
  1.60000000E+01  1.00800000E+00  1.00800000E+00  1.60000000E+01  1.00800000E+00
  1.00800000E+00  1.60000000E+01  1.00800000E+00  1.00800000E+00  1.60000000E+01
  1.00800000E+00  1.00800000E+00  1.60000000E+01  1.00800000E+00  1.00800000E+00
  1.60000000E+01  1.00800000E+00  1.00800000E+00  1.60000000E+01  1.00800000E+00
  1.00800000E+00  1.60000000E+01  1.00800000E+00  1.00800000E+00  1.60000000E+01
  1.00800000E+00  1.00800000E+00  1.60000000E+01  1.00800000E+00  1.00800000E+00
  1.60000000E+01  1.00800000E+00  1.00800000E+00  1.60000000E+01  1.00800000E+00
  1.00800000E+00  1.60000000E+01  1.00800000E+00  1.00800000E+00  1.60000000E+01
  1.00800000E+00  1.00800000E+00  1.60000000E+01  1.00800000E+00  1.00800000E+00
  1.60000000E+01  1.00800000E+00  1.00800000E+00  1.60000000E+01  1.00800000E+00
  1.00800000E+00  1.60000000E+01  1.00800000E+00  1.00800000E+00  1.60000000E+01
  1.00800000E+00  1.00800000E+00  1.60000000E+01  1.00800000E+00  1.00800000E+00
  1.60000000E+01  1.00800000E+00  1.00800000E+00  1.60000000E+01  1.00800000E+00
  1.00800000E+00  1.60000000E+01  1.00800000E+00  1.00800000E+00  1.60000000E+01
  1.00800000E+00  1.00800000E+00  1.60000000E+01  1.00800000E+00  1.00800000E+00
  1.60000000E+01  1.00800000E+00  1.00800000E+00  1.60000000E+01  1.00800000E+00
  1.00800000E+00  1.60000000E+01  1.00800000E+00  1.00800000E+00  1.60000000E+01
  1.00800000E+00  1.00800000E+00  1.60000000E+01  1.00800000E+00  1.00800000E+00
  1.60000000E+01  1.00800000E+00  1.00800000E+00  1.60000000E+01  1.00800000E+00
  1.00800000E+00  1.60000000E+01  1.00800000E+00  1.00800000E+00  1.60000000E+01
  1.00800000E+00  1.00800000E+00  1.60000000E+01  1.00800000E+00  1.00800000E+00
  1.60000000E+01  1.00800000E+00  1.00800000E+00  1.60000000E+01  1.00800000E+00
  1.00800000E+00  1.60000000E+01  1.00800000E+00  1.00800000E+00  1.60000000E+01
  1.00800000E+00  1.00800000E+00  1.60000000E+01  1.00800000E+00  1.00800000E+00
  1.60000000E+01  1.00800000E+00  1.00800000E+00  1.60000000E+01  1.00800000E+00
  1.00800000E+00  1.60000000E+01  1.00800000E+00  1.00800000E+00  1.60000000E+01
  1.00800000E+00  1.00800000E+00  1.60000000E+01  1.00800000E+00  1.00800000E+00
  1.60000000E+01  1.00800000E+00  1.00800000E+00  1.60000000E+01  1.00800000E+00
  1.00800000E+00  1.60000000E+01  1.00800000E+00  1.00800000E+00  1.60000000E+01
  1.00800000E+00  1.00800000E+00  1.60000000E+01  1.00800000E+00  1.00800000E+00
  1.60000000E+01  1.00800000E+00  1.00800000E+00  1.60000000E+01  1.00800000E+00
  1.00800000E+00  1.60000000E+01  1.00800000E+00  1.00800000E+00  1.60000000E+01
  1.00800000E+00  1.00800000E+00  1.60000000E+01  1.00800000E+00  1.00800000E+00
  1.60000000E+01  1.00800000E+00  1.00800000E+00  1.60000000E+01  1.00800000E+00
  1.00800000E+00  1.60000000E+01  1.00800000E+00  1.00800000E+00  1.60000000E+01
  1.00800000E+00  1.00800000E+00  1.60000000E+01  1.00800000E+00  1.00800000E+00
  1.60000000E+01  1.00800000E+00  1.00800000E+00  1.60000000E+01  1.00800000E+00
  1.00800000E+00  1.60000000E+01  1.00800000E+00  1.00800000E+00  1.60000000E+01
  1.00800000E+00  1.00800000E+00  1.60000000E+01  1.00800000E+00  1.00800000E+00
  1.60000000E+01  1.00800000E+00  1.00800000E+00  1.60000000E+01  1.00800000E+00
  1.00800000E+00  1.60000000E+01  1.00800000E+00  1.00800000E+00  1.60000000E+01
  1.00800000E+00  1.00800000E+00  1.60000000E+01  1.00800000E+00  1.00800000E+00
  1.60000000E+01  1.00800000E+00  1.00800000E+00  1.60000000E+01  1.00800000E+00
  1.00800000E+00  1.60000000E+01  1.00800000E+00  1.00800000E+00  1.60000000E+01
  1.00800000E+00  1.00800000E+00  1.60000000E+01  1.00800000E+00  1.00800000E+00
  1.60000000E+01  1.00800000E+00  1.00800000E+00  1.60000000E+01  1.00800000E+00
  1.00800000E+00  1.60000000E+01  1.00800000E+00  1.00800000E+00  1.60000000E+01
  1.00800000E+00  1.00800000E+00  1.60000000E+01  1.00800000E+00  1.00800000E+00
  1.60000000E+01  1.00800000E+00  1.00800000E+00  1.60000000E+01  1.00800000E+00
  1.00800000E+00  1.60000000E+01  1.00800000E+00  1.00800000E+00  1.60000000E+01
  1.00800000E+00  1.00800000E+00  1.60000000E+01  1.00800000E+00  1.00800000E+00
  1.60000000E+01  1.00800000E+00  1.00800000E+00  1.60000000E+01  1.00800000E+00
  1.00800000E+00  1.60000000E+01  1.00800000E+00  1.00800000E+00  1.60000000E+01
  1.00800000E+00  1.00800000E+00  1.60000000E+01  1.00800000E+00  1.00800000E+00
  1.60000000E+01  1.00800000E+00  1.00800000E+00  1.60000000E+01  1.00800000E+00
  1.00800000E+00  1.60000000E+01  1.00800000E+00  1.00800000E+00  1.60000000E+01
  1.00800000E+00  1.00800000E+00  1.60000000E+01  1.00800000E+00  1.00800000E+00
  1.60000000E+01  1.00800000E+00  1.00800000E+00  1.60000000E+01  1.00800000E+00
  1.00800000E+00  1.60000000E+01  1.00800000E+00  1.00800000E+00  1.60000000E+01
  1.00800000E+00  1.00800000E+00  1.60000000E+01  1.00800000E+00  1.00800000E+00
  1.60000000E+01  1.00800000E+00  1.00800000E+00  1.60000000E+01  1.00800000E+00
  1.00800000E+00  1.60000000E+01  1.00800000E+00  1.00800000E+00  1.60000000E+01
  1.00800000E+00  1.00800000E+00  1.60000000E+01  1.00800000E+00  1.00800000E+00
  1.60000000E+01  1.00800000E+00  1.00800000E+00  1.60000000E+01  1.00800000E+00
  1.00800000E+00  1.60000000E+01  1.00800000E+00  1.00800000E+00  1.60000000E+01
  1.00800000E+00  1.00800000E+00  1.60000000E+01  1.00800000E+00  1.00800000E+00
  1.60000000E+01  1.00800000E+00  1.00800000E+00  1.60000000E+01  1.00800000E+00
  1.00800000E+00  1.60000000E+01  1.00800000E+00  1.00800000E+00  1.60000000E+01
  1.00800000E+00  1.00800000E+00  1.60000000E+01  1.00800000E+00  1.00800000E+00
  1.60000000E+01  1.00800000E+00  1.00800000E+00  1.60000000E+01  1.00800000E+00
  1.00800000E+00  1.60000000E+01  1.00800000E+00  1.00800000E+00  1.60000000E+01
  1.00800000E+00  1.00800000E+00  1.60000000E+01  1.00800000E+00  1.00800000E+00
  1.60000000E+01  1.00800000E+00  1.00800000E+00  1.60000000E+01  1.00800000E+00
  1.00800000E+00  1.60000000E+01  1.00800000E+00  1.00800000E+00  1.60000000E+01
  1.00800000E+00  1.00800000E+00  1.60000000E+01  1.00800000E+00  1.00800000E+00
  1.60000000E+01  1.00800000E+00  1.00800000E+00  1.60000000E+01  1.00800000E+00
  1.00800000E+00  1.60000000E+01  1.00800000E+00  1.00800000E+00  1.60000000E+01
  1.00800000E+00  1.00800000E+00  1.60000000E+01  1.00800000E+00  1.00800000E+00
  1.60000000E+01  1.00800000E+00  1.00800000E+00  1.60000000E+01  1.00800000E+00
  1.00800000E+00  1.60000000E+01  1.00800000E+00  1.00800000E+00  1.60000000E+01
  1.00800000E+00  1.00800000E+00  1.60000000E+01  1.00800000E+00  1.00800000E+00
  1.60000000E+01  1.00800000E+00  1.00800000E+00  1.60000000E+01  1.00800000E+00
  1.00800000E+00  1.60000000E+01  1.00800000E+00  1.00800000E+00  1.60000000E+01
  1.00800000E+00  1.00800000E+00  1.60000000E+01  1.00800000E+00  1.00800000E+00
  1.60000000E+01  1.00800000E+00  1.00800000E+00  1.60000000E+01  1.00800000E+00
  1.00800000E+00  1.60000000E+01  1.00800000E+00  1.00800000E+00  1.60000000E+01
  1.00800000E+00  1.00800000E+00
%FLAG ATOM_TYPE_INDEX                                                           
%FORMAT(10I8)                                                                   
       1       2       3       2       1       3       2       1       3       2
       3       2       3       2       3       2       4       2       4       2
       4       5       5       5       5       5       5       5       5       5
       5       5       5       5       5       5       5       5       5       6
       7       8       9       9       8       9       9       8       9       9
       8       9       9       8       9       9       8       9       9       8
       9       9       8       9       9       8       9       9       8       9
       9       8       9       9       8       9       9       8       9       9
       8       9       9       8       9       9       8       9       9       8
       9       9       8       9       9       8       9       9       8       9
       9       8       9       9       8       9       9       8       9       9
       8       9       9       8       9       9       8       9       9       8
       9       9       8       9       9       8       9       9       8       9
       9       8       9       9       8       9       9       8       9       9
       8       9       9       8       9       9       8       9       9       8
       9       9       8       9       9       8       9       9       8       9
       9       8       9       9       8       9       9       8       9       9
       8       9       9       8       9       9       8       9       9       8
       9       9       8       9       9       8       9       9       8       9
       9       8       9       9       8       9       9       8       9       9
       8       9       9       8       9       9       8       9       9       8
       9       9       8       9       9       8       9       9       8       9
       9       8       9       9       8       9       9       8       9       9
       8       9       9       8       9       9       8       9       9       8
       9       9       8       9       9       8       9       9       8       9
       9       8       9       9       8       9       9       8       9       9
       8       9       9       8       9       9       8       9       9       8
       9       9       8       9       9       8       9       9       8       9
       9       8       9       9       8       9       9       8       9       9
       8       9       9       8       9       9       8       9       9       8
       9       9       8       9       9       8       9       9       8       9
       9       8       9       9       8       9       9       8       9       9
       8       9       9       8       9       9       8       9       9       8
       9       9       8       9       9       8       9       9       8       9
       9       8       9       9       8       9       9       8       9       9
       8       9       9       8       9       9       8       9       9       8
       9       9       8       9       9       8       9       9       8       9
       9       8       9       9       8       9       9       8       9       9
       8       9       9       8       9       9       8       9       9       8
       9       9       8       9       9       8       9       9       8       9
       9       8       9       9       8       9       9       8       9       9
       8       9       9       8       9       9       8       9       9       8
       9       9       8       9       9       8       9       9       8       9
       9       8       9       9       8       9       9       8       9       9
       8       9       9       8       9       9       8       9       9       8
       9       9       8       9       9       8       9       9       8       9
       9       8       9       9       8       9       9       8       9       9
       8       9       9       8       9       9       8       9       9       8
       9       9       8       9       9       8       9       9       8       9
       9       8       9       9       8       9       9       8       9       9
       8       9       9       8       9       9       8       9       9       8
       9       9       8       9       9       8       9       9       8       9
       9       8       9       9       8       9       9       8       9       9
       8       9       9       8       9       9       8       9       9       8
       9       9       8       9       9       8       9       9       8       9
       9       8       9       9       8       9       9       8       9       9
       8       9       9       8       9       9       8       9       9       8
       9       9       8       9       9       8       9       9       8       9
       9       8       9       9       8       9       9       8       9       9
       8       9       9       8       9       9       8       9       9       8
       9       9       8       9       9       8       9       9       8       9
       9       8       9       9       8       9       9       8       9       9
       8       9       9       8       9       9       8       9       9       8
       9       9       8       9       9       8       9       9       8       9
       9       8       9       9       8       9       9       8       9       9
       8       9       9       8       9       9       8       9       9       8
       9       9       8       9       9       8       9       9       8       9
       9       8       9       9       8       9       9       8       9       9
       8       9       9       8       9       9       8       9       9       8
       9       9       8       9       9       8       9       9       8       9
       9       8       9       9       8       9       9       8       9       9
       8       9       9       8       9       9       8       9       9       8
       9       9       8       9       9       8       9       9       8       9
       9       8       9       9       8       9       9       8       9       9
       8       9       9       8       9       9       8       9       9       8
       9       9       8       9       9       8       9       9       8       9
       9       8       9       9       8       9       9       8       9       9
       8       9       9       8       9       9       8       9       9       8
       9       9       8       9       9       8       9       9       8       9
       9       8       9       9       8       9       9       8       9       9
       8       9       9       8       9       9       8       9       9       8
       9       9       8       9       9       8       9       9       8       9
       9       8       9       9       8       9       9       8       9       9
       8       9       9       8       9       9       8       9       9       8
       9       9       8       9       9       8       9       9       8       9
       9       8       9       9       8       9       9       8       9       9
       8       9       9       8       9       9       8       9       9       8
       9       9       8       9       9       8       9       9       8       9
       9       8       9       9       8       9       9       8       9       9
       8       9       9       8       9       9       8       9       9       8
       9       9       8       9       9       8       9       9       8       9
       9       8       9       9       8       9       9       8       9       9
       8       9       9       8       9       9       8       9       9       8
       9       9       8       9       9       8       9       9       8       9
       9       8       9       9       8       9       9       8       9       9
       8       9       9       8       9       9       8       9       9       8
       9       9       8       9       9       8       9       9       8       9
       9       8       9       9       8       9       9       8       9       9
       8       9       9       8       9       9       8       9       9       8
       9       9       8       9       9       8       9       9       8       9
       9       8       9       9       8       9       9       8       9       9
       8       9       9       8       9       9       8       9       9       8
       9       9       8       9       9       8       9       9       8       9
       9       8       9       9       8       9       9       8       9       9
       8       9       9       8       9       9       8       9       9       8
       9       9       8       9       9       8       9       9       8       9
       9       8       9       9       8       9       9       8       9       9
       8       9       9       8       9       9       8       9       9       8
       9       9       8       9       9       8       9       9       8       9
       9       8       9       9       8       9       9       8       9       9
       8       9       9       8       9       9       8       9       9       8
       9       9       8       9       9       8       9       9       8       9
       9       8       9       9       8       9       9       8       9       9
       8       9       9       8       9       9       8       9       9       8
       9       9       8       9       9       8       9       9       8       9
       9       8       9       9       8       9       9       8       9       9
       8       9       9       8       9       9       8       9       9       8
       9       9       8       9       9       8       9       9       8       9
       9       8       9       9       8       9       9       8       9       9
       8       9       9       8       9       9       8       9       9       8
       9       9       8       9       9       8       9       9       8       9
       9       8       9       9       8       9       9       8       9       9
       8       9       9       8       9       9       8       9       9       8
       9       9       8       9       9       8       9       9       8       9
       9       8       9       9       8       9       9       8       9       9
       8       9       9       8       9       9       8       9       9       8
       9       9       8       9       9       8       9       9       8       9
       9       8       9       9       8       9       9       8       9       9
       8       9       9       8       9       9       8       9       9       8
       9       9       8       9       9       8       9       9       8       9
       9       8       9       9       8       9       9       8       9       9
       8       9       9       8       9       9       8       9       9       8
       9       9       8       9       9       8       9       9       8       9
       9       8       9       9       8       9       9       8       9       9
       8       9       9       8       9       9       8       9       9       8
       9       9       8       9       9       8       9       9       8       9
       9       8       9       9       8       9       9       8       9       9
       8       9       9       8       9       9       8       9       9       8
       9       9       8       9       9       8       9       9       8       9
       9       8       9       9       8       9       9       8       9       9
       8       9       9       8       9       9       8       9       9       8
       9       9       8       9       9       8       9       9       8       9
       9       8       9       9       8       9       9       8       9       9
       8       9       9       8       9       9       8       9       9       8
       9       9       8       9       9       8       9       9       8       9
       9       8       9       9       8       9       9       8       9       9
       8       9       9       8       9       9       8       9       9       8
       9       9       8       9       9       8       9       9       8       9
       9       8       9       9       8       9       9       8       9       9
       8       9       9       8       9       9       8       9       9       8
       9       9       8       9       9       8       9       9       8       9
       9       8       9       9       8       9       9       8       9       9
       8       9       9       8       9       9       8       9       9       8
       9       9       8       9       9       8       9       9       8       9
       9       8       9       9       8       9       9       8       9       9
       8       9       9       8       9       9       8       9       9       8
       9       9       8       9       9       8       9       9       8       9
       9       8       9       9       8       9       9       8       9       9
       8       9       9       8       9       9       8       9       9       8
       9       9       8       9       9       8       9       9       8       9
       9       8       9       9       8       9       9       8       9       9
       8       9       9       8       9       9       8       9       9       8
       9       9       8       9       9       8       9       9       8       9
       9       8       9       9       8       9       9       8       9       9
       8       9       9       8       9       9       8       9       9       8
       9       9       8       9       9       8       9       9       8       9
       9       8       9       9       8       9       9       8       9       9
       8       9       9       8       9       9       8       9       9       8
       9       9       8       9       9       8       9       9       8       9
       9       8       9       9       8       9       9       8       9       9
       8       9       9       8       9       9       8       9       9       8
       9       9       8       9       9       8       9       9       8       9
       9       8       9       9       8       9       9       8       9       9
       8       9       9       8       9       9       8       9       9       8
       9       9       8       9       9       8       9       9       8       9
       9       8       9       9       8       9       9       8       9       9
       8       9       9       8       9       9       8       9       9       8
       9       9       8       9       9       8       9       9       8       9
       9       8       9       9       8       9       9       8       9       9
       8       9       9       8       9       9       8       9       9       8
       9       9       8       9       9       8       9       9       8       9
       9       8       9       9       8       9       9       8       9       9
       8       9       9       8       9       9       8       9       9       8
       9       9       8       9       9       8       9       9       8       9
       9       8       9       9       8       9       9       8       9       9
       8       9       9       8       9       9       8       9       9       8
       9       9       8       9       9       8       9       9       8       9
       9       8       9       9       8       9       9       8       9       9
       8       9       9       8       9       9       8       9       9       8
       9       9       8       9       9       8       9       9       8       9
       9       8       9       9       8       9       9       8       9       9
       8       9       9       8       9       9       8       9       9       8
       9       9       8       9       9       8       9       9       8       9
       9       8       9       9       8       9       9       8       9       9
       8       9       9       8       9       9       8       9       9       8
       9       9       8       9       9       8       9       9       8       9
       9       8       9       9       8       9       9       8       9       9
       8       9       9       8       9       9       8       9       9       8
       9       9       8       9       9       8       9       9       8       9
       9       8       9       9       8       9       9       8       9       9
       8       9       9       8       9       9       8       9       9       8
       9       9       8       9       9       8       9       9       8       9
       9       8       9       9       8       9       9       8       9       9
       8       9       9       8       9       9       8       9       9       8
       9       9       8       9       9       8       9       9       8       9
       9       8       9       9       8       9       9       8       9       9
       8       9       9       8       9       9       8       9       9       8
       9       9       8       9       9       8       9       9       8       9
       9       8       9       9       8       9       9       8       9       9
       8       9       9       8       9       9       8       9       9       8
       9       9       8       9       9       8       9       9       8       9
       9       8       9       9       8       9       9       8       9       9
       8       9       9       8       9       9       8       9       9       8
       9       9       8       9       9       8       9       9       8       9
       9       8       9       9       8       9       9       8       9       9
       8       9       9       8       9       9       8       9       9       8
       9       9       8       9       9       8       9       9       8       9
       9       8       9       9       8       9       9       8       9       9
       8       9       9       8       9       9       8       9       9       8
       9       9       8       9       9       8       9       9       8       9
       9       8       9       9       8       9       9       8       9       9
       8       9       9       8       9       9       8       9       9       8
       9       9       8       9       9       8       9       9       8       9
       9       8       9       9       8       9       9       8       9       9
       8       9       9       8       9       9       8       9       9       8
       9       9       8       9       9       8       9       9       8       9
       9       8       9       9       8       9       9       8       9       9
       8       9       9       8       9       9       8       9       9       8
       9       9       8       9       9       8       9       9       8       9
       9       8       9       9       8       9       9       8       9       9
       8       9       9       8       9       9       8       9       9       8
       9       9       8       9       9       8       9       9       8       9
       9       8       9       9       8       9       9       8       9       9
       8       9       9       8       9       9       8       9       9       8
       9       9       8       9       9       8       9       9       8       9
       9       8       9       9       8       9       9       8       9       9
       8       9       9       8       9       9       8       9       9       8
       9       9       8       9       9       8       9       9       8       9
       9       8       9       9       8       9       9       8       9       9
       8       9       9       8       9       9       8       9       9       8
       9       9       8       9       9       8       9       9       8       9
       9       8       9       9       8       9       9       8       9       9
       8       9       9       8       9       9       8       9       9       8
       9       9       8       9       9       8       9       9       8       9
       9       8       9       9       8       9       9       8       9       9
       8       9       9       8       9       9       8       9       9       8
       9       9       8       9       9       8       9       9       8       9
       9       8       9       9       8       9       9       8       9       9
       8       9       9       8       9       9       8       9       9       8
       9       9       8       9       9       8       9       9       8       9
       9       8       9       9       8       9       9       8       9       9
       8       9       9       8       9       9       8       9       9       8
       9       9       8       9       9       8       9       9       8       9
       9       8       9       9       8       9       9       8       9       9
       8       9       9       8       9       9       8       9       9       8
       9       9       8       9       9       8       9       9       8       9
       9       8       9       9       8       9       9       8       9       9
       8       9       9       8       9       9       8       9       9       8
       9       9       8       9       9       8       9       9       8       9
       9       8       9       9       8       9       9       8       9       9
       8       9       9       8       9       9       8       9       9       8
       9       9       8       9       9       8       9       9       8       9
       9       8       9       9       8       9       9       8       9       9
       8       9       9       8       9       9       8       9       9       8
       9       9       8       9       9       8       9       9       8       9
       9       8       9       9       8       9       9       8       9       9
       8       9       9       8       9       9       8       9       9       8
       9       9       8       9       9       8       9       9       8       9
       9       8       9       9       8       9       9       8       9       9
       8       9       9       8       9       9       8       9       9       8
       9       9       8       9       9       8       9       9       8       9
       9       8       9       9       8       9       9       8       9       9
       8       9       9       8       9       9       8       9       9       8
       9       9       8       9       9       8       9       9       8       9
       9       8       9       9       8       9       9       8       9       9
       8       9       9       8       9       9       8       9       9       8
       9       9       8       9       9       8       9       9       8       9
       9       8       9       9       8       9       9       8       9       9
       8       9       9       8       9       9       8       9       9       8
       9       9       8       9       9       8       9       9       8       9
       9       8       9       9       8       9       9       8       9       9
       8       9       9       8       9       9       8       9       9       8
       9       9       8       9       9       8       9       9       8       9
       9       8       9       9       8       9       9       8       9       9
       8       9       9       8       9       9       8       9       9       8
       9       9       8       9       9       8       9       9       8       9
       9       8       9       9       8       9       9       8       9       9
       8       9       9       8       9       9       8       9       9       8
       9       9       8       9       9       8       9       9       8       9
       9       8       9       9       8       9       9       8       9       9
       8       9       9       8       9       9       8       9       9       8
       9       9       8       9       9       8       9       9       8       9
       9       8       9       9       8       9       9       8       9       9
       8       9       9       8       9       9       8       9       9       8
       9       9       8       9       9       8       9       9       8       9
       9       8       9       9       8       9       9       8       9       9
       8       9       9       8       9       9       8       9       9       8
       9       9       8       9       9       8       9       9       8       9
       9       8       9       9       8       9       9       8       9       9
       8       9       9       8       9       9       8       9       9       8
       9       9       8       9       9       8       9       9       8       9
       9       8       9       9       8       9       9       8       9       9
       8       9       9       8       9       9       8       9       9       8
       9       9       8       9       9       8       9       9       8       9
       9       8       9       9       8       9       9       8       9       9
       8       9       9       8       9       9       8       9       9       8
       9       9       8       9       9       8       9       9       8       9
       9       8       9       9       8       9       9       8       9       9
       8       9       9       8       9       9       8       9       9       8
       9       9       8       9       9       8       9       9       8       9
       9       8       9       9       8       9       9       8       9       9
       8       9       9       8       9       9       8       9       9       8
       9       9       8       9       9       8       9       9       8       9
       9       8       9       9       8       9       9       8       9       9
       8       9       9       8       9       9       8       9       9       8
       9       9       8       9       9       8       9       9       8       9
       9       8       9       9       8       9       9       8       9       9
       8       9       9       8       9       9       8       9       9       8
       9       9       8       9       9       8       9       9       8       9
       9       8       9       9       8       9       9       8       9       9
       8       9       9       8       9       9       8       9       9       8
       9       9       8       9       9       8       9       9       8       9
       9       8       9       9       8       9       9       8       9       9
       8       9       9       8       9       9       8       9       9       8
       9       9       8       9       9       8       9       9       8       9
       9       8       9       9       8       9       9       8       9       9
       8       9       9       8       9       9       8       9       9       8
       9       9       8       9       9       8       9       9       8       9
       9       8       9       9       8       9       9       8       9       9
       8       9       9       8       9       9       8       9       9       8
       9       9       8       9       9       8       9       9       8       9
       9       8       9       9       8       9       9       8       9       9
       8       9       9       8       9       9       8       9       9       8
       9       9       8       9       9       8       9       9       8       9
       9       8       9       9       8       9       9       8       9       9
       8       9       9       8       9       9       8       9       9       8
       9       9       8       9       9       8       9       9       8       9
       9       8       9       9       8       9       9       8       9       9
       8       9       9       8       9       9       8       9       9       8
       9       9       8       9       9       8       9       9       8       9
       9       8       9       9       8       9       9       8       9       9
       8       9       9       8       9       9       8       9       9       8
       9       9       8       9       9       8       9       9       8       9
       9       8       9       9       8       9       9       8       9       9
       8       9       9       8       9       9       8       9       9       8
       9       9       8       9       9       8       9       9       8       9
       9       8       9       9       8       9       9       8       9       9
       8       9       9       8       9       9       8       9       9       8
       9       9       8       9       9       8       9       9       8       9
       9       8       9       9       8       9       9       8       9       9
       8       9       9       8       9       9       8       9       9       8
       9       9       8       9       9       8       9       9       8       9
       9       8       9       9       8       9       9       8       9       9
       8       9       9       8       9       9       8       9       9       8
       9       9       8       9       9       8       9       9       8       9
       9       8       9       9       8       9       9       8       9       9
       8       9       9       8       9       9       8       9       9       8
       9       9       8       9       9       8       9       9       8       9
       9       8       9       9       8       9       9       8       9       9
       8       9       9       8       9       9       8       9       9       8
       9       9       8       9       9       8       9       9       8       9
       9       8       9       9       8       9       9       8       9       9
       8       9       9       8       9       9       8       9       9       8
       9       9       8       9       9       8       9       9       8       9
       9       8       9       9       8       9       9       8       9       9
       8       9       9       8       9       9       8       9       9       8
       9       9       8       9       9       8       9       9       8       9
       9       8       9       9       8       9       9       8       9       9
       8       9       9       8       9       9       8       9       9       8
       9       9       8       9       9       8       9       9       8       9
       9       8       9       9       8       9       9       8       9       9
       8       9       9       8       9       9       8       9       9       8
       9       9       8       9       9       8       9       9       8       9
       9       8       9       9       8       9       9       8       9       9
       8       9       9       8       9       9       8       9       9       8
       9       9       8       9       9       8       9       9       8       9
       9       8       9       9       8       9       9       8       9       9
       8       9       9       8       9       9       8       9       9       8
       9       9       8       9       9       8       9       9       8       9
       9       8       9       9       8       9       9       8       9       9
       8       9       9       8       9       9       8       9       9       8
       9       9       8       9       9       8       9       9       8       9
       9       8       9       9       8       9       9       8       9       9
       8       9       9       8       9       9       8       9       9       8
       9       9       8       9       9       8       9       9       8       9
       9       8       9       9       8       9       9       8       9       9
       8       9       9       8       9       9       8       9       9       8
       9       9       8       9       9       8       9       9       8       9
       9       8       9       9       8       9       9       8       9       9
       8       9       9       8       9       9       8       9       9       8
       9       9       8       9       9       8       9       9       8       9
       9       8       9       9       8       9       9       8       9       9
       8       9       9       8       9       9       8       9       9       8
       9       9       8       9       9       8       9       9       8       9
       9       8       9       9       8       9       9       8       9       9
       8       9       9       8       9       9       8       9       9       8
       9       9       8       9       9       8       9       9       8       9
       9       8       9       9       8       9       9       8       9       9
       8       9       9       8       9       9       8       9       9       8
       9       9       8       9       9       8       9       9       8       9
       9       8       9       9       8       9       9       8       9       9
       8       9       9       8       9       9       8       9       9       8
       9       9       8       9       9       8       9       9       8       9
       9       8       9       9       8       9       9       8       9       9
       8       9       9       8       9       9       8       9       9       8
       9       9       8       9       9       8       9       9       8       9
       9       8       9       9       8       9       9       8       9       9
       8       9       9       8       9       9       8       9       9       8
       9       9       8       9       9       8       9       9       8       9
       9       8       9       9       8       9       9       8       9       9
       8       9       9       8       9       9       8       9       9       8
       9       9       8       9       9       8       9       9       8       9
       9       8       9       9       8       9       9       8       9       9
       8       9       9       8       9       9       8       9       9       8
       9       9       8       9       9       8       9       9       8       9
       9       8       9       9       8       9       9       8       9       9
       8       9       9       8       9       9       8       9       9       8
       9       9       8       9       9       8       9       9       8       9
       9       8       9       9       8       9       9       8       9       9
       8       9       9       8       9       9       8       9       9       8
       9       9       8       9       9       8       9       9       8       9
       9       8       9       9       8       9       9       8       9       9
       8       9       9       8       9       9       8       9       9       8
       9       9       8       9       9       8       9       9       8       9
       9       8       9       9       8       9       9       8       9       9
       8       9       9       8       9       9       8       9       9       8
       9       9       8       9       9       8       9       9       8       9
       9       8       9       9       8       9       9       8       9       9
       8       9       9       8       9       9       8       9       9       8
       9       9       8       9       9       8       9       9       8       9
       9       8       9       9       8       9       9       8       9       9
       8       9       9       8       9       9       8       9       9       8
       9       9       8       9       9       8       9       9       8       9
       9       8       9       9       8       9       9       8       9       9
       8       9       9       8       9       9       8       9       9       8
       9       9       8       9       9       8       9       9       8       9
       9       8       9       9       8       9       9       8       9       9
       8       9       9       8       9       9       8       9       9       8
       9       9       8       9       9       8       9       9       8       9
       9       8       9       9       8       9       9       8       9       9
       8       9       9       8       9       9       8       9       9       8
       9       9       8       9       9       8       9       9       8       9
       9       8       9       9       8       9       9       8       9       9
       8       9       9       8       9       9       8       9       9       8
       9       9       8       9       9       8       9       9       8       9
       9       8       9       9       8       9       9       8       9       9
       8       9       9       8       9       9       8       9       9       8
       9       9       8       9       9       8       9       9       8       9
       9       8       9       9       8       9       9       8       9       9
       8       9       9       8       9       9       8       9       9       8
       9       9       8       9       9       8       9       9       8       9
       9       8       9       9       8       9       9       8       9       9
       8       9       9       8       9       9       8       9       9       8
       9       9       8       9       9       8       9       9       8       9
       9       8       9       9       8       9       9       8       9       9
       8       9       9       8       9       9       8       9       9       8
       9       9       8       9       9       8       9       9       8       9
       9       8       9       9       8       9       9       8       9       9
       8       9       9       8       9       9       8       9       9       8
       9       9       8       9       9       8       9       9       8       9
       9       8       9       9       8       9       9       8       9       9
       8       9       9       8       9       9       8       9       9       8
       9       9       8       9       9       8       9       9       8       9
       9       8       9       9       8       9       9       8       9       9
       8       9       9       8       9       9       8       9       9       8
       9       9       8       9       9       8       9       9       8       9
       9       8       9       9       8       9       9       8       9       9
       8       9       9       8       9       9       8       9       9       8
       9       9       8       9       9       8       9       9       8       9
       9       8       9       9       8       9       9       8       9       9
       8       9       9       8       9       9       8       9       9       8
       9       9       8       9       9       8       9       9       8       9
       9       8       9       9       8       9       9       8       9       9
       8       9       9       8       9       9       8       9       9       8
       9       9       8       9       9       8       9       9       8       9
       9       8       9       9       8       9       9       8       9       9
       8       9       9       8       9       9       8       9       9       8
       9       9       8       9       9       8       9       9       8       9
       9       8       9       9       8       9       9       8       9       9
       8       9       9       8       9       9       8       9       9       8
       9       9       8       9       9       8       9       9       8       9
       9       8       9       9       8       9       9       8       9       9
       8       9       9       8       9       9       8       9       9       8
       9       9       8       9       9       8       9       9       8       9
       9       8       9       9       8       9       9       8       9       9
       8       9       9       8       9       9       8       9       9       8
       9       9       8       9       9       8       9       9       8       9
       9       8       9       9       8       9       9       8       9       9
       8       9       9       8       9       9       8       9       9       8
       9       9       8       9       9       8       9       9       8       9
       9       8       9       9       8       9       9       8       9       9
       8       9       9       8       9       9       8       9       9       8
       9       9       8       9       9       8       9       9       8       9
       9       8       9       9       8       9       9       8       9       9
       8       9       9       8       9       9       8       9       9       8
       9       9       8       9       9       8       9       9       8       9
       9       8       9       9       8       9       9       8       9       9
       8       9       9       8       9       9       8       9       9       8
       9       9       8       9       9       8       9       9       8       9
       9       8       9       9       8       9       9       8       9       9
       8       9       9       8       9       9       8       9       9       8
       9       9       8       9       9       8       9       9       8       9
       9       8       9       9       8       9       9       8       9       9
       8       9       9       8       9       9       8       9       9       8
       9       9       8       9       9       8       9       9       8       9
       9       8       9       9       8       9       9       8       9       9
       8       9       9       8       9       9       8       9       9       8
       9       9       8       9       9       8       9       9       8       9
       9       8       9       9       8       9       9       8       9       9
       8       9       9       8       9       9       8       9       9       8
       9       9       8       9       9       8       9       9       8       9
       9       8       9       9       8       9       9       8       9       9
       8       9       9       8       9       9       8       9       9       8
       9       9       8       9       9       8       9       9       8       9
       9       8       9       9       8       9       9       8       9       9
       8       9       9       8       9       9       8       9       9       8
       9       9       8       9       9       8       9       9       8       9
       9       8       9       9       8       9       9       8       9       9
       8       9       9       8       9       9       8       9       9       8
       9       9       8       9       9       8       9       9       8       9
       9       8       9       9       8       9       9       8       9       9
       8       9       9       8       9       9       8       9       9       8
       9       9       8       9       9       8       9       9       8       9
       9       8       9       9       8       9       9       8       9       9
       8       9       9       8       9       9       8       9       9       8
       9       9       8       9       9       8       9       9       8       9
       9       8       9       9       8       9       9       8       9       9
       8       9       9       8       9       9       8       9       9       8
       9       9       8       9       9       8       9       9       8       9
       9       8       9       9       8       9       9       8       9       9
       8       9       9       8       9       9       8       9       9       8
       9       9       8       9       9       8       9       9       8       9
       9       8       9       9       8       9       9       8       9       9
       8       9       9       8       9       9       8       9       9       8
       9       9       8       9       9       8       9       9       8       9
       9       8       9       9       8       9       9       8       9       9
       8       9       9       8       9       9       8       9       9       8
       9       9       8       9       9       8       9       9       8       9
       9       8       9       9       8       9       9       8       9       9
       8       9       9       8       9       9       8       9       9       8
       9       9       8       9       9       8       9       9       8       9
       9       8       9       9       8       9       9       8       9       9
       8       9       9       8       9       9       8       9       9       8
       9       9       8       9       9       8       9       9       8       9
       9       8       9       9       8       9       9       8       9       9
       8       9       9       8       9       9       8       9       9       8
       9       9       8       9       9       8       9       9       8       9
       9       8       9       9       8       9       9       8       9       9
       8       9       9       8       9       9       8       9       9       8
       9       9       8       9       9       8       9       9       8       9
       9       8       9       9       8       9       9       8       9       9
       8       9       9       8       9       9       8       9       9       8
       9       9       8       9       9       8       9       9       8       9
       9       8       9       9       8       9       9       8       9       9
       8       9       9       8       9       9       8       9       9       8
       9       9       8       9       9       8       9       9       8       9
       9       8       9       9       8       9       9       8       9       9
       8       9       9       8       9       9       8       9       9       8
       9       9       8       9       9       8       9       9       8       9
       9       8       9       9       8       9       9       8       9       9
       8       9       9       8       9       9       8       9       9       8
       9       9       8       9       9       8       9       9       8       9
       9       8       9       9       8       9       9       8       9       9
       8       9       9       8       9       9       8       9       9       8
       9       9       8       9       9       8       9       9       8       9
       9       8       9       9       8       9       9       8       9       9
       8       9       9       8       9       9       8       9       9       8
       9       9       8       9       9       8       9       9       8       9
       9       8       9       9       8       9       9       8       9       9
       8       9       9       8       9       9       8       9       9       8
       9       9       8       9       9       8       9       9       8       9
       9       8       9       9       8       9       9       8       9       9
       8       9       9       8       9       9       8       9       9       8
       9       9       8       9       9       8       9       9       8       9
       9       8       9       9       8       9       9       8       9       9
       8       9       9       8       9       9       8       9       9       8
       9       9       8       9       9       8       9       9       8       9
       9       8       9       9       8       9       9       8       9       9
       8       9       9       8       9       9       8       9       9       8
       9       9       8       9       9       8       9       9       8       9
       9       8       9       9       8       9       9       8       9       9
       8       9       9       8       9       9       8       9       9       8
       9       9       8       9       9       8       9       9       8       9
       9       8       9       9       8       9       9       8       9       9
       8       9       9       8       9       9       8       9       9       8
       9       9       8       9       9       8       9       9       8       9
       9       8       9       9       8       9       9       8       9       9
       8       9       9       8       9       9       8       9       9       8
       9       9       8       9       9       8       9       9       8       9
       9       8       9       9       8       9       9       8       9       9
       8       9       9       8       9       9       8       9       9       8
       9       9       8       9       9       8       9       9       8       9
       9       8       9       9       8       9       9       8       9       9
       8       9       9       8       9       9       8       9       9       8
       9       9       8       9       9       8       9       9       8       9
       9       8       9       9       8       9       9       8       9       9
       8       9       9       8       9       9       8       9       9       8
       9       9       8       9       9       8       9       9       8       9
       9       8       9       9       8       9       9       8       9       9
       8       9       9       8       9       9       8       9       9       8
       9       9       8       9       9       8       9       9       8       9
       9       8       9       9       8       9       9       8       9       9
       8       9       9       8       9       9       8       9       9       8
       9       9       8       9       9       8       9       9       8       9
       9       8       9       9       8       9       9       8       9       9
       8       9       9       8       9       9       8       9       9       8
       9       9       8       9       9       8       9       9       8       9
       9       8       9       9       8       9       9       8       9       9
       8       9       9       8       9       9       8       9       9       8
       9       9       8       9       9       8       9       9       8       9
       9       8       9       9       8       9       9       8       9       9
       8       9       9       8       9       9       8       9       9       8
       9       9       8       9       9       8       9       9       8       9
       9       8       9       9       8       9       9       8       9       9
       8       9       9       8       9       9       8       9       9       8
       9       9       8       9       9       8       9       9       8       9
       9       8       9       9       8       9       9       8       9       9
       8       9       9       8       9       9       8       9       9       8
       9       9       8       9       9       8       9       9       8       9
       9       8       9       9       8       9       9       8       9       9
       8       9       9       8       9       9       8       9       9       8
       9       9       8       9       9       8       9       9       8       9
       9       8       9       9       8       9       9       8       9       9
       8       9       9       8       9       9       8       9       9       8
       9       9       8       9       9       8       9       9       8       9
       9       8       9       9       8       9       9       8       9       9
       8       9       9       8       9       9       8       9       9       8
       9       9       8       9       9       8       9       9       8       9
       9       8       9       9       8       9       9       8       9       9
       8       9       9       8       9       9       8       9       9       8
       9       9       8       9       9       8       9       9       8       9
       9       8       9       9       8       9       9       8       9       9
       8       9       9       8       9       9       8       9       9       8
       9       9       8       9       9       8       9       9       8       9
       9       8       9       9       8       9       9       8       9       9
       8       9       9       8       9       9       8       9       9       8
       9       9       8       9       9       8       9       9       8       9
       9       8       9       9       8       9       9       8       9       9
       8       9       9       8       9       9       8       9       9       8
       9       9       8       9       9       8       9       9       8       9
       9       8       9       9       8       9       9       8       9       9
       8       9       9       8       9       9       8       9       9       8
       9       9       8       9       9       8       9       9       8       9
       9       8       9       9       8       9       9       8       9       9
       8       9       9       8       9       9       8       9       9       8
       9       9       8       9       9       8       9       9       8       9
       9       8       9       9       8       9       9       8       9       9
       8       9       9       8       9       9       8       9       9       8
       9       9       8       9       9       8       9       9       8       9
       9       8       9       9       8       9       9       8       9       9
       8       9       9       8       9       9       8       9       9       8
       9       9       8       9       9       8       9       9       8       9
       9       8       9       9       8       9       9       8       9       9
       8       9       9       8       9       9       8       9       9       8
       9       9       8       9       9       8       9       9       8       9
       9       8       9       9       8       9       9       8       9       9
       8       9       9       8       9       9       8       9       9       8
       9       9       8       9       9       8       9       9       8       9
       9       8       9       9       8       9       9       8       9       9
       8       9       9       8       9       9       8       9       9       8
       9       9       8       9       9       8       9       9       8       9
       9       8       9       9       8       9       9       8       9       9
       8       9       9       8       9       9       8       9       9       8
       9       9       8       9       9       8       9       9       8       9
       9       8       9       9       8       9       9       8       9       9
       8       9       9       8       9       9       8       9       9       8
       9       9       8       9       9       8       9       9       8       9
       9       8       9       9       8       9       9       8       9       9
       8       9       9       8       9       9       8       9       9       8
       9       9       8       9       9       8       9       9       8       9
       9       8       9       9       8       9       9       8       9       9
       8       9       9       8       9       9       8       9       9       8
       9       9       8       9       9       8       9       9       8       9
       9       8       9       9       8       9       9       8       9       9
       8       9       9       8       9       9       8       9       9       8
       9       9       8       9       9       8       9       9       8       9
       9       8       9       9       8       9       9       8       9       9
       8       9       9       8       9       9       8       9       9       8
       9       9       8       9       9       8       9       9       8       9
       9       8       9       9       8       9       9       8       9       9
       8       9       9       8       9       9       8       9       9       8
       9       9       8       9       9       8       9       9       8       9
       9       8       9       9       8       9       9       8       9       9
       8       9       9       8       9       9       8       9       9       8
       9       9       8       9       9       8       9       9       8       9
       9       8       9       9       8       9       9       8       9       9
       8       9       9       8       9       9       8       9       9       8
       9       9       8       9       9       8       9       9       8       9
       9       8       9       9       8       9       9       8       9       9
       8       9       9       8       9       9       8       9       9       8
       9       9       8       9       9       8       9       9       8       9
       9       8       9       9       8       9       9       8       9       9
       8       9       9       8       9       9       8       9       9       8
       9       9       8       9       9       8       9       9       8       9
       9       8       9       9       8       9       9       8       9       9
       8       9       9       8       9       9       8       9       9       8
       9       9       8       9       9       8       9       9       8       9
       9       8       9       9       8       9       9       8       9       9
       8       9       9       8       9       9       8       9       9       8
       9       9       8       9       9       8       9       9       8       9
       9       8       9       9       8       9       9       8       9       9
       8       9       9       8       9       9       8       9       9       8
       9       9       8       9       9       8       9       9       8       9
       9       8       9       9       8       9       9       8       9       9
       8       9       9       8       9       9       8       9       9       8
       9       9       8       9       9       8       9       9       8       9
       9       8       9       9       8       9       9       8       9       9
       8       9       9       8       9       9       8       9       9       8
       9       9       8       9       9       8       9       9       8       9
       9       8       9       9       8       9       9       8       9       9
       8       9       9       8       9       9       8       9       9       8
       9       9       8       9       9       8       9       9       8       9
       9       8       9       9       8       9       9       8       9       9
       8       9       9       8       9       9       8       9       9       8
       9       9       8       9       9       8       9       9       8       9
       9       8       9       9       8       9       9       8       9       9
       8       9       9       8       9       9       8       9       9       8
       9       9       8       9       9       8       9       9       8       9
       9       8       9       9       8       9       9       8       9       9
       8       9       9       8       9       9       8       9       9       8
       9       9       8       9       9       8       9       9       8       9
       9       8       9       9       8       9       9       8       9       9
       8       9       9       8       9       9       8       9       9       8
       9       9       8       9       9       8       9       9       8       9
       9       8       9       9       8       9       9       8       9       9
       8       9       9       8       9       9       8       9       9       8
       9       9       8       9       9       8       9       9       8       9
       9       8       9       9       8       9       9       8       9       9
       8       9       9       8       9       9       8       9       9       8
       9       9       8       9       9       8       9       9       8       9
       9       8       9       9       8       9       9       8       9       9
       8       9       9       8       9       9       8       9       9       8
       9       9       8       9       9       8       9       9       8       9
       9       8       9       9       8       9       9       8       9       9
       8       9       9       8       9       9       8       9       9       8
       9       9       8       9       9       8       9       9       8       9
       9       8       9       9       8       9       9       8       9       9
       8       9       9       8       9       9       8       9       9       8
       9       9       8       9       9       8       9       9       8       9
       9       8       9       9       8       9       9       8       9       9
       8       9       9       8       9       9       8       9       9       8
       9       9       8       9       9       8       9       9       8       9
       9       8       9       9       8       9       9       8       9       9
       8       9       9       8       9       9       8       9       9       8
       9       9       8       9       9       8       9       9       8       9
       9       8       9       9       8       9       9       8       9       9
       8       9       9       8       9       9       8       9       9       8
       9       9       8       9       9       8       9       9       8       9
       9       8       9       9       8       9       9       8       9       9
       8       9       9       8       9       9       8       9       9       8
       9       9       8       9       9       8       9       9       8       9
       9       8       9       9       8       9       9       8       9       9
       8       9       9       8       9       9       8       9       9       8
       9       9       8       9       9       8       9       9       8       9
       9       8       9       9       8       9       9       8       9       9
       8       9       9       8       9       9       8       9       9       8
       9       9       8       9       9       8       9       9       8       9
       9       8       9       9       8       9       9       8       9       9
       8       9       9       8       9       9       8       9       9       8
       9       9       8       9       9       8       9       9       8       9
       9       8       9       9       8       9       9       8       9       9
       8       9       9       8       9       9       8       9       9       8
       9       9       8       9       9       8       9       9       8       9
       9       8       9       9       8       9       9       8       9       9
       8       9       9       8       9       9       8       9       9       8
       9       9       8       9       9       8       9       9       8       9
       9       8       9       9       8       9       9       8       9       9
       8       9       9       8       9       9       8       9       9       8
       9       9       8       9       9       8       9       9       8       9
       9       8       9       9       8       9       9       8       9       9
       8       9       9       8       9       9       8       9       9       8
       9       9       8       9       9       8       9       9       8       9
       9       8       9       9       8       9       9       8       9       9
       8       9       9       8       9       9       8       9       9       8
       9       9       8       9       9       8       9       9       8       9
       9       8       9       9       8       9       9       8       9       9
       8       9       9       8       9       9       8       9       9       8
       9       9       8       9       9       8       9       9       8       9
       9       8       9       9       8       9       9       8       9       9
       8       9       9       8       9       9       8       9       9       8
       9       9       8       9       9       8       9       9       8       9
       9       8       9       9       8       9       9       8       9       9
       8       9       9       8       9       9       8       9       9       8
       9       9       8       9       9       8       9       9       8       9
       9       8       9       9       8       9       9       8       9       9
       8       9       9       8       9       9       8       9       9       8
       9       9       8       9       9       8       9       9       8       9
       9       8       9       9       8       9       9       8       9       9
       8       9       9       8       9       9       8       9       9       8
       9       9       8       9       9       8       9       9       8       9
       9       8       9       9       8       9       9       8       9       9
       8       9       9       8       9       9       8       9       9       8
       9       9       8       9       9       8       9       9       8       9
       9       8       9       9       8       9       9       8       9       9
       8       9       9       8       9       9       8       9       9       8
       9       9       8       9       9       8       9       9       8       9
       9       8       9       9       8       9       9       8       9       9
       8       9       9       8       9       9       8       9       9       8
       9       9       8       9       9       8       9       9       8       9
       9       8       9       9       8       9       9       8       9       9
       8       9       9       8       9       9       8       9       9       8
       9       9       8       9       9       8       9       9       8       9
       9       8       9       9       8       9       9       8       9       9
       8       9       9       8       9       9       8       9       9       8
       9       9       8       9       9       8       9       9       8       9
       9       8       9       9       8       9       9       8       9       9
       8       9       9       8       9       9       8       9       9       8
       9       9       8       9       9       8       9       9       8       9
       9       8       9       9       8       9       9       8       9       9
       8       9       9       8       9       9       8       9       9       8
       9       9       8       9       9       8       9       9       8       9
       9       8       9       9       8       9       9       8       9       9
       8       9       9       8       9       9       8       9       9       8
       9       9       8       9       9       8       9       9       8       9
       9       8       9       9       8       9       9       8       9       9
       8       9       9       8       9       9       8       9       9       8
       9       9       8       9       9       8       9       9       8       9
       9       8       9       9       8       9       9       8       9       9
       8       9       9       8       9       9       8       9       9       8
       9       9       8       9       9       8       9       9       8       9
       9       8       9       9       8       9       9       8       9       9
       8       9       9       8       9       9       8       9       9       8
       9       9       8       9       9       8       9       9       8       9
       9       8       9       9       8       9       9       8       9       9
       8       9       9       8       9       9       8       9       9       8
       9       9       8       9       9       8       9       9       8       9
       9       8       9       9       8       9       9       8       9       9
       8       9       9       8       9       9       8       9       9       8
       9       9       8       9       9       8       9       9       8       9
       9       8       9       9       8       9       9       8       9       9
       8       9       9       8       9       9       8       9       9       8
       9       9       8       9       9       8       9       9       8       9
       9       8       9       9       8       9       9       8       9       9
       8       9       9       8       9       9       8       9       9       8
       9       9       8       9       9       8       9       9       8       9
       9       8       9       9       8       9       9       8       9       9
       8       9       9       8       9       9       8       9       9       8
       9       9       8       9       9       8       9       9       8       9
       9       8       9       9       8       9       9       8       9       9
       8       9       9       8       9       9       8       9       9       8
       9       9       8       9       9       8       9       9       8       9
       9       8       9       9       8       9       9       8       9       9
       8       9       9       8       9       9       8       9       9       8
       9       9       8       9       9       8       9       9       8       9
       9       8       9       9       8       9       9       8       9       9
       8       9       9       8       9       9       8       9       9       8
       9       9       8       9       9       8       9       9       8       9
       9       8       9       9       8       9       9       8       9       9
       8       9       9       8       9       9       8       9       9       8
       9       9       8       9       9       8       9       9       8       9
       9       8       9       9       8       9       9       8       9       9
       8       9       9       8       9       9       8       9       9       8
       9       9       8       9       9       8       9       9       8       9
       9       8       9       9       8       9       9       8       9       9
       8       9       9       8       9       9       8       9       9       8
       9       9       8       9       9       8       9       9       8       9
       9       8       9       9       8       9       9       8       9       9
       8       9       9       8       9       9       8       9       9       8
       9       9       8       9       9       8       9       9       8       9
       9       8       9       9       8       9       9       8       9       9
       8       9       9       8       9       9       8       9       9       8
       9       9       8       9       9       8       9       9       8       9
       9       8       9       9       8       9       9       8       9       9
       8       9       9       8       9       9       8       9       9       8
       9       9       8       9       9       8       9       9       8       9
       9       8       9       9       8       9       9       8       9       9
       8       9       9       8       9       9       8       9       9       8
       9       9       8       9       9       8       9       9       8       9
       9       8       9       9       8       9       9       8       9       9
       8       9       9       8       9       9       8       9       9       8
       9       9       8       9       9       8       9       9       8       9
       9       8       9       9       8       9       9       8       9       9
       8       9       9       8       9       9       8       9       9       8
       9       9       8       9       9       8       9       9       8       9
       9       8       9       9       8       9       9       8       9       9
       8       9       9       8       9       9       8       9       9       8
       9       9       8       9       9       8       9       9       8       9
       9       8       9       9       8       9       9       8       9       9
       8       9       9       8       9       9       8       9       9       8
       9       9       8       9       9       8       9       9       8       9
       9       8       9       9       8       9       9       8       9       9
       8       9       9       8       9       9       8       9       9       8
       9       9       8       9       9       8       9       9       8       9
       9       8       9       9       8       9       9       8       9       9
       8       9       9       8       9       9       8       9       9       8
       9       9       8       9       9       8       9       9       8       9
       9       8       9       9       8       9       9       8       9       9
       8       9       9       8       9       9       8       9       9       8
       9       9       8       9       9       8       9       9       8       9
       9       8       9       9       8       9       9       8       9       9
       8       9       9       8       9       9       8       9       9       8
       9       9       8       9       9       8       9       9       8       9
       9       8       9       9       8       9       9       8       9       9
       8       9       9       8       9       9       8       9       9       8
       9       9       8       9       9       8       9       9       8       9
       9       8       9       9       8       9       9       8       9       9
       8       9       9       8       9       9       8       9       9       8
       9       9       8       9       9       8       9       9       8       9
       9       8       9       9       8       9       9       8       9       9
       8       9       9       8       9       9       8       9       9       8
       9       9       8       9       9       8       9       9       8       9
       9       8       9       9       8       9       9       8       9       9
       8       9       9       8       9       9       8       9       9       8
       9       9       8       9       9       8       9       9       8       9
       9       8       9       9       8       9       9       8       9       9
       8       9       9       8       9       9       8       9       9       8
       9       9       8       9       9       8       9       9       8       9
       9       8       9       9       8       9       9       8       9       9
       8       9       9       8       9       9       8       9       9       8
       9       9       8       9       9       8       9       9       8       9
       9       8       9       9       8       9       9       8       9       9
       8       9       9       8       9       9       8       9       9       8
       9       9       8       9       9       8       9       9       8       9
       9       8       9       9       8       9       9       8       9       9
       8       9       9       8       9       9       8       9       9       8
       9       9       8       9       9       8       9       9       8       9
       9       8       9       9       8       9       9       8       9       9
       8       9       9       8       9       9       8       9       9       8
       9       9       8       9       9       8       9       9       8       9
       9       8       9       9       8       9       9       8       9       9
       8       9       9       8       9       9       8       9       9       8
       9       9       8       9       9       8       9       9       8       9
       9       8       9       9       8       9       9       8       9       9
       8       9       9       8       9       9       8       9       9       8
       9       9       8       9       9       8       9       9       8       9
       9       8       9       9       8       9       9       8       9       9
       8       9       9       8       9       9       8       9       9       8
       9       9       8       9       9       8       9       9       8       9
       9       8       9       9       8       9       9       8       9       9
       8       9       9       8       9       9       8       9       9       8
       9       9       8       9       9       8       9       9       8       9
       9       8       9       9       8       9       9       8       9       9
       8       9       9       8       9       9       8       9       9       8
       9       9       8       9       9       8       9       9       8       9
       9       8       9       9       8       9       9       8       9       9
       8       9       9       8       9       9       8       9       9       8
       9       9       8       9       9       8       9       9       8       9
       9       8       9       9       8       9       9       8       9       9
       8       9       9       8       9       9       8       9       9       8
       9       9       8       9       9       8       9       9       8       9
       9       8       9       9       8       9       9       8       9       9
       8       9       9       8       9       9       8       9       9       8
       9       9       8       9       9       8       9       9       8       9
       9       8       9       9       8       9       9       8       9       9
       8       9       9       8       9       9       8       9       9       8
       9       9       8       9       9       8       9       9       8       9
       9       8       9       9       8       9       9       8       9       9
       8       9       9       8       9       9       8       9       9       8
       9       9       8       9       9       8       9       9       8       9
       9       8       9       9       8       9       9       8       9       9
       8       9       9       8       9       9       8       9       9       8
       9       9       8       9       9       8       9       9       8       9
       9       8       9       9       8       9       9       8       9       9
       8       9       9       8       9       9       8       9       9       8
       9       9       8       9       9       8       9       9       8       9
       9       8       9       9       8       9       9       8       9       9
       8       9       9       8       9       9       8       9       9       8
       9       9       8       9       9       8       9       9       8       9
       9       8       9       9       8       9       9       8       9       9
       8       9       9       8       9       9       8       9       9       8
       9       9       8       9       9       8       9       9       8       9
       9       8       9       9       8       9       9       8       9       9
       8       9       9       8       9       9       8       9       9       8
       9       9       8       9       9       8       9       9       8       9
       9       8       9       9       8       9       9       8       9       9
       8       9       9       8       9       9       8       9       9       8
       9       9       8       9       9       8       9       9       8       9
       9       8       9       9       8       9       9       8       9       9
       8       9       9       8       9       9       8       9       9       8
       9       9       8       9       9       8       9       9       8       9
       9       8       9       9       8       9       9       8       9       9
       8       9       9       8       9       9       8       9       9       8
       9       9       8       9       9       8       9       9       8       9
       9       8       9       9       8       9       9       8       9       9
       8       9       9       8       9       9       8       9       9       8
       9       9       8       9       9       8       9       9       8       9
       9       8       9       9       8       9       9       8       9       9
       8       9       9       8       9       9       8       9       9       8
       9       9       8       9       9       8       9       9       8       9
       9       8       9       9       8       9       9       8       9       9
       8       9       9       8       9       9       8       9       9       8
       9       9       8       9       9       8       9       9       8       9
       9       8       9       9       8       9       9       8       9       9
       8       9       9       8       9       9       8       9       9       8
       9       9       8       9       9       8       9       9       8       9
       9       8       9       9       8       9       9       8       9       9
       8       9       9       8       9       9       8       9       9       8
       9       9       8       9       9       8       9       9       8       9
       9       8       9       9       8       9       9       8       9       9
       8       9       9       8       9       9       8       9       9       8
       9       9       8       9       9       8       9       9       8       9
       9       8       9       9       8       9       9       8       9       9
       8       9       9       8       9       9       8       9       9       8
       9       9       8       9       9       8       9       9       8       9
       9       8       9       9       8       9       9       8       9       9
       8       9       9       8       9       9       8       9       9       8
       9       9       8       9       9       8       9       9       8       9
       9       8       9       9       8       9       9       8       9       9
       8       9       9       8       9       9       8       9       9       8
       9       9       8       9       9       8       9       9       8       9
       9       8       9       9       8       9       9       8       9       9
       8       9       9       8       9       9       8       9       9       8
       9       9       8       9       9       8       9       9       8       9
       9       8       9       9       8       9       9       8       9       9
       8       9       9       8       9       9       8       9       9       8
       9       9       8       9       9       8       9       9       8       9
       9       8       9       9       8       9       9       8       9       9
       8       9       9       8       9       9       8       9       9       8
       9       9       8       9       9       8       9       9       8       9
       9       8       9       9       8       9       9       8       9       9
       8       9       9       8       9       9       8       9       9       8
       9       9       8       9       9       8       9       9       8       9
       9       8       9       9       8       9       9       8       9       9
       8       9       9       8       9       9       8       9       9       8
       9       9       8       9       9       8       9       9       8       9
       9       8       9       9       8       9       9       8       9       9
       8       9       9       8       9       9       8       9       9       8
       9       9       8       9       9       8       9       9       8       9
       9       8       9       9       8       9       9       8       9       9
       8       9       9       8       9       9       8       9       9       8
       9       9       8       9       9       8       9       9       8       9
       9       8       9       9       8       9       9       8       9       9
       8       9       9       8       9       9       8       9       9       8
       9       9       8       9       9       8       9       9       8       9
       9       8       9       9       8       9       9       8       9       9
       8       9       9       8       9       9       8       9       9       8
       9       9       8       9       9       8       9       9       8       9
       9       8       9       9       8       9       9       8       9       9
       8       9       9       8       9       9       8       9       9       8
       9       9       8       9       9       8       9       9       8       9
       9       8       9       9       8       9       9       8       9       9
       8       9       9       8       9       9       8       9       9       8
       9       9       8       9       9       8       9       9       8       9
       9       8       9       9       8       9       9       8       9       9
       8       9       9       8       9       9       8       9       9       8
       9       9       8       9       9       8       9       9       8       9
       9       8       9       9       8       9       9       8       9       9
       8       9       9       8       9       9       8       9       9       8
       9       9       8       9       9       8       9       9       8       9
       9       8       9       9       8       9       9       8       9       9
       8       9       9       8       9       9       8       9       9       8
       9       9       8       9       9       8       9       9       8       9
       9       8       9       9       8       9       9       8       9       9
       8       9       9       8       9       9       8       9       9       8
       9       9       8       9       9       8       9       9       8       9
       9       8       9       9       8       9       9       8       9       9
       8       9       9       8       9       9       8       9       9       8
       9       9       8       9       9       8       9       9       8       9
       9       8       9       9       8       9       9       8       9       9
       8       9       9       8       9       9       8       9       9       8
       9       9       8       9       9       8       9       9       8       9
       9       8       9       9       8       9       9       8       9       9
       8       9       9       8       9       9       8       9       9       8
       9       9       8       9       9       8       9       9       8       9
       9       8       9       9       8       9       9       8       9       9
       8       9       9       8       9       9       8       9       9       8
       9       9       8       9       9       8       9       9       8       9
       9       8       9       9       8       9       9       8       9       9
       8       9       9       8       9       9       8       9       9       8
       9       9       8       9       9       8       9       9       8       9
       9       8       9       9       8       9       9       8       9       9
       8       9       9       8       9       9       8       9       9       8
       9       9       8       9       9       8       9       9       8       9
       9       8       9       9       8       9       9       8       9       9
       8       9       9       8       9       9       8       9       9       8
       9       9       8       9       9       8       9       9       8       9
       9       8       9       9       8       9       9       8       9       9
       8       9       9       8       9       9       8       9       9       8
       9       9       8       9       9       8       9       9       8       9
       9       8       9       9       8       9       9       8       9       9
       8       9       9       8       9       9       8       9       9       8
       9       9       8       9       9       8       9       9       8       9
       9       8       9       9       8       9       9       8       9       9
       8       9       9       8       9       9       8       9       9       8
       9       9       8       9       9       8       9       9       8       9
       9       8       9       9       8       9       9       8       9       9
       8       9       9       8       9       9       8       9       9       8
       9       9       8       9       9       8       9       9       8       9
       9       8       9       9       8       9       9       8       9       9
       8       9       9       8       9       9       8       9       9       8
       9       9       8       9       9       8       9       9       8       9
       9       8       9       9       8       9       9       8       9       9
       8       9       9       8       9       9       8       9       9       8
       9       9       8       9       9       8       9       9       8       9
       9       8       9       9       8       9       9       8       9       9
       8       9       9       8       9       9       8       9       9       8
       9       9       8       9       9       8       9       9       8       9
       9       8       9       9       8       9       9       8       9       9
       8       9       9       8       9       9       8       9       9       8
       9       9       8       9       9       8       9       9       8       9
       9       8       9       9       8       9       9       8       9       9
       8       9       9       8       9       9       8       9       9       8
       9       9       8       9       9       8       9       9       8       9
       9       8       9       9       8       9       9       8       9       9
       8       9       9       8       9       9       8       9       9       8
       9       9       8       9       9       8       9       9       8       9
       9       8       9       9       8       9       9       8       9       9
       8       9       9       8       9       9       8       9       9       8
       9       9       8       9       9       8       9       9       8       9
       9       8       9       9       8       9       9       8       9       9
       8       9       9       8       9       9       8       9       9       8
       9       9       8       9       9       8       9       9       8       9
       9       8       9       9       8       9       9       8       9       9
       8       9       9       8       9       9       8       9       9       8
       9       9       8       9       9       8       9       9       8       9
       9       8       9       9       8       9       9       8       9       9
       8       9       9       8       9       9       8       9       9       8
       9       9       8       9       9       8       9       9       8       9
       9       8       9       9       8       9       9       8       9       9
       8       9       9       8       9       9       8       9       9       8
       9       9       8       9       9       8       9       9       8       9
       9       8       9       9       8       9       9       8       9       9
       8       9       9       8       9       9       8       9       9       8
       9       9       8       9       9       8       9       9       8       9
       9       8       9       9       8       9       9       8       9       9
       8       9       9       8       9       9       8       9       9       8
       9       9       8       9       9       8       9       9       8       9
       9       8       9       9       8       9       9       8       9       9
       8       9       9       8       9       9       8       9       9       8
       9       9       8       9       9       8       9       9       8       9
       9       8       9       9       8       9       9       8       9       9
       8       9       9       8       9       9       8       9       9       8
       9       9       8       9       9       8       9       9       8       9
       9       8       9       9       8       9       9       8       9       9
       8       9       9       8       9       9       8       9       9       8
       9       9       8       9       9       8       9       9       8       9
       9       8       9       9       8       9       9       8       9       9
       8       9       9       8       9       9       8       9       9       8
       9       9       8       9       9       8       9       9       8       9
       9       8       9       9       8       9       9       8       9       9
       8       9       9       8       9       9       8       9       9       8
       9       9       8       9       9       8       9       9       8       9
       9       8       9       9       8       9       9       8       9       9
       8       9       9       8       9       9       8       9       9       8
       9       9       8       9       9       8       9       9       8       9
       9       8       9       9       8       9       9       8       9       9
       8       9       9       8       9       9       8       9       9       8
       9       9       8       9       9       8       9       9       8       9
       9       8       9       9       8       9       9       8       9       9
       8       9       9       8       9       9       8       9       9       8
       9       9       8       9       9       8       9       9       8       9
       9       8       9       9       8       9       9       8       9       9
       8       9       9       8       9       9       8       9       9       8
       9       9       8       9       9       8       9       9       8       9
       9       8       9       9       8       9       9       8       9       9
       8       9       9       8       9       9       8       9       9       8
       9       9       8       9       9       8       9       9       8       9
       9       8       9       9       8       9       9       8       9       9
       8       9       9       8       9       9       8       9       9       8
       9       9       8       9       9       8       9       9       8       9
       9       8       9       9       8       9       9       8       9       9
       8       9       9       8       9       9       8       9       9       8
       9       9       8       9       9       8       9       9       8       9
       9       8       9       9       8       9       9       8       9       9
       8       9       9       8       9       9       8       9       9       8
       9       9       8       9       9       8       9       9       8       9
       9       8       9       9       8       9       9       8       9       9
       8       9       9       8       9       9       8       9       9       8
       9       9       8       9       9       8       9       9       8       9
       9       8       9       9       8       9       9       8       9       9
       8       9       9       8       9       9       8       9       9       8
       9       9       8       9       9       8       9       9       8       9
       9       8       9       9       8       9       9       8       9       9
       8       9       9       8       9       9       8       9       9       8
       9       9       8       9       9       8       9       9       8       9
       9       8       9       9       8       9       9       8       9       9
       8       9       9       8       9       9       8       9       9       8
       9       9       8       9       9       8       9       9       8       9
       9       8       9       9       8       9       9       8       9       9
       8       9       9       8       9       9       8       9       9       8
       9       9       8       9       9       8       9       9       8       9
       9       8       9       9       8       9       9       8       9       9
       8       9       9       8       9       9       8       9       9       8
       9       9       8       9       9       8       9       9       8       9
       9       8       9       9       8       9       9       8       9       9
       8       9       9       8       9       9       8       9       9       8
       9       9       8       9       9       8       9       9       8       9
       9       8       9       9       8       9       9       8       9       9
       8       9       9       8       9       9       8       9       9       8
       9       9       8       9       9       8       9       9       8       9
       9       8       9       9       8       9       9       8       9       9
       8       9       9       8       9       9       8       9       9       8
       9       9       8       9       9       8       9       9       8       9
       9       8       9       9       8       9       9       8       9       9
       8       9       9       8       9       9       8       9       9       8
       9       9       8       9       9       8       9       9       8       9
       9       8       9       9       8       9       9       8       9       9
       8       9       9       8       9       9       8       9       9       8
       9       9       8       9       9       8       9       9       8       9
       9       8       9       9       8       9       9       8       9       9
       8       9       9       8       9       9       8       9       9       8
       9       9       8       9       9       8       9       9       8       9
       9       8       9       9       8       9       9       8       9       9
       8       9       9       8       9       9       8       9       9       8
       9       9       8       9       9       8       9       9       8       9
       9       8       9       9       8       9       9       8       9       9
       8       9       9       8       9       9       8       9       9       8
       9       9       8       9       9       8       9       9       8       9
       9       8       9       9       8       9       9       8       9       9
       8       9       9       8       9       9       8       9       9       8
       9       9       8       9       9       8       9       9       8       9
       9       8       9       9       8       9       9       8       9       9
       8       9       9       8       9       9       8       9       9       8
       9       9       8       9       9       8       9       9       8       9
       9       8       9       9       8       9       9       8       9       9
       8       9       9       8       9       9       8       9       9       8
       9       9       8       9       9       8       9       9       8       9
       9       8       9       9       8       9       9       8       9       9
       8       9       9       8       9       9       8       9       9       8
       9       9       8       9       9       8       9       9       8       9
       9       8       9       9       8       9       9       8       9       9
       8       9       9       8       9       9       8       9       9       8
       9       9       8       9       9       8       9       9       8       9
       9       8       9       9       8       9       9       8       9       9
       8       9       9       8       9       9       8       9       9       8
       9       9       8       9       9       8       9       9       8       9
       9       8       9       9       8       9       9       8       9       9
       8       9       9       8       9       9       8       9       9       8
       9       9       8       9       9       8       9       9       8       9
       9       8       9       9       8       9       9       8       9       9
       8       9       9       8       9       9       8       9       9       8
       9       9       8       9       9       8       9       9       8       9
       9       8       9       9       8       9       9       8       9       9
       8       9       9       8       9       9       8       9       9       8
       9       9       8       9       9       8       9       9       8       9
       9       8       9       9       8       9       9       8       9       9
       8       9       9       8       9       9       8       9       9       8
       9       9       8       9       9       8       9       9       8       9
       9       8       9       9       8       9       9       8       9       9
       8       9       9       8       9       9       8       9       9       8
       9       9       8       9       9       8       9       9       8       9
       9       8       9       9       8       9       9       8       9       9
       8       9       9       8       9       9       8       9       9       8
       9       9       8       9       9       8       9       9       8       9
       9       8       9       9       8       9       9       8       9       9
       8       9       9       8       9       9       8       9       9       8
       9       9       8       9       9       8       9       9       8       9
       9       8       9       9       8       9       9       8       9       9
       8       9       9       8       9       9       8       9       9       8
       9       9       8       9       9       8       9       9       8       9
       9       8       9       9       8       9       9       8       9       9
       8       9       9       8       9       9       8       9       9       8
       9       9       8       9       9       8       9       9       8       9
       9       8       9       9       8       9       9       8       9       9
       8       9       9       8       9       9       8       9       9       8
       9       9       8       9       9       8       9       9       8       9
       9       8       9       9       8       9       9       8       9       9
       8       9       9       8       9       9       8       9       9       8
       9       9       8       9       9       8       9       9       8       9
       9       8       9       9       8       9       9       8       9       9
       8       9       9       8       9       9       8       9       9       8
       9       9       8       9       9       8       9       9       8       9
       9       8       9       9       8       9       9       8       9       9
       8       9       9       8       9       9       8       9       9       8
       9       9       8       9       9       8       9       9       8       9
       9       8       9       9       8       9       9       8       9       9
       8       9       9       8       9       9       8       9       9       8
       9       9       8       9       9       8       9       9       8       9
       9       8       9       9       8       9       9       8       9       9
       8       9       9       8       9       9       8       9       9       8
       9       9       8       9       9       8       9       9       8       9
       9       8       9       9       8       9       9       8       9       9
       8       9       9       8       9       9       8       9       9       8
       9       9       8       9       9       8       9       9       8       9
       9       8       9       9       8       9       9       8       9       9
       8       9       9       8       9       9       8       9       9       8
       9       9       8       9       9       8       9       9       8       9
       9       8       9       9       8       9       9       8       9       9
       8       9       9       8       9       9       8       9       9       8
       9       9       8       9       9       8       9       9       8       9
       9       8       9       9       8       9       9       8       9       9
       8       9       9       8       9       9       8       9       9       8
       9       9       8       9       9       8       9       9       8       9
       9       8       9       9       8       9       9       8       9       9
       8       9       9       8       9       9       8       9       9       8
       9       9       8       9       9       8       9       9       8       9
       9       8       9       9       8       9       9       8       9       9
       8       9       9       8       9       9       8       9       9       8
       9       9       8       9       9       8       9       9       8       9
       9       8       9       9       8       9       9       8       9       9
       8       9       9       8       9       9       8       9       9       8
       9       9       8       9       9       8       9       9       8       9
       9       8       9       9       8       9       9       8       9       9
       8       9       9       8       9       9       8       9       9       8
       9       9       8       9       9       8       9       9       8       9
       9       8       9       9       8       9       9       8       9       9
       8       9       9       8       9       9       8       9       9       8
       9       9       8       9       9       8       9       9       8       9
       9       8       9       9       8       9       9       8       9       9
       8       9       9       8       9       9       8       9       9       8
       9       9       8       9       9       8       9       9       8       9
       9       8       9       9       8       9       9       8       9       9
       8       9       9       8       9       9       8       9       9       8
       9       9       8       9       9       8       9       9       8       9
       9       8       9       9       8       9       9       8       9       9
       8       9       9       8       9       9       8       9       9       8
       9       9       8       9       9       8       9       9       8       9
       9       8       9       9       8       9       9       8       9       9
       8       9       9       8       9       9       8       9       9       8
       9       9       8       9       9       8       9       9       8       9
       9       8       9       9       8       9       9       8       9       9
       8       9       9       8       9       9       8       9       9       8
       9       9       8       9       9       8       9       9       8       9
       9       8       9       9       8       9       9       8       9       9
       8       9       9       8       9       9       8       9       9       8
       9       9       8       9       9       8       9       9       8       9
       9       8       9       9       8       9       9       8       9       9
       8       9       9       8       9       9       8       9       9       8
       9       9       8       9       9       8       9       9       8       9
       9       8       9       9       8       9       9       8       9       9
       8       9       9       8       9       9       8       9       9       8
       9       9       8       9       9       8       9       9       8       9
       9       8       9       9       8       9       9       8       9       9
       8       9       9       8       9       9       8       9       9       8
       9       9       8       9       9       8       9       9       8       9
       9       8       9       9       8       9       9       8       9       9
       8       9       9       8       9       9       8       9       9       8
       9       9       8       9       9       8       9       9       8       9
       9       8       9       9       8       9       9       8       9       9
       8       9       9       8       9       9       8       9       9       8
       9       9       8       9       9       8       9       9       8       9
       9       8       9       9       8       9       9       8       9       9
       8       9       9       8       9       9       8       9       9       8
       9       9       8       9       9       8       9       9       8       9
       9       8       9       9       8       9       9       8       9       9
       8       9       9       8       9       9       8       9       9       8
       9       9       8       9       9       8       9       9       8       9
       9       8       9       9       8       9       9       8       9       9
       8       9       9       8       9       9       8       9       9       8
       9       9       8       9       9       8       9       9       8       9
       9       8       9       9       8       9       9       8       9       9
       8       9       9       8       9       9       8       9       9       8
       9       9       8       9       9       8       9       9       8       9
       9       8       9       9       8       9       9       8       9       9
       8       9       9       8       9       9       8       9       9       8
       9       9       8       9       9       8       9       9       8       9
       9       8       9       9       8       9       9       8       9       9
       8       9       9       8       9       9       8       9       9       8
       9       9       8       9       9       8       9       9       8       9
       9       8       9       9       8       9       9       8       9       9
       8       9       9       8       9       9       8       9       9       8
       9       9       8       9       9       8       9       9       8       9
       9       8       9       9       8       9       9       8       9       9
       8       9       9       8       9       9       8       9       9       8
       9       9       8       9       9       8       9       9       8       9
       9       8       9       9       8       9       9       8       9       9
       8       9       9       8       9       9       8       9       9       8
       9       9       8       9       9       8       9       9       8       9
       9       8       9       9       8       9       9       8       9       9
       8       9       9       8       9       9       8       9       9       8
       9       9       8       9       9       8       9       9       8       9
       9       8       9       9       8       9       9       8       9       9
       8       9       9       8       9       9       8       9       9       8
       9       9       8       9       9       8       9       9       8       9
       9       8       9       9       8       9       9       8       9       9
       8       9       9       8       9       9       8       9       9       8
       9       9       8       9       9       8       9       9       8       9
       9       8       9       9       8       9       9       8       9       9
       8       9       9       8       9       9       8       9       9       8
       9       9       8       9       9       8       9       9       8       9
       9       8       9       9       8       9       9       8       9       9
       8       9       9       8       9       9       8       9       9       8
       9       9       8       9       9       8       9       9       8       9
       9       8       9       9       8       9       9       8       9       9
       8       9       9       8       9       9       8       9       9       8
       9       9       8       9       9       8       9       9       8       9
       9       8       9       9       8       9       9       8       9       9
       8       9       9       8       9       9       8       9       9       8
       9       9       8       9       9       8       9       9       8       9
       9       8       9       9       8       9       9       8       9       9
       8       9       9       8       9       9       8       9       9       8
       9       9       8       9       9       8       9       9       8       9
       9       8       9       9       8       9       9       8       9       9
       8       9       9       8       9       9       8       9       9       8
       9       9       8       9       9       8       9       9       8       9
       9       8       9       9       8       9       9       8       9       9
       8       9       9       8       9       9       8       9       9       8
       9       9       8       9       9       8       9       9       8       9
       9       8       9       9       8       9       9       8       9       9
       8       9       9       8       9       9       8       9       9       8
       9       9       8       9       9       8       9       9       8       9
       9       8       9       9       8       9       9       8       9       9
       8       9       9       8       9       9       8       9       9       8
       9       9       8       9       9       8       9       9       8       9
       9       8       9       9       8       9       9       8       9       9
       8       9       9       8       9       9       8       9       9       8
       9       9       8       9       9       8       9       9       8       9
       9       8       9       9       8       9       9       8       9       9
       8       9       9       8       9       9       8       9       9       8
       9       9       8       9       9       8       9       9       8       9
       9       8       9       9       8       9       9       8       9       9
       8       9       9       8       9       9       8       9       9       8
       9       9       8       9       9       8       9       9       8       9
       9       8       9       9       8       9       9       8       9       9
       8       9       9       8       9       9       8       9       9       8
       9       9       8       9       9       8       9       9       8       9
       9       8       9       9       8       9       9       8       9       9
       8       9       9       8       9       9       8       9       9       8
       9       9       8       9       9       8       9       9       8       9
       9       8       9       9       8       9       9       8       9       9
       8       9       9       8       9       9       8       9       9       8
       9       9       8       9       9       8       9       9       8       9
       9       8       9       9       8       9       9       8       9       9
       8       9       9       8       9       9       8       9       9       8
       9       9       8       9       9       8       9       9       8       9
       9       8       9       9       8       9       9       8       9       9
       8       9       9       8       9       9       8       9       9       8
       9       9       8       9       9       8       9       9       8       9
       9       8       9       9       8       9       9       8       9       9
       8       9       9       8       9       9       8       9       9       8
       9       9       8       9       9       8       9       9       8       9
       9       8       9       9       8       9       9       8       9       9
       8       9       9       8       9       9       8       9       9       8
       9       9       8       9       9       8       9       9       8       9
       9       8       9       9       8       9       9       8       9       9
       8       9       9       8       9       9       8       9       9       8
       9       9       8       9       9       8       9       9       8       9
       9       8       9       9       8       9       9       8       9       9
       8       9       9       8       9       9       8       9       9       8
       9       9       8       9       9       8       9       9       8       9
       9       8       9       9       8       9       9       8       9       9
       8       9       9       8       9       9       8       9       9       8
       9       9       8       9       9       8       9       9       8       9
       9       8       9       9       8       9       9       8       9       9
       8       9       9       8       9       9       8       9       9       8
       9       9       8       9       9       8       9       9       8       9
       9       8       9       9       8       9       9       8       9       9
       8       9       9       8       9       9       8       9       9       8
       9       9       8       9       9       8       9       9       8       9
       9       8       9       9       8       9       9       8       9       9
       8       9       9       8       9       9       8       9       9       8
       9       9       8       9       9       8       9       9       8       9
       9       8       9       9       8       9       9       8       9       9
       8       9       9       8       9       9       8       9       9       8
       9       9       8       9       9       8       9       9       8       9
       9       8       9       9       8       9       9       8       9       9
       8       9       9       8       9       9       8       9       9       8
       9       9       8       9       9       8       9       9       8       9
       9       8       9       9       8       9       9       8       9       9
       8       9       9       8       9       9       8       9       9       8
       9       9       8       9       9       8       9       9       8       9
       9       8       9       9       8       9       9       8       9       9
       8       9       9       8       9       9       8       9       9       8
       9       9       8       9       9       8       9       9       8       9
       9       8       9       9       8       9       9       8       9       9
       8       9       9       8       9       9       8       9       9       8
       9       9       8       9       9       8       9       9       8       9
       9       8       9       9       8       9       9       8       9       9
       8       9       9       8       9       9       8       9       9       8
       9       9       8       9       9       8       9       9       8       9
       9       8       9       9       8       9       9       8       9       9
       8       9       9       8       9       9       8       9       9       8
       9       9       8       9       9       8       9       9       8       9
       9       8       9       9       8       9       9       8       9       9
       8       9       9       8       9       9       8       9       9       8
       9       9       8       9       9       8       9       9       8       9
       9       8       9       9       8       9       9       8       9       9
       8       9       9       8       9       9       8       9       9       8
       9       9       8       9       9       8       9       9       8       9
       9       8       9       9       8       9       9       8       9       9
       8       9       9       8       9       9       8       9       9       8
       9       9       8       9       9       8       9       9       8       9
       9       8       9       9       8       9       9       8       9       9
       8       9       9       8       9       9       8       9       9       8
       9       9       8       9       9       8       9       9       8       9
       9       8       9       9       8       9       9       8       9       9
       8       9       9       8       9       9       8       9       9       8
       9       9       8       9       9       8       9       9       8       9
       9       8       9       9       8       9       9       8       9       9
       8       9       9       8       9       9       8       9       9       8
       9       9       8       9       9       8       9       9       8       9
       9       8       9       9       8       9       9       8       9       9
       8       9       9       8       9       9       8       9       9       8
       9       9       8       9       9       8       9       9       8       9
       9       8       9       9       8       9       9       8       9       9
       8       9       9       8       9       9       8       9       9       8
       9       9       8       9       9       8       9       9       8       9
       9       8       9       9       8       9       9       8       9       9
       8       9       9       8       9       9       8       9       9       8
       9       9       8       9       9       8       9       9       8       9
       9       8       9       9       8       9       9       8       9       9
       8       9       9       8       9       9       8       9       9       8
       9       9       8       9       9       8       9       9       8       9
       9       8       9       9       8       9       9       8       9       9
       8       9       9       8       9       9       8       9       9       8
       9       9       8       9       9       8       9       9       8       9
       9       8       9       9       8       9       9       8       9       9
       8       9       9       8       9       9       8       9       9       8
       9       9       8       9       9       8       9       9       8       9
       9       8       9       9       8       9       9       8       9       9
       8       9       9       8       9       9       8       9       9       8
       9       9       8       9       9       8       9       9       8       9
       9       8       9       9       8       9       9       8       9       9
       8       9       9       8       9       9       8       9       9       8
       9       9       8       9       9       8       9       9       8       9
       9       8       9       9       8       9       9       8       9       9
       8       9       9       8       9       9       8       9       9       8
       9       9       8       9       9       8       9       9       8       9
       9       8       9       9       8       9       9       8       9       9
       8       9       9       8       9       9       8       9       9       8
       9       9       8       9       9       8       9       9       8       9
       9       8       9       9       8       9       9       8       9       9
       8       9       9       8       9       9       8       9       9       8
       9       9       8       9       9       8       9       9       8       9
       9       8       9       9       8       9       9       8       9       9
       8       9       9       8       9       9       8       9       9       8
       9       9       8       9       9       8       9       9       8       9
       9       8       9       9       8       9       9       8       9       9
       8       9       9       8       9       9       8       9       9       8
       9       9       8       9       9       8       9       9       8       9
       9       8       9       9       8       9       9       8       9       9
       8       9       9       8       9       9       8       9       9       8
       9       9       8       9       9       8       9       9       8       9
       9       8       9       9       8       9       9       8       9       9
       8       9       9       8       9       9       8       9       9       8
       9       9       8       9       9       8       9       9       8       9
       9       8       9       9       8       9       9       8       9       9
       8       9       9       8       9       9       8       9       9       8
       9       9       8       9       9       8       9       9       8       9
       9       8       9       9       8       9       9       8       9       9
       8       9       9       8       9       9       8       9       9       8
       9       9       8       9       9       8       9       9       8       9
       9       8       9       9       8       9       9       8       9       9
       8       9       9       8       9       9       8       9       9       8
       9       9       8       9       9       8       9       9       8       9
       9       8       9       9       8       9       9       8       9       9
       8       9       9       8       9       9       8       9       9       8
       9       9       8       9       9       8       9       9       8       9
       9       8       9       9       8       9       9       8       9       9
       8       9       9       8       9       9       8       9       9       8
       9       9       8       9       9       8       9       9       8       9
       9       8       9       9       8       9       9       8       9       9
       8       9       9       8       9       9       8       9       9       8
       9       9       8       9       9       8       9       9       8       9
       9       8       9       9       8       9       9       8       9       9
       8       9       9       8       9       9       8       9       9       8
       9       9       8       9       9       8       9       9       8       9
       9       8       9       9       8       9       9       8       9       9
       8       9       9       8       9       9       8       9       9       8
       9       9       8       9       9       8       9       9       8       9
       9       8       9       9       8       9       9       8       9       9
       8       9       9       8       9       9       8       9       9       8
       9       9       8       9       9       8       9       9       8       9
       9       8       9       9       8       9       9       8       9       9
       8       9       9       8       9       9       8       9       9       8
       9       9       8       9       9       8       9       9       8       9
       9       8       9       9       8       9       9       8       9       9
       8       9       9       8       9       9       8       9       9       8
       9       9       8       9       9       8       9       9       8       9
       9       8       9       9       8       9       9       8       9       9
       8       9       9       8       9       9       8       9       9       8
       9       9       8       9       9       8       9       9       8       9
       9       8       9       9       8       9       9       8       9       9
       8       9       9       8       9       9       8       9       9       8
       9       9       8       9       9       8       9       9       8       9
       9       8       9       9       8       9       9       8       9       9
       8       9       9       8       9       9       8       9       9       8
       9       9       8       9       9       8       9       9       8       9
       9       8       9       9       8       9       9       8       9       9
       8       9       9       8       9       9       8       9       9       8
       9       9       8       9       9       8       9       9       8       9
       9       8       9       9       8       9       9       8       9       9
       8       9       9       8       9       9       8       9       9       8
       9       9       8       9       9       8       9       9       8       9
       9       8       9       9       8       9       9       8       9       9
       8       9       9       8       9       9       8       9       9       8
       9       9       8       9       9       8       9       9       8       9
       9       8       9       9       8       9       9       8       9       9
       8       9       9       8       9       9       8       9       9       8
       9       9       8       9       9       8       9       9       8       9
       9       8       9       9       8       9       9       8       9       9
       8       9       9       8       9       9       8       9       9       8
       9       9       8       9       9       8       9       9       8       9
       9       8       9       9       8       9       9       8       9       9
       8       9       9       8       9       9       8       9       9       8
       9       9       8       9       9       8       9       9       8       9
       9       8       9       9       8       9       9       8       9       9
       8       9       9       8       9       9       8       9       9       8
       9       9       8       9       9       8       9       9       8       9
       9       8       9       9       8       9       9       8       9       9
       8       9       9       8       9       9       8       9       9       8
       9       9       8       9       9       8       9       9       8       9
       9       8       9       9       8       9       9       8       9       9
       8       9       9       8       9       9       8       9       9       8
       9       9       8       9       9       8       9       9       8       9
       9       8       9       9       8       9       9       8       9       9
       8       9       9       8       9       9       8       9       9       8
       9       9       8       9       9       8       9       9       8       9
       9       8       9       9       8       9       9       8       9       9
       8       9       9       8       9       9       8       9       9       8
       9       9       8       9       9       8       9       9       8       9
       9       8       9       9       8       9       9       8       9       9
       8       9       9       8       9       9       8       9       9       8
       9       9       8       9       9       8       9       9       8       9
       9       8       9       9       8       9       9       8       9       9
       8       9       9       8       9       9       8       9       9       8
       9       9       8       9       9       8       9       9       8       9
       9       8       9       9       8       9       9       8       9       9
       8       9       9       8       9       9       8       9       9       8
       9       9       8       9       9       8       9       9       8       9
       9       8       9       9       8       9       9       8       9       9
       8       9       9       8       9       9       8       9       9       8
       9       9       8       9       9       8       9       9       8       9
       9       8       9       9       8       9       9       8       9       9
       8       9       9       8       9       9       8       9       9       8
       9       9       8       9       9       8       9       9       8       9
       9       8       9       9       8       9       9       8       9       9
       8       9       9       8       9       9       8       9       9       8
       9       9       8       9       9       8       9       9       8       9
       9       8       9       9       8       9       9       8       9       9
       8       9       9       8       9       9       8       9       9       8
       9       9       8       9       9       8       9       9       8       9
       9       8       9       9       8       9       9       8       9       9
       8       9       9       8       9       9       8       9       9       8
       9       9       8       9       9       8       9       9       8       9
       9       8       9       9       8       9       9       8       9       9
       8       9       9       8       9       9       8       9       9       8
       9       9       8       9       9       8       9       9       8       9
       9       8       9       9       8       9       9       8       9       9
       8       9       9       8       9       9       8       9       9       8
       9       9       8       9       9       8       9       9       8       9
       9       8       9       9       8       9       9       8       9       9
       8       9       9       8       9       9       8       9       9       8
       9       9       8       9       9       8       9       9       8       9
       9       8       9       9       8       9       9       8       9       9
       8       9       9       8       9       9       8       9       9       8
       9       9       8       9       9       8       9       9       8       9
       9       8       9       9       8       9       9       8       9       9
       8       9       9       8       9       9       8       9       9       8
       9       9       8       9       9       8       9       9       8       9
       9       8       9       9       8       9       9       8       9       9
       8       9       9       8       9       9       8       9       9       8
       9       9       8       9       9       8       9       9       8       9
       9       8       9       9       8       9       9       8       9       9
       8       9       9       8       9       9       8       9       9       8
       9       9       8       9       9       8       9       9       8       9
       9       8       9       9       8       9       9       8       9       9
       8       9       9       8       9       9       8       9       9       8
       9       9       8       9       9       8       9       9       8       9
       9       8       9       9       8       9       9       8       9       9
       8       9       9       8       9       9       8       9       9       8
       9       9       8       9       9       8       9       9       8       9
       9       8       9       9       8       9       9       8       9       9
       8       9       9       8       9       9       8       9       9       8
       9       9       8       9       9       8       9       9       8       9
       9       8       9       9       8       9       9       8       9       9
       8       9       9       8       9       9       8       9       9       8
       9       9       8       9       9       8       9       9       8       9
       9       8       9       9       8       9       9       8       9       9
       8       9       9       8       9       9       8       9       9       8
       9       9       8       9       9       8       9       9       8       9
       9       8       9       9       8       9       9       8       9       9
       8       9       9       8       9       9       8       9       9       8
       9       9       8       9       9       8       9       9       8       9
       9       8       9       9       8       9       9       8       9       9
       8       9       9       8       9       9       8       9       9       8
       9       9       8       9       9       8       9       9       8       9
       9       8       9       9       8       9       9       8       9       9
       8       9       9       8       9       9       8       9       9       8
       9       9       8       9       9       8       9       9       8       9
       9       8       9       9       8       9       9       8       9       9
       8       9       9       8       9       9       8       9       9       8
       9       9       8       9       9       8       9       9       8       9
       9       8       9       9       8       9       9       8       9       9
       8       9       9       8       9       9       8       9       9       8
       9       9       8       9       9       8       9       9       8       9
       9       8       9       9       8       9       9       8       9       9
       8       9       9       8       9       9       8       9       9       8
       9       9       8       9       9       8       9       9       8       9
       9       8       9       9       8       9       9       8       9       9
       8       9       9       8       9       9       8       9       9       8
       9       9       8       9       9       8       9       9       8       9
       9       8       9       9       8       9       9       8       9       9
       8       9       9       8       9       9       8       9       9       8
       9       9       8       9       9       8       9       9       8       9
       9       8       9       9       8       9       9       8       9       9
       8       9       9       8       9       9       8       9       9       8
       9       9       8       9       9       8       9       9       8       9
       9       8       9       9       8       9       9       8       9       9
       8       9       9       8       9       9       8       9       9       8
       9       9       8       9       9       8       9       9       8       9
       9       8       9       9       8       9       9       8       9       9
       8       9       9       8       9       9       8       9       9       8
       9       9       8       9       9       8       9       9       8       9
       9       8       9       9       8       9       9       8       9       9
       8       9       9       8       9       9       8       9       9       8
       9       9       8       9       9       8       9       9       8       9
       9       8       9       9       8       9       9       8       9       9
       8       9       9       8       9       9       8       9       9       8
       9       9       8       9       9       8       9       9       8       9
       9       8       9       9       8       9       9       8       9       9
       8       9       9       8       9       9       8       9       9       8
       9       9       8       9       9       8       9       9       8       9
       9       8       9       9       8       9       9       8       9       9
       8       9       9       8       9       9       8       9       9       8
       9       9       8       9       9       8       9       9       8       9
       9       8       9       9       8       9       9       8       9       9
       8       9       9       8       9       9       8       9       9       8
       9       9       8       9       9       8       9       9       8       9
       9       8       9       9       8       9       9       8       9       9
       8       9       9       8       9       9       8       9       9       8
       9       9       8       9       9       8       9       9       8       9
       9       8       9       9       8       9       9       8       9       9
       8       9       9       8       9       9       8       9       9       8
       9       9       8       9       9       8       9       9       8       9
       9       8       9       9       8       9       9       8       9       9
       8       9       9       8       9       9       8       9       9       8
       9       9       8       9       9       8       9       9       8       9
       9       8       9       9       8       9       9       8       9       9
       8       9       9       8       9       9       8       9       9       8
       9       9       8       9       9       8       9       9       8       9
       9       8       9       9       8       9       9       8       9       9
       8       9       9       8       9       9       8       9       9       8
       9       9       8       9       9       8       9       9       8       9
       9       8       9       9       8       9       9       8       9       9
       8       9       9       8       9       9       8       9       9       8
       9       9       8       9       9       8       9       9       8       9
       9       8       9       9       8       9       9       8       9       9
       8       9       9       8       9       9       8       9       9       8
       9       9       8       9       9       8       9       9       8       9
       9       8       9       9       8       9       9       8       9       9
       8       9       9       8       9       9       8       9       9       8
       9       9       8       9       9       8       9       9       8       9
       9       8       9       9       8       9       9       8       9       9
       8       9       9       8       9       9       8       9       9       8
       9       9       8       9       9       8       9       9       8       9
       9       8       9       9       8       9       9       8       9       9
       8       9       9       8       9       9       8       9       9       8
       9       9       8       9       9       8       9       9       8       9
       9       8       9       9       8       9       9       8       9       9
       8       9       9       8       9       9       8       9       9       8
       9       9       8       9       9       8       9       9       8       9
       9       8       9       9       8       9       9       8       9       9
       8       9       9       8       9       9       8       9       9       8
       9       9       8       9       9       8       9       9       8       9
       9       8       9       9       8       9       9       8       9       9
       8       9       9       8       9       9       8       9       9       8
       9       9       8       9       9       8       9       9       8       9
       9       8       9       9       8       9       9       8       9       9
       8       9       9       8       9       9       8       9       9       8
       9       9       8       9       9       8       9       9       8       9
       9       8       9       9       8       9       9       8       9       9
       8       9       9       8       9       9       8       9       9       8
       9       9       8       9       9       8       9       9       8       9
       9       8       9       9       8       9       9       8       9       9
       8       9       9       8       9       9       8       9       9       8
       9       9       8       9       9       8       9       9       8       9
       9       8       9       9       8       9       9       8       9       9
       8       9       9       8       9       9       8       9       9       8
       9       9       8       9       9       8       9       9       8       9
       9       8       9       9       8       9       9       8       9       9
       8       9       9       8       9       9       8       9       9       8
       9       9       8       9       9       8       9       9       8       9
       9       8       9       9       8       9       9       8       9       9
       8       9       9       8       9       9       8       9       9       8
       9       9       8       9       9       8       9       9       8       9
       9       8       9       9       8       9       9       8       9       9
       8       9       9       8       9       9       8       9       9       8
       9       9       8       9       9       8       9       9       8       9
       9       8       9       9       8       9       9       8       9       9
       8       9       9       8       9       9       8       9       9       8
       9       9       8       9       9       8       9       9       8       9
       9       8       9       9       8       9       9       8       9       9
       8       9       9       8       9       9       8       9       9       8
       9       9       8       9       9       8       9       9       8       9
       9       8       9       9       8       9       9       8       9       9
       8       9       9       8       9       9       8       9       9       8
       9       9       8       9       9       8       9       9       8       9
       9       8       9       9       8       9       9       8       9       9
       8       9       9       8       9       9       8       9       9       8
       9       9       8       9       9       8       9       9       8       9
       9       8       9       9       8       9       9       8       9       9
       8       9       9       8       9       9       8       9       9       8
       9       9       8       9       9       8       9       9       8       9
       9       8       9       9       8       9       9       8       9       9
       8       9       9       8       9       9       8       9       9       8
       9       9       8       9       9       8       9       9       8       9
       9       8       9       9       8       9       9       8       9       9
       8       9       9       8       9       9       8       9       9       8
       9       9       8       9       9       8       9       9       8       9
       9       8       9       9       8       9       9       8       9       9
       8       9       9       8       9       9       8       9       9       8
       9       9       8       9       9       8       9       9       8       9
       9       8       9       9       8       9       9       8       9       9
       8       9       9       8       9       9       8       9       9       8
       9       9       8       9       9       8       9       9       8       9
       9       8       9       9       8       9       9       8       9       9
       8       9       9       8       9       9       8       9       9       8
       9       9       8       9       9       8       9       9       8       9
       9       8       9       9       8       9       9       8       9       9
       8       9       9       8       9       9       8       9       9       8
       9       9       8       9       9       8       9       9       8       9
       9       8       9       9       8       9       9       8       9       9
       8       9       9       8       9       9       8       9       9       8
       9       9       8       9       9       8       9       9       8       9
       9       8       9       9       8       9       9       8       9       9
       8       9       9       8       9       9       8       9       9       8
       9       9       8       9       9       8       9       9       8       9
       9       8       9       9       8       9       9       8       9       9
       8       9       9       8       9       9       8       9       9       8
       9       9       8       9       9       8       9       9       8       9
       9       8       9       9       8       9       9       8       9       9
       8       9       9       8       9       9       8       9       9       8
       9       9       8       9       9       8       9       9       8       9
       9       8       9       9       8       9       9       8       9       9
       8       9       9       8       9       9       8       9       9       8
       9       9       8       9       9       8       9       9       8       9
       9       8       9       9       8       9       9       8       9       9
       8       9       9       8       9       9       8       9       9       8
       9       9       8       9       9       8       9       9       8       9
       9       8       9       9       8       9       9       8       9       9
       8       9       9       8       9       9       8       9       9       8
       9       9       8       9       9       8       9       9       8       9
       9       8       9       9       8       9       9       8       9       9
       8       9       9       8       9       9       8       9       9       8
       9       9       8       9       9       8       9       9       8       9
       9       8       9       9       8       9       9       8       9       9
       8       9       9       8       9       9       8       9       9       8
       9       9       8       9       9       8       9       9       8       9
       9       8       9       9       8       9       9       8       9       9
       8       9       9       8       9       9       8       9       9       8
       9       9       8       9       9       8       9       9       8       9
       9       8       9       9       8       9       9       8       9       9
       8       9       9       8       9       9       8       9       9       8
       9       9       8       9       9       8       9       9       8       9
       9       8       9       9       8       9       9       8       9       9
       8       9       9       8       9       9       8       9       9       8
       9       9       8       9       9       8       9       9       8       9
       9       8       9       9       8       9       9       8       9       9
       8       9       9       8       9       9       8       9       9       8
       9       9       8       9       9       8       9       9       8       9
       9       8       9       9       8       9       9       8       9       9
       8       9       9       8       9       9       8       9       9       8
       9       9       8       9       9       8       9       9       8       9
       9       8       9       9       8       9       9       8       9       9
       8       9       9       8       9       9       8       9       9       8
       9       9       8       9       9       8       9       9       8       9
       9       8       9       9       8       9       9       8       9       9
       8       9       9       8       9       9       8       9       9       8
       9       9       8       9       9       8       9       9       8       9
       9       8       9       9       8       9       9       8       9       9
       8       9       9       8       9       9       8       9       9       8
       9       9       8       9       9       8       9       9       8       9
       9       8       9       9       8       9       9       8       9       9
       8       9       9       8       9       9       8       9       9       8
       9       9       8       9       9       8       9       9       8       9
       9       8       9       9       8       9       9       8       9       9
       8       9       9       8       9       9       8       9       9       8
       9       9       8       9       9       8       9       9       8       9
       9       8       9       9       8       9       9       8       9       9
       8       9       9       8       9       9       8       9       9       8
       9       9       8       9       9       8       9       9       8       9
       9       8       9       9       8       9       9       8       9       9
       8       9       9       8       9       9       8       9       9       8
       9       9       8       9       9       8       9       9       8       9
       9       8       9       9       8       9       9       8       9       9
       8       9       9       8       9       9       8       9       9       8
       9       9       8       9       9       8       9       9       8       9
       9       8       9       9       8       9       9       8       9       9
       8       9       9       8       9       9       8       9       9       8
       9       9       8       9       9       8       9       9       8       9
       9       8       9       9       8       9       9       8       9       9
       8       9       9       8       9       9       8       9       9       8
       9       9       8       9       9       8       9       9       8       9
       9       8       9       9       8       9       9       8       9       9
       8       9       9       8       9       9       8       9       9       8
       9       9       8       9       9       8       9       9       8       9
       9       8       9       9       8       9       9       8       9       9
       8       9       9       8       9       9       8       9       9       8
       9       9       8       9       9       8       9       9       8       9
       9       8       9       9       8       9       9       8       9       9
       8       9       9       8       9       9       8       9       9       8
       9       9       8       9       9       8       9       9       8       9
       9       8       9       9       8       9       9       8       9       9
       8       9       9       8       9       9       8       9       9       8
       9       9       8       9       9       8       9       9       8       9
       9       8       9       9       8       9       9       8       9       9
       8       9       9       8       9       9       8       9       9       8
       9       9       8       9       9       8       9       9       8       9
       9       8       9       9       8       9       9       8       9       9
       8       9       9       8       9       9       8       9       9       8
       9       9       8       9       9       8       9       9       8       9
       9       8       9       9       8       9       9       8       9       9
       8       9       9       8       9       9       8       9       9       8
       9       9       8       9       9       8       9       9       8       9
       9       8       9       9       8       9       9       8       9       9
       8       9       9       8       9       9       8       9       9       8
       9       9       8       9       9       8       9       9       8       9
       9       8       9       9       8       9       9       8       9       9
       8       9       9       8       9       9       8       9       9       8
       9       9       8       9       9       8       9       9       8       9
       9       8       9       9       8       9       9       8       9       9
       8       9       9       8       9       9       8       9       9       8
       9       9       8       9       9       8       9       9       8       9
       9       8       9       9       8       9       9       8       9       9
       8       9       9       8       9       9       8       9       9       8
       9       9       8       9       9       8       9       9       8       9
       9       8       9       9       8       9       9       8       9       9
       8       9       9       8       9       9       8       9       9       8
       9       9       8       9       9       8       9       9       8       9
       9       8       9       9       8       9       9       8       9       9
       8       9       9       8       9       9       8       9       9       8
       9       9       8       9       9       8       9       9       8       9
       9       8       9       9       8       9       9       8       9       9
       8       9       9       8       9       9       8       9       9       8
       9       9       8       9       9       8       9       9       8       9
       9       8       9       9       8       9       9       8       9       9
       8       9       9       8       9       9       8       9       9       8
       9       9       8       9       9       8       9       9       8       9
       9       8       9       9       8       9       9       8       9       9
       8       9       9       8       9       9       8       9       9       8
       9       9       8       9       9       8       9       9       8       9
       9       8       9       9       8       9       9       8       9       9
       8       9       9       8       9       9       8       9       9       8
       9       9       8       9       9       8       9       9       8       9
       9       8       9       9       8       9       9       8       9       9
       8       9       9       8       9       9       8       9       9       8
       9       9       8       9       9       8       9       9       8       9
       9       8       9       9       8       9       9       8       9       9
       8       9       9       8       9       9       8       9       9       8
       9       9       8       9       9       8       9       9       8       9
       9       8       9       9       8       9       9       8       9       9
       8       9       9       8       9       9       8       9       9       8
       9       9       8       9       9       8       9       9       8       9
       9       8       9       9       8       9       9       8       9       9
       8       9       9       8       9       9       8       9       9       8
       9       9       8       9       9       8       9       9       8       9
       9       8       9       9       8       9       9       8       9       9
       8       9       9       8       9       9       8       9       9       8
       9       9       8       9       9       8       9       9       8       9
       9       8       9       9       8       9       9       8       9       9
       8       9       9       8       9       9       8       9       9       8
       9       9       8       9       9       8       9       9       8       9
       9       8       9       9       8       9       9       8       9       9
       8       9       9       8       9       9       8       9       9       8
       9       9       8       9       9       8       9       9       8       9
       9       8       9       9       8       9       9       8       9       9
       8       9       9       8       9       9       8       9       9       8
       9       9       8       9       9       8       9       9       8       9
       9       8       9       9       8       9       9       8       9       9
       8       9       9       8       9       9       8       9       9       8
       9       9       8       9       9       8       9       9       8       9
       9       8       9       9       8       9       9       8       9       9
       8       9       9       8       9       9       8       9       9       8
       9       9       8       9       9       8       9       9       8       9
       9       8       9       9       8       9       9       8       9       9
       8       9       9       8       9       9       8       9       9       8
       9       9       8       9       9       8       9       9       8       9
       9       8       9       9       8       9       9       8       9       9
       8       9       9       8       9       9       8       9       9       8
       9       9       8       9       9       8       9       9       8       9
       9       8       9       9       8       9       9       8       9       9
       8       9       9       8       9       9       8       9       9       8
       9       9       8       9       9       8       9       9       8       9
       9       8       9       9       8       9       9       8       9       9
       8       9       9       8       9       9       8       9       9       8
       9       9       8       9       9       8       9       9       8       9
       9       8       9       9       8       9       9       8       9       9
       8       9       9       8       9       9       8       9       9       8
       9       9       8       9       9       8       9       9       8       9
       9       8       9       9       8       9       9       8       9       9
       8       9       9       8       9       9       8       9       9       8
       9       9       8       9       9       8       9       9       8       9
       9       8       9       9       8       9       9       8       9       9
       8       9       9       8       9       9       8       9       9       8
       9       9       8       9       9       8       9       9       8       9
       9       8       9       9       8       9       9       8       9       9
       8       9       9       8       9       9       8       9       9       8
       9       9       8       9       9       8       9       9       8       9
       9       8       9       9       8       9       9       8       9       9
       8       9       9       8       9       9       8       9       9       8
       9       9       8       9       9       8       9       9       8       9
       9       8       9       9       8       9       9       8       9       9
       8       9       9       8       9       9       8       9       9       8
       9       9       8       9       9       8       9       9       8       9
       9       8       9       9       8       9       9       8       9       9
       8       9       9       8       9       9       8       9       9       8
       9       9       8       9       9       8       9       9       8       9
       9       8       9       9       8       9       9       8       9       9
       8       9       9       8       9       9       8       9       9       8
       9       9       8       9       9       8       9       9       8       9
       9       8       9       9       8       9       9       8       9       9
       8       9       9       8       9       9       8       9       9       8
       9       9       8       9       9       8       9       9       8       9
       9       8       9       9       8       9       9       8       9       9
       8       9       9       8       9       9       8       9       9       8
       9       9       8       9       9       8       9       9       8       9
       9       8       9       9       8       9       9       8       9       9
       8       9       9       8       9       9       8       9       9       8
       9       9       8       9       9       8       9       9       8       9
       9       8       9       9       8       9       9       8       9       9
       8       9       9       8       9       9       8       9       9       8
       9       9       8       9       9       8       9       9       8       9
       9       8       9       9       8       9       9       8       9       9
       8       9       9       8       9       9       8       9       9       8
       9       9       8       9       9       8       9       9       8       9
       9       8       9       9       8       9       9       8       9       9
       8       9       9       8       9       9       8       9       9       8
       9       9       8       9       9       8       9       9       8       9
       9       8       9       9       8       9       9       8       9       9
       8       9       9       8       9       9       8       9       9       8
       9       9       8       9       9       8       9       9       8       9
       9       8       9       9       8       9       9       8       9       9
       8       9       9       8       9       9       8       9       9       8
       9       9       8       9       9       8       9       9       8       9
       9       8       9       9       8       9       9       8       9       9
       8       9       9       8       9       9       8       9       9       8
       9       9       8       9       9       8       9       9       8       9
       9       8       9       9       8       9       9       8       9       9
       8       9       9       8       9       9       8       9       9       8
       9       9       8       9       9       8       9       9       8       9
       9       8       9       9       8       9       9       8       9       9
       8       9       9       8       9       9       8       9       9       8
       9       9       8       9       9       8       9       9       8       9
       9       8       9       9       8       9       9       8       9       9
       8       9       9       8       9       9       8       9       9       8
       9       9       8       9       9       8       9       9       8       9
       9       8       9       9       8       9       9       8       9       9
       8       9       9       8       9       9       8       9       9       8
       9       9       8       9       9       8       9       9       8       9
       9       8       9       9       8       9       9       8       9       9
       8       9       9       8       9       9       8       9       9       8
       9       9       8       9       9       8       9       9       8       9
       9       8       9       9       8       9       9       8       9       9
       8       9       9       8       9       9       8       9       9       8
       9       9       8       9       9       8       9       9       8       9
       9       8       9       9       8       9       9       8       9       9
       8       9       9       8       9       9       8       9       9       8
       9       9       8       9       9       8       9       9       8       9
       9       8       9       9       8       9       9       8       9       9
       8       9       9       8       9       9       8       9       9       8
       9       9       8       9       9       8       9       9       8       9
       9       8       9       9       8       9       9       8       9       9
       8       9       9       8       9       9       8       9       9       8
       9       9       8       9       9       8       9       9       8       9
       9       8       9       9       8       9       9       8       9       9
       8       9       9       8       9       9       8       9       9       8
       9       9       8       9       9       8       9       9       8       9
       9       8       9       9       8       9       9       8       9       9
       8       9       9       8       9       9       8       9       9       8
       9       9       8       9       9       8       9       9       8       9
       9       8       9       9       8       9       9       8       9       9
       8       9       9       8       9       9       8       9       9       8
       9       9       8       9       9       8       9       9       8       9
       9       8       9       9       8       9       9       8       9       9
       8       9       9       8       9       9       8       9       9       8
       9       9       8       9       9       8       9       9       8       9
       9       8       9       9       8       9       9       8       9       9
       8       9       9       8       9       9       8       9       9       8
       9       9       8       9       9       8       9       9       8       9
       9       8       9       9       8       9       9       8       9       9
       8       9       9       8       9       9       8       9       9       8
       9       9       8       9       9       8       9       9       8       9
       9       8       9       9       8       9       9       8       9       9
       8       9       9       8       9       9       8       9       9       8
       9       9       8       9       9       8       9       9       8       9
       9       8       9       9       8       9       9       8       9       9
       8       9       9       8       9       9       8       9       9       8
       9       9       8       9       9       8       9       9       8       9
       9       8       9       9       8       9       9       8       9       9
       8       9       9       8       9       9       8       9       9       8
       9       9       8       9       9       8       9       9       8       9
       9       8       9       9       8       9       9       8       9       9
       8       9       9       8       9       9       8       9       9       8
       9       9       8       9       9       8       9       9       8       9
       9       8       9       9       8       9       9       8       9       9
       8       9       9       8       9       9       8       9       9       8
       9       9       8       9       9       8       9       9       8       9
       9       8       9       9       8       9       9       8       9       9
       8       9       9       8       9       9       8       9       9       8
       9       9       8       9       9       8       9       9       8       9
       9       8       9       9       8       9       9       8       9       9
       8       9       9       8       9       9       8       9       9       8
       9       9       8       9       9       8       9       9       8       9
       9       8       9       9       8       9       9       8       9       9
       8       9       9       8       9       9       8       9       9       8
       9       9       8       9       9       8       9       9       8       9
       9       8       9       9       8       9       9       8       9       9
       8       9       9       8       9       9       8       9       9       8
       9       9       8       9       9       8       9       9       8       9
       9       8       9       9       8       9       9       8       9       9
       8       9       9       8       9       9       8       9       9       8
       9       9       8       9       9       8       9       9       8       9
       9       8       9       9       8       9       9       8       9       9
       8       9       9       8       9       9       8       9       9       8
       9       9       8       9       9       8       9       9       8       9
       9       8       9       9       8       9       9       8       9       9
       8       9       9       8       9       9       8       9       9       8
       9       9       8       9       9       8       9       9       8       9
       9       8       9       9       8       9       9       8       9       9
       8       9       9       8       9       9       8       9       9       8
       9       9       8       9       9       8       9       9       8       9
       9       8       9       9       8       9       9       8       9       9
       8       9       9       8       9       9       8       9       9       8
       9       9       8       9       9       8       9       9       8       9
       9       8       9       9       8       9       9       8       9       9
       8       9       9       8       9       9       8       9       9       8
       9       9       8       9       9       8       9       9       8       9
       9       8       9       9       8       9       9       8       9       9
       8       9       9       8       9       9       8       9       9       8
       9       9       8       9       9       8       9       9       8       9
       9       8       9       9       8       9       9       8       9       9
       8       9       9       8       9       9       8       9       9       8
       9       9       8       9       9       8       9       9       8       9
       9       8       9       9       8       9       9       8       9       9
       8       9       9       8       9       9       8       9       9       8
       9       9       8       9       9       8       9       9       8       9
       9       8       9       9       8       9       9       8       9       9
       8       9       9       8       9       9       8       9       9       8
       9       9       8       9       9       8       9       9       8       9
       9       8       9       9       8       9       9       8       9       9
       8       9       9       8       9       9       8       9       9       8
       9       9       8       9       9       8       9       9       8       9
       9       8       9       9       8       9       9       8       9       9
       8       9       9       8       9       9       8       9       9       8
       9       9       8       9       9       8       9       9       8       9
       9       8       9       9       8       9       9       8       9       9
       8       9       9       8       9       9       8       9       9       8
       9       9       8       9       9       8       9       9       8       9
       9       8       9       9       8       9       9       8       9       9
       8       9       9       8       9       9       8       9       9       8
       9       9       8       9       9       8       9       9       8       9
       9       8       9       9       8       9       9       8       9       9
       8       9       9       8       9       9       8       9       9       8
       9       9       8       9       9       8       9       9       8       9
       9       8       9       9       8       9       9       8       9       9
       8       9       9       8       9       9       8       9       9       8
       9       9       8       9       9       8       9       9       8       9
       9       8       9       9       8       9       9       8       9       9
       8       9       9       8       9       9       8       9       9       8
       9       9       8       9       9       8       9       9       8       9
       9       8       9       9       8       9       9       8       9       9
       8       9       9       8       9       9       8       9       9       8
       9       9       8       9       9       8       9       9       8       9
       9       8       9       9       8       9       9       8       9       9
       8       9       9       8       9       9       8       9       9       8
       9       9       8       9       9       8       9       9       8       9
       9       8       9       9       8       9       9       8       9       9
       8       9       9       8       9       9       8       9       9       8
       9       9       8       9       9       8       9       9       8       9
       9       8       9       9       8       9       9       8       9       9
       8       9       9       8       9       9       8       9       9       8
       9       9       8       9       9       8       9       9       8       9
       9       8       9       9       8       9       9       8       9       9
       8       9       9       8       9       9       8       9       9       8
       9       9       8       9       9       8       9       9       8       9
       9       8       9       9       8       9       9       8       9       9
       8       9       9       8       9       9       8       9       9       8
       9       9       8       9       9       8       9       9       8       9
       9       8       9       9       8       9       9       8       9       9
       8       9       9       8       9       9       8       9       9       8
       9       9       8       9       9       8       9       9       8       9
       9       8       9       9       8       9       9       8       9       9
       8       9       9       8       9       9       8       9       9       8
       9       9       8       9       9       8       9       9       8       9
       9       8       9       9       8       9       9       8       9       9
       8       9       9       8       9       9       8       9       9       8
       9       9       8       9       9       8       9       9       8       9
       9       8       9       9       8       9       9       8       9       9
       8       9       9       8       9       9       8       9       9       8
       9       9       8       9       9       8       9       9       8       9
       9       8       9       9       8       9       9       8       9       9
       8       9       9       8       9       9       8       9       9       8
       9       9       8       9       9       8       9       9       8       9
       9       8       9       9       8       9       9       8       9       9
       8       9       9       8       9       9       8       9       9       8
       9       9       8       9       9       8       9       9       8       9
       9       8       9       9       8       9       9       8       9       9
       8       9       9       8       9       9       8       9       9       8
       9       9       8       9       9       8       9       9       8       9
       9       8       9       9       8       9       9       8       9       9
       8       9       9       8       9       9       8       9       9       8
       9       9       8       9       9       8       9       9       8       9
       9       8       9       9       8       9       9       8       9       9
       8       9       9       8       9       9       8       9       9       8
       9       9       8       9       9       8       9       9       8       9
       9       8       9       9       8       9       9       8       9       9
       8       9       9       8       9       9       8       9       9       8
       9       9       8       9       9       8       9       9       8       9
       9       8       9       9       8       9       9       8       9       9
       8       9       9       8       9       9       8       9       9       8
       9       9       8       9       9       8       9       9       8       9
       9       8       9       9       8       9       9       8       9       9
       8       9       9       8       9       9       8       9       9       8
       9       9       8       9       9       8       9       9       8       9
       9       8       9       9       8       9       9       8       9       9
       8       9       9       8       9       9       8       9       9       8
       9       9       8       9       9       8       9       9       8       9
       9       8       9       9       8       9       9       8       9       9
       8       9       9       8       9       9       8       9       9       8
       9       9       8       9       9       8       9       9       8       9
       9       8       9       9       8       9       9       8       9       9
       8       9       9       8       9       9       8       9       9       8
       9       9       8       9       9       8       9       9       8       9
       9       8       9       9       8       9       9       8       9       9
       8       9       9       8       9       9       8       9       9       8
       9       9       8       9       9       8       9       9       8       9
       9       8       9       9       8       9       9       8       9       9
       8       9       9       8       9       9       8       9       9       8
       9       9       8       9       9       8       9       9       8       9
       9       8       9       9       8       9       9       8       9       9
       8       9       9       8       9       9       8       9       9       8
       9       9       8       9       9       8       9       9       8       9
       9       8       9       9       8       9       9       8       9       9
       8       9       9       8       9       9       8       9       9       8
       9       9       8       9       9       8       9       9       8       9
       9       8       9       9       8       9       9       8       9       9
       8       9       9       8       9       9       8       9       9       8
       9       9       8       9       9       8       9       9       8       9
       9       8       9       9       8       9       9       8       9       9
       8       9       9       8       9       9       8       9       9       8
       9       9       8       9       9       8       9       9       8       9
       9       8       9       9       8       9       9       8       9       9
       8       9       9       8       9       9       8       9       9       8
       9       9       8       9       9       8       9       9       8       9
       9       8       9       9       8       9       9       8       9       9
       8       9       9       8       9       9       8       9       9       8
       9       9       8       9       9       8       9       9       8       9
       9       8       9       9       8       9       9       8       9       9
       8       9       9       8       9       9       8       9       9       8
       9       9       8       9       9       8       9       9       8       9
       9       8       9       9       8       9       9       8       9       9
       8       9       9       8       9       9       8       9       9       8
       9       9       8       9       9       8       9       9       8       9
       9       8       9       9       8       9       9       8       9       9
       8       9       9       8       9       9       8       9       9       8
       9       9       8       9       9       8       9       9       8       9
       9       8       9       9       8       9       9       8       9       9
       8       9       9       8       9       9       8       9       9       8
       9       9       8       9       9       8       9       9       8       9
       9       8       9       9       8       9       9       8       9       9
       8       9       9       8       9       9       8       9       9       8
       9       9       8       9       9       8       9       9       8       9
       9       8       9       9       8       9       9       8       9       9
       8       9       9       8       9       9       8       9       9       8
       9       9       8       9       9       8       9       9       8       9
       9       8       9       9       8       9       9       8       9       9
       8       9       9       8       9       9       8       9       9       8
       9       9       8       9       9       8       9       9       8       9
       9       8       9       9       8       9       9       8       9       9
       8       9       9       8       9       9       8       9       9       8
       9       9       8       9       9       8       9       9       8       9
       9       8       9       9       8       9       9       8       9       9
       8       9       9       8       9       9       8       9       9       8
       9       9       8       9       9       8       9       9       8       9
       9       8       9       9       8       9       9       8       9       9
       8       9       9       8       9       9       8       9       9       8
       9       9       8       9       9       8       9       9       8       9
       9       8       9       9       8       9       9       8       9       9
       8       9       9       8       9       9       8       9       9       8
       9       9       8       9       9       8       9       9       8       9
       9       8       9       9       8       9       9       8       9       9
       8       9       9       8       9       9       8       9       9       8
       9       9       8       9       9       8       9       9       8       9
       9       8       9       9       8       9       9       8       9       9
       8       9       9       8       9       9       8       9       9       8
       9       9       8       9       9       8       9       9       8       9
       9       8       9       9       8       9       9       8       9       9
       8       9       9       8       9       9       8       9       9       8
       9       9       8       9       9       8       9       9       8       9
       9       8       9       9       8       9       9       8       9       9
       8       9       9       8       9       9       8       9       9       8
       9       9       8       9       9       8       9       9       8       9
       9       8       9       9       8       9       9       8       9       9
       8       9       9       8       9       9       8       9       9       8
       9       9       8       9       9       8       9       9       8       9
       9       8       9       9       8       9       9       8       9       9
       8       9       9       8       9       9       8       9       9       8
       9       9       8       9       9       8       9       9       8       9
       9       8       9       9       8       9       9       8       9       9
       8       9       9       8       9       9       8       9       9       8
       9       9       8       9       9       8       9       9       8       9
       9       8       9       9       8       9       9       8       9       9
       8       9       9       8       9       9       8       9       9       8
       9       9       8       9       9       8       9       9       8       9
       9       8       9       9       8       9       9       8       9       9
       8       9       9       8       9       9       8       9       9       8
       9       9       8       9       9       8       9       9       8       9
       9       8       9       9       8       9       9       8       9       9
       8       9       9       8       9       9       8       9       9       8
       9       9       8       9       9       8       9       9       8       9
       9       8       9       9       8       9       9       8       9       9
       8       9       9       8       9       9       8       9       9       8
       9       9       8       9       9       8       9       9       8       9
       9       8       9       9       8       9       9       8       9       9
       8       9       9       8       9       9       8       9       9       8
       9       9       8       9       9       8       9       9       8       9
       9       8       9       9       8       9       9       8       9       9
       8       9       9       8       9       9       8       9       9       8
       9       9       8       9       9       8       9       9       8       9
       9       8       9       9       8       9       9       8       9       9
       8       9       9       8       9       9       8       9       9       8
       9       9       8       9       9       8       9       9       8       9
       9       8       9       9       8       9       9       8       9       9
       8       9       9       8       9       9       8       9       9       8
       9       9       8       9       9       8       9       9       8       9
       9       8       9       9       8       9       9       8       9       9
       8       9       9       8       9       9       8       9       9       8
       9       9       8       9       9       8       9       9       8       9
       9       8       9       9       8       9       9       8       9       9
       8       9       9       8       9       9       8       9       9       8
       9       9       8       9       9       8       9       9       8       9
       9       8       9       9       8       9       9       8       9       9
       8       9       9       8       9       9       8       9       9       8
       9       9       8       9       9       8       9       9       8       9
       9       8       9       9       8       9       9       8       9       9
       8       9       9       8       9       9       8       9       9       8
       9       9       8       9       9       8       9       9       8       9
       9       8       9       9       8       9       9       8       9       9
       8       9       9       8       9       9       8       9       9       8
       9       9       8       9       9       8       9       9       8       9
       9       8       9       9       8       9       9       8       9       9
       8       9       9       8       9       9       8       9       9       8
       9       9       8       9       9       8       9       9       8       9
       9       8       9       9       8       9       9       8       9       9
       8       9       9       8       9       9       8       9       9       8
       9       9       8       9       9       8       9       9       8       9
       9       8       9       9       8       9       9       8       9       9
       8       9       9       8       9       9       8       9       9       8
       9       9       8       9       9       8       9       9       8       9
       9       8       9       9       8       9       9       8       9       9
       8       9       9       8       9       9       8       9       9       8
       9       9       8       9       9       8       9       9       8       9
       9       8       9       9       8       9       9       8       9       9
       8       9       9       8       9       9       8       9       9       8
       9       9       8       9       9       8       9       9       8       9
       9       8       9       9       8       9       9       8       9       9
       8       9       9       8       9       9       8       9       9       8
       9       9       8       9       9       8       9       9       8       9
       9       8       9       9       8       9       9       8       9       9
       8       9       9       8       9       9       8       9       9       8
       9       9       8       9       9       8       9       9       8       9
       9       8       9       9       8       9       9       8       9       9
       8       9       9       8       9       9       8       9       9       8
       9       9       8       9       9       8       9       9       8       9
       9       8       9       9       8       9       9       8       9       9
       8       9       9       8       9       9       8       9       9       8
       9       9       8       9       9       8       9       9       8       9
       9       8       9       9       8       9       9       8       9       9
       8       9       9       8       9       9       8       9       9       8
       9       9       8       9       9       8       9       9       8       9
       9       8       9       9       8       9       9       8       9       9
       8       9       9       8       9       9       8       9       9       8
       9       9       8       9       9       8       9       9       8       9
       9       8       9       9       8       9       9       8       9       9
       8       9       9       8       9       9       8       9       9       8
       9       9       8       9       9       8       9       9       8       9
       9       8       9       9       8       9       9       8       9       9
       8       9       9       8       9       9       8       9       9       8
       9       9       8       9       9       8       9       9       8       9
       9       8       9       9       8       9       9       8       9       9
       8       9       9       8       9       9       8       9       9       8
       9       9       8       9       9       8       9       9       8       9
       9       8       9       9       8       9       9       8       9       9
       8       9       9       8       9       9       8       9       9       8
       9       9       8       9       9       8       9       9       8       9
       9       8       9       9       8       9       9       8       9       9
       8       9       9       8       9       9       8       9       9       8
       9       9       8       9       9       8       9       9       8       9
       9       8       9       9       8       9       9       8       9       9
       8       9       9       8       9       9       8       9       9       8
       9       9       8       9       9       8       9       9       8       9
       9       8       9       9       8       9       9       8       9       9
       8       9       9       8       9       9       8       9       9       8
       9       9       8       9       9       8       9       9       8       9
       9       8       9       9       8       9       9       8       9       9
       8       9       9       8       9       9       8       9       9       8
       9       9       8       9       9       8       9       9       8       9
       9       8       9       9       8       9       9       8       9       9
       8       9       9       8       9       9       8       9       9       8
       9       9       8       9       9       8       9       9       8       9
       9       8       9       9       8       9       9       8       9       9
       8       9       9       8       9       9       8       9       9       8
       9       9       8       9       9       8       9       9       8       9
       9       8       9       9       8       9       9       8       9       9
       8       9       9       8       9       9       8       9       9       8
       9       9       8       9       9       8       9       9       8       9
       9       8       9       9       8       9       9       8       9       9
       8       9       9       8       9       9       8       9       9       8
       9       9       8       9       9       8       9       9       8       9
       9       8       9       9       8       9       9       8       9       9
       8       9       9       8       9       9       8       9       9       8
       9       9       8       9       9       8       9       9       8       9
       9       8       9       9       8       9       9       8       9       9
       8       9       9       8       9       9       8       9       9       8
       9       9       8       9       9       8       9       9       8       9
       9       8       9       9       8       9       9       8       9       9
       8       9       9       8       9       9       8       9       9       8
       9       9       8       9       9       8       9       9       8       9
       9       8       9       9       8       9       9       8       9       9
       8       9       9       8       9       9       8       9       9       8
       9       9       8       9       9       8       9       9       8       9
       9       8       9       9       8       9       9       8       9       9
       8       9       9       8       9       9       8       9       9       8
       9       9       8       9       9       8       9       9       8       9
       9       8       9       9       8       9       9       8       9       9
       8       9       9       8       9       9       8       9       9       8
       9       9       8       9       9       8       9       9       8       9
       9       8       9       9       8       9       9       8       9       9
       8       9       9       8       9       9       8       9       9       8
       9       9       8       9       9       8       9       9       8       9
       9       8       9       9       8       9       9       8       9       9
       8       9       9       8       9       9       8       9       9       8
       9       9       8       9       9       8       9       9       8       9
       9       8       9       9       8       9       9       8       9       9
       8       9       9       8       9       9       8       9       9       8
       9       9       8       9       9       8       9       9       8       9
       9       8       9       9       8       9       9       8       9       9
       8       9       9       8       9       9       8       9       9       8
       9       9       8       9       9       8       9       9       8       9
       9       8       9       9       8       9       9       8       9       9
       8       9       9       8       9       9       8       9       9       8
       9       9       8       9       9       8       9       9       8       9
       9       8       9       9       8       9       9       8       9       9
       8       9       9       8       9       9       8       9       9       8
       9       9       8       9       9       8       9       9       8       9
       9       8       9       9       8       9       9       8       9       9
       8       9       9       8       9       9       8       9       9       8
       9       9       8       9       9       8       9       9       8       9
       9       8       9       9       8       9       9       8       9       9
       8       9       9       8       9       9       8       9       9       8
       9       9       8       9       9       8       9       9       8       9
       9       8       9       9       8       9       9       8       9       9
       8       9       9       8       9       9       8       9       9       8
       9       9       8       9       9       8       9       9       8       9
       9       8       9       9       8       9       9       8       9       9
       8       9       9       8       9       9       8       9       9       8
       9       9       8       9       9       8       9       9       8       9
       9       8       9       9       8       9       9       8       9       9
       8       9       9       8       9       9       8       9       9       8
       9       9       8       9       9       8       9       9       8       9
       9       8       9       9       8       9       9       8       9       9
       8       9       9       8       9       9       8       9       9       8
       9       9       8       9       9       8       9       9       8       9
       9       8       9       9       8       9       9       8       9       9
       8       9       9       8       9       9       8       9       9       8
       9       9       8       9       9       8       9       9       8       9
       9       8       9       9       8       9       9       8       9       9
       8       9       9       8       9       9       8       9       9       8
       9       9       8       9       9       8       9       9       8       9
       9       8       9       9       8       9       9       8       9       9
       8       9       9       8       9       9       8       9       9       8
       9       9       8       9       9       8       9       9       8       9
       9       8       9       9       8       9       9       8       9       9
       8       9       9       8       9       9       8       9       9       8
       9       9       8       9       9       8       9       9       8       9
       9       8       9       9       8       9       9       8       9       9
       8       9       9       8       9       9       8       9       9       8
       9       9       8       9       9       8       9       9       8       9
       9       8       9       9       8       9       9       8       9       9
       8       9       9       8       9       9       8       9       9       8
       9       9       8       9       9       8       9       9       8       9
       9       8       9       9       8       9       9       8       9       9
       8       9       9       8       9       9       8       9       9       8
       9       9       8       9       9       8       9       9       8       9
       9       8       9       9       8       9       9       8       9       9
       8       9       9       8       9       9       8       9       9       8
       9       9       8       9       9       8       9       9       8       9
       9       8       9       9       8       9       9       8       9       9
       8       9       9       8       9       9       8       9       9       8
       9       9       8       9       9       8       9       9       8       9
       9       8       9       9       8       9       9       8       9       9
       8       9       9       8       9       9       8       9       9       8
       9       9       8       9       9       8       9       9       8       9
       9       8       9       9       8       9       9       8       9       9
       8       9       9       8       9       9       8       9       9       8
       9       9       8       9       9       8       9       9       8       9
       9       8       9       9       8       9       9       8       9       9
       8       9       9       8       9       9       8       9       9       8
       9       9       8       9       9       8       9       9       8       9
       9       8       9       9       8       9       9       8       9       9
       8       9       9       8       9       9       8       9       9       8
       9       9       8       9       9       8       9       9       8       9
       9       8       9       9       8       9       9       8       9       9
       8       9       9       8       9       9       8       9       9       8
       9       9       8       9       9       8       9       9       8       9
       9       8       9       9       8       9       9       8       9       9
       8       9       9       8       9       9       8       9       9       8
       9       9       8       9       9       8       9       9       8       9
       9       8       9       9       8       9       9       8       9       9
       8       9       9       8       9       9       8       9       9       8
       9       9       8       9       9       8       9       9       8       9
       9       8       9       9       8       9       9       8       9       9
       8       9       9       8       9       9       8       9       9       8
       9       9       8       9       9       8       9       9       8       9
       9       8       9       9       8       9       9       8       9       9
       8       9       9       8       9       9       8       9       9       8
       9       9       8       9       9       8       9       9       8       9
       9       8       9       9       8       9       9       8       9       9
       8       9       9       8       9       9       8       9       9       8
       9       9       8       9       9       8       9       9       8       9
       9       8       9       9       8       9       9       8       9       9
       8       9       9       8       9       9       8       9       9       8
       9       9       8       9       9       8       9       9       8       9
       9       8       9       9       8       9       9       8       9       9
       8       9       9       8       9       9       8       9       9       8
       9       9       8       9       9       8       9       9       8       9
       9       8       9       9       8       9       9       8       9       9
       8       9       9       8       9       9       8       9       9       8
       9       9       8       9       9       8       9       9       8       9
       9       8       9       9       8       9       9       8       9       9
       8       9       9       8       9       9       8       9       9       8
       9       9       8       9       9       8       9       9       8       9
       9       8       9       9       8       9       9       8       9       9
       8       9       9       8       9       9       8       9       9       8
       9       9       8       9       9       8       9       9       8       9
       9       8       9       9       8       9       9       8       9       9
       8       9       9       8       9       9       8       9       9       8
       9       9       8       9       9       8       9       9       8       9
       9       8       9       9       8       9       9       8       9       9
       8       9       9       8       9       9       8       9       9       8
       9       9       8       9       9       8       9       9       8       9
       9       8       9       9       8       9       9       8       9       9
       8       9       9       8       9       9       8       9       9       8
       9       9       8       9       9       8       9       9       8       9
       9       8       9       9       8       9       9       8       9       9
       8       9       9       8       9       9       8       9       9       8
       9       9       8       9       9       8       9       9       8       9
       9       8       9       9       8       9       9       8       9       9
       8       9       9       8       9       9       8       9       9       8
       9       9       8       9       9       8       9       9       8       9
       9       8       9       9       8       9       9       8       9       9
       8       9       9       8       9       9       8       9       9       8
       9       9       8       9       9       8       9       9       8       9
       9       8       9       9       8       9       9       8       9       9
       8       9       9       8       9       9       8       9       9       8
       9       9       8       9       9       8       9       9       8       9
       9       8       9       9       8       9       9       8       9       9
       8       9       9       8       9       9       8       9       9       8
       9       9       8       9       9       8       9       9       8       9
       9       8       9       9       8       9       9       8       9       9
       8       9       9       8       9       9       8       9       9       8
       9       9       8       9       9       8       9       9       8       9
       9       8       9       9       8       9       9       8       9       9
       8       9       9       8       9       9       8       9       9       8
       9       9       8       9       9       8       9       9       8       9
       9       8       9       9       8       9       9       8       9       9
       8       9       9       8       9       9       8       9       9       8
       9       9       8       9       9       8       9       9       8       9
       9       8       9       9       8       9       9       8       9       9
       8       9       9       8       9       9       8       9       9       8
       9       9       8       9       9       8       9       9       8       9
       9       8       9       9       8       9       9       8       9       9
       8       9       9       8       9       9       8       9       9       8
       9       9       8       9       9       8       9       9       8       9
       9       8       9       9       8       9       9       8       9       9
       8       9       9       8       9       9       8       9       9       8
       9       9       8       9       9       8       9       9       8       9
       9       8       9       9       8       9       9       8       9       9
       8       9       9       8       9       9       8       9       9       8
       9       9       8       9       9       8       9       9       8       9
       9       8       9       9       8       9       9       8       9       9
       8       9       9       8       9       9       8       9       9       8
       9       9       8       9       9       8       9       9       8       9
       9       8       9       9       8       9       9       8       9       9
       8       9       9       8       9       9       8       9       9       8
       9       9       8       9       9       8       9       9       8       9
       9       8       9       9       8       9       9       8       9       9
       8       9       9       8       9       9       8       9       9       8
       9       9       8       9       9       8       9       9       8       9
       9       8       9       9       8       9       9       8       9       9
       8       9       9       8       9       9       8       9       9       8
       9       9       8       9       9       8       9       9       8       9
       9       8       9       9       8       9       9       8       9       9
       8       9       9       8       9       9       8       9       9       8
       9       9       8       9       9       8       9       9       8       9
       9       8       9       9       8       9       9       8       9       9
       8       9       9       8       9       9       8       9       9       8
       9       9       8       9       9       8       9       9       8       9
       9       8       9       9       8       9       9       8       9       9
       8       9       9       8       9       9       8       9       9       8
       9       9       8       9       9       8       9       9       8       9
       9       8       9       9       8       9       9       8       9       9
       8       9       9       8       9       9       8       9       9       8
       9       9       8       9       9       8       9       9       8       9
       9       8       9       9       8       9       9       8       9       9
       8       9       9       8       9       9       8       9       9       8
       9       9       8       9       9       8       9       9       8       9
       9       8       9       9       8       9       9       8       9       9
       8       9       9       8       9       9       8       9       9       8
       9       9       8       9       9       8       9       9       8       9
       9       8       9       9       8       9       9       8       9       9
       8       9       9       8       9       9       8       9       9       8
       9       9       8       9       9       8       9       9       8       9
       9       8       9       9       8       9       9       8       9       9
       8       9       9       8       9       9       8       9       9       8
       9       9       8       9       9       8       9       9       8       9
       9       8       9       9       8       9       9       8       9       9
       8       9       9       8       9       9       8       9       9       8
       9       9       8       9       9       8       9       9       8       9
       9       8       9       9       8       9       9       8       9       9
       8       9       9       8       9       9       8       9       9       8
       9       9       8       9       9       8       9       9       8       9
       9       8       9       9       8       9       9       8       9       9
       8       9       9       8       9       9       8       9       9       8
       9       9       8       9       9       8       9       9       8       9
       9       8       9       9       8       9       9       8       9       9
       8       9       9       8       9       9       8       9       9       8
       9       9       8       9       9       8       9       9       8       9
       9       8       9       9       8       9       9       8       9       9
       8       9       9       8       9       9       8       9       9       8
       9       9       8       9       9       8       9       9       8       9
       9       8       9       9       8       9       9       8       9       9
       8       9       9       8       9       9       8       9       9       8
       9       9       8       9       9       8       9       9       8       9
       9       8       9       9       8       9       9       8       9       9
       8       9       9       8       9       9       8       9       9       8
       9       9       8       9       9       8       9       9       8       9
       9       8       9       9       8       9       9       8       9       9
       8       9       9       8       9       9       8       9       9       8
       9       9       8       9       9       8       9       9       8       9
       9       8       9       9       8       9       9       8       9       9
       8       9       9       8       9       9       8       9       9       8
       9       9       8       9       9       8       9       9       8       9
       9       8       9       9       8       9       9       8       9       9
       8       9       9       8       9       9       8       9       9       8
       9       9       8       9       9       8       9       9       8       9
       9       8       9       9       8       9       9       8       9       9
       8       9       9       8       9       9       8       9       9       8
       9       9       8       9       9       8       9       9       8       9
       9       8       9       9       8       9       9       8       9       9
       8       9       9       8       9       9       8       9       9       8
       9       9       8       9       9       8       9       9       8       9
       9       8       9       9       8       9       9       8       9       9
       8       9       9       8       9       9       8       9       9       8
       9       9       8       9       9       8       9       9       8       9
       9       8       9       9       8       9       9       8       9       9
       8       9       9       8       9       9       8       9       9       8
       9       9       8       9       9       8       9       9       8       9
       9       8       9       9       8       9       9       8       9       9
       8       9       9       8       9       9       8       9       9       8
       9       9       8       9       9       8       9       9       8       9
       9       8       9       9       8       9       9       8       9       9
       8       9       9       8       9       9       8       9       9       8
       9       9       8       9       9       8       9       9       8       9
       9       8       9       9       8       9       9       8       9       9
       8       9       9       8       9       9       8       9       9       8
       9       9       8       9       9       8       9       9       8       9
       9       8       9       9       8       9       9       8       9       9
       8       9       9       8       9       9       8       9       9       8
       9       9       8       9       9       8       9       9       8       9
       9       8       9       9       8       9       9       8       9       9
       8       9       9       8       9       9       8       9       9       8
       9       9       8       9       9       8       9       9       8       9
       9       8       9       9       8       9       9       8       9       9
       8       9       9       8       9       9       8       9       9       8
       9       9       8       9       9       8       9       9       8       9
       9       8       9       9       8       9       9       8       9       9
       8       9       9       8       9       9       8       9       9       8
       9       9       8       9       9       8       9       9       8       9
       9       8       9       9       8       9       9       8       9       9
       8       9       9       8       9       9       8       9       9       8
       9       9       8       9       9       8       9       9       8       9
       9       8       9       9       8       9       9       8       9       9
       8       9       9       8       9       9       8       9       9       8
       9       9       8       9       9       8       9       9       8       9
       9       8       9       9       8       9       9       8       9       9
       8       9       9       8       9       9       8       9       9       8
       9       9       8       9       9       8       9       9       8       9
       9       8       9       9       8       9       9       8       9       9
       8       9       9       8       9       9       8       9       9       8
       9       9       8       9       9       8       9       9       8       9
       9       8       9       9       8       9       9       8       9       9
       8       9       9       8       9       9       8       9       9       8
       9       9       8       9       9       8       9       9       8       9
       9       8       9       9       8       9       9       8       9       9
       8       9       9       8       9       9       8       9       9       8
       9       9       8       9       9       8       9       9       8       9
       9       8       9       9       8       9       9       8       9       9
       8       9       9       8       9       9       8       9       9       8
       9       9       8       9       9       8       9       9       8       9
       9       8       9       9       8       9       9       8       9       9
       8       9       9       8       9       9       8       9       9       8
       9       9       8       9       9       8       9       9       8       9
       9       8       9       9       8       9       9       8       9       9
       8       9       9       8       9       9       8       9       9       8
       9       9       8       9       9       8       9       9       8       9
       9       8       9       9       8       9       9       8       9       9
       8       9       9       8       9       9       8       9       9       8
       9       9       8       9       9       8       9       9       8       9
       9       8       9       9       8       9       9       8       9       9
       8       9       9       8       9       9       8       9       9       8
       9       9       8       9       9       8       9       9       8       9
       9       8       9       9       8       9       9       8       9       9
       8       9       9       8       9       9       8       9       9       8
       9       9       8       9       9       8       9       9       8       9
       9       8       9       9       8       9       9       8       9       9
       8       9       9       8       9       9       8       9       9       8
       9       9       8       9       9       8       9       9       8       9
       9       8       9       9       8       9       9       8       9       9
       8       9       9       8       9       9       8       9       9       8
       9       9       8       9       9       8       9       9       8       9
       9       8       9       9       8       9       9       8       9       9
       8       9       9       8       9       9       8       9       9       8
       9       9       8       9       9       8       9       9       8       9
       9       8       9       9       8       9       9       8       9       9
       8       9       9       8       9       9       8       9       9       8
       9       9       8       9       9       8       9       9       8       9
       9       8       9       9       8       9       9       8       9       9
       8       9       9       8       9       9       8       9       9       8
       9       9       8       9       9       8       9       9       8       9
       9       8       9       9       8       9       9       8       9       9
       8       9       9       8       9       9       8       9       9       8
       9       9       8       9       9       8       9       9       8       9
       9       8       9       9       8       9       9       8       9       9
       8       9       9       8       9       9       8       9       9       8
       9       9       8       9       9       8       9       9       8       9
       9       8       9       9       8       9       9       8       9       9
       8       9       9       8       9       9       8       9       9       8
       9       9       8       9       9       8       9       9       8       9
       9       8       9       9       8       9       9       8       9       9
       8       9       9       8       9       9       8       9       9       8
       9       9       8       9       9       8       9       9       8       9
       9       8       9       9       8       9       9       8       9       9
       8       9       9       8       9       9       8       9       9       8
       9       9       8       9       9       8       9       9       8       9
       9       8       9       9       8       9       9       8       9       9
       8       9       9       8       9       9       8       9       9       8
       9       9       8       9       9       8       9       9       8       9
       9       8       9       9       8       9       9       8       9       9
       8       9       9       8       9       9       8       9       9       8
       9       9       8       9       9       8       9       9       8       9
       9       8       9       9       8       9       9       8       9       9
       8       9       9       8       9       9       8       9       9       8
       9       9       8       9       9       8       9       9       8       9
       9       8       9       9       8       9       9       8       9       9
       8       9       9       8       9       9       8       9       9       8
       9       9       8       9       9       8       9       9       8       9
       9       8       9       9       8       9       9       8       9       9
       8       9       9       8       9       9       8       9       9       8
       9       9       8       9       9       8       9       9       8       9
       9       8       9       9       8       9       9       8       9       9
       8       9       9       8       9       9       8       9       9       8
       9       9       8       9       9       8       9       9       8       9
       9       8       9       9       8       9       9       8       9       9
       8       9       9       8       9       9       8       9       9       8
       9       9       8       9       9       8       9       9       8       9
       9       8       9       9       8       9       9       8       9       9
       8       9       9       8       9       9       8       9       9       8
       9       9       8       9       9       8       9       9       8       9
       9       8       9       9       8       9       9       8       9       9
       8       9       9       8       9       9       8       9       9       8
       9       9       8       9       9       8       9       9       8       9
       9       8       9       9       8       9       9       8       9       9
       8       9       9       8       9       9       8       9       9       8
       9       9       8       9       9       8       9       9       8       9
       9       8       9       9       8       9       9       8       9       9
       8       9       9       8       9       9       8       9       9       8
       9       9       8       9       9       8       9       9       8       9
       9       8       9       9       8       9       9       8       9       9
       8       9       9       8       9       9       8       9       9       8
       9       9       8       9       9       8       9       9       8       9
       9       8       9       9       8       9       9       8       9       9
       8       9       9       8       9       9       8       9       9       8
       9       9       8       9       9       8       9       9       8       9
       9       8       9       9       8       9       9       8       9       9
       8       9       9       8       9       9       8       9       9       8
       9       9       8       9       9       8       9       9       8       9
       9       8       9       9       8       9       9       8       9       9
       8       9       9       8       9       9       8       9       9       8
       9       9       8       9       9       8       9       9       8       9
       9       8       9       9       8       9       9       8       9       9
       8       9       9       8       9       9       8       9       9       8
       9       9       8       9       9       8       9       9       8       9
       9       8       9       9       8       9       9       8       9       9
       8       9       9       8       9       9       8       9       9       8
       9       9       8       9       9       8       9       9       8       9
       9       8       9       9       8       9       9       8       9       9
       8       9       9       8       9       9       8       9       9       8
       9       9       8       9       9       8       9       9       8       9
       9       8       9       9       8       9       9       8       9       9
       8       9       9       8       9       9       8       9       9       8
       9       9       8       9       9       8       9       9       8       9
       9       8       9       9       8       9       9       8       9       9
       8       9       9       8       9       9       8       9       9       8
       9       9       8       9       9       8       9       9       8       9
       9       8       9       9       8       9       9       8       9       9
       8       9       9       8       9       9       8       9       9       8
       9       9       8       9       9       8       9       9       8       9
       9       8       9       9       8       9       9       8       9       9
       8       9       9       8       9       9       8       9       9       8
       9       9       8       9       9       8       9       9       8       9
       9       8       9       9       8       9       9       8       9       9
       8       9       9       8       9       9       8       9       9       8
       9       9       8       9       9       8       9       9       8       9
       9       8       9       9       8       9       9       8       9       9
       8       9       9       8       9       9       8       9       9       8
       9       9       8       9       9       8       9       9       8       9
       9       8       9       9       8       9       9       8       9       9
       8       9       9       8       9       9       8       9       9       8
       9       9       8       9       9       8       9       9       8       9
       9       8       9       9       8       9       9       8       9       9
       8       9       9       8       9       9       8       9       9       8
       9       9       8       9       9       8       9       9       8       9
       9       8       9       9       8       9       9       8       9       9
       8       9       9       8       9       9       8       9       9       8
       9       9       8       9       9       8       9       9       8       9
       9       8       9       9       8       9       9       8       9       9
       8       9       9       8       9       9       8       9       9       8
       9       9       8       9       9       8       9       9       8       9
       9       8       9       9       8       9       9       8       9       9
       8       9       9       8       9       9       8       9       9       8
       9       9       8       9       9       8       9       9       8       9
       9       8       9       9       8       9       9       8       9       9
       8       9       9       8       9       9       8       9       9       8
       9       9       8       9       9       8       9       9       8       9
       9       8       9       9       8       9       9       8       9       9
       8       9       9       8       9       9       8       9       9       8
       9       9       8       9       9       8       9       9       8       9
       9       8       9       9       8       9       9       8       9       9
       8       9       9       8       9       9       8       9       9       8
       9       9       8       9       9       8       9       9       8       9
       9       8       9       9       8       9       9       8       9       9
       8       9       9       8       9       9       8       9       9       8
       9       9       8       9       9       8       9       9       8       9
       9       8       9       9       8       9       9       8       9       9
       8       9       9       8       9       9       8       9       9       8
       9       9       8       9       9       8       9       9       8       9
       9       8       9       9       8       9       9       8       9       9
       8       9       9       8       9       9       8       9       9       8
       9       9       8       9       9       8       9       9       8       9
       9       8       9       9       8       9       9       8       9       9
       8       9       9       8       9       9       8       9       9       8
       9       9       8       9       9       8       9       9       8       9
       9       8       9       9       8       9       9       8       9       9
       8       9       9       8       9       9       8       9       9       8
       9       9       8       9       9       8       9       9       8       9
       9       8       9       9       8       9       9       8       9       9
       8       9       9       8       9       9       8       9       9       8
       9       9       8       9       9       8       9       9       8       9
       9       8       9       9       8       9       9       8       9       9
       8       9       9       8       9       9       8       9       9       8
       9       9       8       9       9       8       9       9       8       9
       9       8       9       9       8       9       9       8       9       9
       8       9       9       8       9       9       8       9       9       8
       9       9       8       9       9       8       9       9       8       9
       9       8       9       9       8       9       9       8       9       9
       8       9       9       8       9       9       8       9       9       8
       9       9       8       9       9       8       9       9       8       9
       9       8       9       9       8       9       9       8       9       9
       8       9       9       8       9       9       8       9       9       8
       9       9       8       9       9       8       9       9       8       9
       9       8       9       9       8       9       9       8       9       9
       8       9       9       8       9       9       8       9       9       8
       9       9       8       9       9       8       9       9       8       9
       9       8       9       9       8       9       9       8       9       9
       8       9       9       8       9       9       8       9       9       8
       9       9       8       9       9       8       9       9       8       9
       9       8       9       9       8       9       9       8       9       9
       8       9       9       8       9       9       8       9       9       8
       9       9       8       9       9       8       9       9       8       9
       9       8       9       9       8       9       9       8       9       9
       8       9       9       8       9       9       8       9       9       8
       9       9       8       9       9       8       9       9       8       9
       9       8       9       9       8       9       9       8       9       9
       8       9       9       8       9       9       8       9       9       8
       9       9       8       9       9       8       9       9       8       9
       9       8       9       9       8       9       9       8       9       9
       8       9       9       8       9       9       8       9       9       8
       9       9       8       9       9       8       9       9       8       9
       9       8       9       9       8       9       9       8       9       9
       8       9       9       8       9       9       8       9       9       8
       9       9       8       9       9       8       9       9       8       9
       9       8       9       9       8       9       9       8       9       9
       8       9       9       8       9       9       8       9       9       8
       9       9       8       9       9       8       9       9       8       9
       9       8       9       9       8       9       9       8       9       9
       8       9       9       8       9       9       8       9       9       8
       9       9       8       9       9       8       9       9       8       9
       9       8       9       9       8       9       9       8       9       9
       8       9       9       8       9       9       8       9       9       8
       9       9       8       9       9       8       9       9       8       9
       9       8       9       9       8       9       9       8       9       9
       8       9       9       8       9       9       8       9       9       8
       9       9       8       9       9       8       9       9       8       9
       9       8       9       9       8       9       9       8       9       9
       8       9       9       8       9       9       8       9       9       8
       9       9       8       9       9       8       9       9       8       9
       9       8       9       9       8       9       9       8       9       9
       8       9       9       8       9       9       8       9       9       8
       9       9       8       9       9       8       9       9       8       9
       9       8       9       9       8       9       9       8       9       9
       8       9       9       8       9       9       8       9       9       8
       9       9       8       9       9       8       9       9       8       9
       9       8       9       9       8       9       9       8       9       9
       8       9       9       8       9       9       8       9       9       8
       9       9       8       9       9       8       9       9       8       9
       9       8       9       9       8       9       9       8       9       9
       8       9       9       8       9       9       8       9       9       8
       9       9       8       9       9       8       9       9       8       9
       9       8       9       9       8       9       9       8       9       9
       8       9       9       8       9       9       8       9       9       8
       9       9       8       9       9       8       9       9       8       9
       9       8       9       9       8       9       9       8       9       9
       8       9       9       8       9       9       8       9       9       8
       9       9       8       9       9       8       9       9       8       9
       9       8       9       9       8       9       9       8       9       9
       8       9       9       8       9       9       8       9       9       8
       9       9       8       9       9       8       9       9       8       9
       9       8       9       9       8       9       9       8       9       9
       8       9       9       8       9       9       8       9       9       8
       9       9       8       9       9       8       9       9       8       9
       9       8       9       9       8       9       9       8       9       9
       8       9       9       8       9       9       8       9       9       8
       9       9       8       9       9       8       9       9       8       9
       9       8       9       9       8       9       9       8       9       9
       8       9       9       8       9       9       8       9       9       8
       9       9       8       9       9       8       9       9       8       9
       9       8       9       9       8       9       9       8       9       9
       8       9       9       8       9       9       8       9       9       8
       9       9       8       9       9       8       9       9       8       9
       9       8       9       9       8       9       9       8       9       9
       8       9       9       8       9       9       8       9       9       8
       9       9       8       9       9       8       9       9       8       9
       9       8       9       9       8       9       9       8       9       9
       8       9       9       8       9       9       8       9       9       8
       9       9       8       9       9       8       9       9       8       9
       9       8       9       9       8       9       9       8       9       9
       8       9       9       8       9       9       8       9       9       8
       9       9       8       9       9       8       9       9       8       9
       9       8       9       9       8       9       9       8       9       9
       8       9       9       8       9       9       8       9       9       8
       9       9       8       9       9       8       9       9       8       9
       9       8       9       9       8       9       9       8       9       9
       8       9       9       8       9       9       8       9       9       8
       9       9       8       9       9       8       9       9       8       9
       9       8       9       9       8       9       9       8       9       9
       8       9       9       8       9       9       8       9       9       8
       9       9       8       9       9       8       9       9       8       9
       9       8       9       9       8       9       9       8       9       9
       8       9       9       8       9       9       8       9       9       8
       9       9       8       9       9       8       9       9       8       9
       9       8       9       9       8       9       9       8       9       9
       8       9       9       8       9       9       8       9       9       8
       9       9       8       9       9       8       9       9       8       9
       9       8       9       9       8       9       9       8       9       9
       8       9       9       8       9       9       8       9       9       8
       9       9       8       9       9       8       9       9       8       9
       9       8       9       9       8       9       9       8       9       9
       8       9       9       8       9       9       8       9       9       8
       9       9       8       9       9       8       9       9       8       9
       9       8       9       9       8       9       9       8       9       9
       8       9       9       8       9       9       8       9       9       8
       9       9       8       9       9       8       9       9       8       9
       9       8       9       9       8       9       9       8       9       9
       8       9       9       8       9       9       8       9       9       8
       9       9       8       9       9       8       9       9       8       9
       9       8       9       9       8       9       9       8       9       9
       8       9       9       8       9       9       8       9       9       8
       9       9       8       9       9       8       9       9       8       9
       9       8       9       9       8       9       9       8       9       9
       8       9       9       8       9       9       8       9       9       8
       9       9       8       9       9       8       9       9       8       9
       9       8       9       9       8       9       9       8       9       9
       8       9       9       8       9       9       8       9       9       8
       9       9       8       9       9       8       9       9       8       9
       9       8       9       9       8       9       9       8       9       9
       8       9       9       8       9       9       8       9       9       8
       9       9       8       9       9       8       9       9       8       9
       9       8       9       9       8       9       9       8       9       9
       8       9       9       8       9       9       8       9       9       8
       9       9       8       9       9       8       9       9       8       9
       9       8       9       9       8       9       9       8       9       9
       8       9       9       8       9       9       8       9       9       8
       9       9       8       9       9       8       9       9       8       9
       9       8       9       9       8       9       9       8       9       9
       8       9       9       8       9       9       8       9       9       8
       9       9       8       9       9       8       9       9       8       9
       9       8       9       9       8       9       9       8       9       9
       8       9       9       8       9       9       8       9       9       8
       9       9       8       9       9       8       9       9       8       9
       9       8       9       9       8       9       9       8       9       9
       8       9       9       8       9       9       8       9       9       8
       9       9       8       9       9       8       9       9       8       9
       9       8       9       9       8       9       9       8       9       9
       8       9       9       8       9       9       8       9       9       8
       9       9       8       9       9       8       9       9       8       9
       9       8       9       9       8       9       9       8       9       9
       8       9       9       8       9       9       8       9       9       8
       9       9       8       9       9       8       9       9       8       9
       9       8       9       9       8       9       9       8       9       9
       8       9       9       8       9       9       8       9       9       8
       9       9       8       9       9       8       9       9       8       9
       9       8       9       9       8       9       9       8       9       9
       8       9       9       8       9       9       8       9       9       8
       9       9       8       9       9       8       9       9       8       9
       9       8       9       9       8       9       9       8       9       9
       8       9       9       8       9       9       8       9       9       8
       9       9       8       9       9       8       9       9       8       9
       9       8       9       9       8       9       9       8       9       9
       8       9       9       8       9       9       8       9       9       8
       9       9       8       9       9       8       9       9       8       9
       9       8       9       9       8       9       9       8       9       9
       8       9       9       8       9       9       8       9       9       8
       9       9       8       9       9       8       9       9       8       9
       9       8       9       9       8       9       9       8       9       9
       8       9       9       8       9       9       8       9       9       8
       9       9       8       9       9       8       9       9       8       9
       9       8       9       9       8       9       9       8       9       9
       8       9       9       8       9       9       8       9       9       8
       9       9       8       9       9       8       9       9       8       9
       9       8       9       9       8       9       9       8       9       9
       8       9       9       8       9       9       8       9       9       8
       9       9       8       9       9       8       9       9       8       9
       9       8       9       9       8       9       9       8       9       9
       8       9       9       8       9       9       8       9       9       8
       9       9       8       9       9       8       9       9       8       9
       9       8       9       9       8       9       9       8       9       9
       8       9       9       8       9       9       8       9       9       8
       9       9       8       9       9       8       9       9       8       9
       9       8       9       9       8       9       9       8       9       9
       8       9       9       8       9       9       8       9       9       8
       9       9       8       9       9       8       9       9       8       9
       9       8       9       9       8       9       9       8       9       9
       8       9       9       8       9       9       8       9       9       8
       9       9       8       9       9       8       9       9       8       9
       9       8       9       9       8       9       9       8       9       9
       8       9       9       8       9       9       8       9       9       8
       9       9       8       9       9       8       9       9       8       9
       9       8       9       9       8       9       9       8       9       9
       8       9       9       8       9       9       8       9       9       8
       9       9       8       9       9       8       9       9       8       9
       9       8       9       9       8       9       9       8       9       9
       8       9       9       8       9       9       8       9       9       8
       9       9       8       9       9       8       9       9       8       9
       9       8       9       9       8       9       9       8       9       9
       8       9       9       8       9       9       8       9       9       8
       9       9       8       9       9       8       9       9       8       9
       9       8       9       9       8       9       9       8       9       9
       8       9       9       8       9       9       8       9       9       8
       9       9       8       9       9       8       9       9       8       9
       9       8       9       9       8       9       9       8       9       9
       8       9       9       8       9       9       8       9       9       8
       9       9       8       9       9       8       9       9       8       9
       9       8       9       9       8       9       9       8       9       9
       8       9       9       8       9       9       8       9       9       8
       9       9       8       9       9       8       9       9       8       9
       9       8       9       9       8       9       9       8       9       9
       8       9       9       8       9       9       8       9       9       8
       9       9       8       9       9       8       9       9       8       9
       9       8       9       9       8       9       9       8       9       9
       8       9       9       8       9       9       8       9       9       8
       9       9       8       9       9       8       9       9       8       9
       9       8       9       9       8       9       9       8       9       9
       8       9       9       8       9       9       8       9       9       8
       9       9       8       9       9       8       9       9       8       9
       9       8       9       9       8       9       9       8       9       9
       8       9       9       8       9       9       8       9       9       8
       9       9       8       9       9       8       9       9       8       9
       9       8       9       9       8       9       9       8       9       9
       8       9       9       8       9       9       8       9       9       8
       9       9       8       9       9       8       9       9       8       9
       9       8       9       9       8       9       9       8       9       9
       8       9       9       8       9       9       8       9       9       8
       9       9       8       9       9       8       9       9       8       9
       9       8       9       9       8       9       9       8       9       9
       8       9       9       8       9       9       8       9       9       8
       9       9       8       9       9       8       9       9       8       9
       9       8       9       9       8       9       9       8       9       9
       8       9       9       8       9       9       8       9       9       8
       9       9       8       9       9       8       9       9       8       9
       9       8       9       9       8       9       9       8       9       9
       8       9       9       8       9       9       8       9       9       8
       9       9       8       9       9       8       9       9       8       9
       9       8       9       9       8       9       9       8       9       9
       8       9       9       8       9       9       8       9       9       8
       9       9       8       9       9       8       9       9       8       9
       9       8       9       9       8       9       9       8       9       9
       8       9       9       8       9       9       8       9       9       8
       9       9       8       9       9       8       9       9       8       9
       9       8       9       9       8       9       9       8       9       9
       8       9       9       8       9       9       8       9       9       8
       9       9       8       9       9       8       9       9       8       9
       9       8       9       9       8       9       9       8       9       9
       8       9       9       8       9       9       8       9       9       8
       9       9       8       9       9       8       9       9       8       9
       9       8       9       9       8       9       9       8       9       9
       8       9       9       8       9       9       8       9       9       8
       9       9       8       9       9       8       9       9       8       9
       9       8       9       9       8       9       9       8       9       9
       8       9       9       8       9       9       8       9       9       8
       9       9       8       9       9       8       9       9       8       9
       9       8       9       9       8       9       9       8       9       9
       8       9       9       8       9       9       8       9       9       8
       9       9       8       9       9       8       9       9       8       9
       9       8       9       9       8       9       9       8       9       9
       8       9       9       8       9       9       8       9       9       8
       9       9       8       9       9       8       9       9       8       9
       9       8       9       9       8       9       9       8       9       9
       8       9       9       8       9       9       8       9       9       8
       9       9       8       9       9       8       9       9       8       9
       9       8       9       9       8       9       9       8       9       9
       8       9       9       8       9       9       8       9       9       8
       9       9       8       9       9       8       9       9       8       9
       9       8       9       9       8       9       9       8       9       9
       8       9       9       8       9       9       8       9       9       8
       9       9       8       9       9       8       9       9       8       9
       9       8       9       9       8       9       9       8       9       9
       8       9       9       8       9       9       8       9       9       8
       9       9       8       9       9       8       9       9       8       9
       9       8       9       9       8       9       9       8       9       9
       8       9       9       8       9       9       8       9       9       8
       9       9       8       9       9       8       9       9       8       9
       9       8       9       9       8       9       9       8       9       9
       8       9       9       8       9       9       8       9       9       8
       9       9       8       9       9       8       9       9       8       9
       9       8       9       9       8       9       9       8       9       9
       8       9       9       8       9       9       8       9       9       8
       9       9       8       9       9       8       9       9       8       9
       9       8       9       9       8       9       9       8       9       9
       8       9       9       8       9       9       8       9       9       8
       9       9       8       9       9       8       9       9       8       9
       9       8       9       9       8       9       9
%FLAG NUMBER_EXCLUDED_ATOMS                                                     
%FORMAT(10I8)                                                                   
      20      16       6      15      16       4      14      17       5      13
       4      12       5      11       4       7       2       7       2       7
       2       3       2       1       1       1       1       1       1       1
       1       3       2       1       1       3       2       1       1       1
       1       2       1       1       2       1       1       2       1       1
       2       1       1       2       1       1       2       1       1       2
       1       1       2       1       1       2       1       1       2       1
       1       2       1       1       2       1       1       2       1       1
       2       1       1       2       1       1       2       1       1       2
       1       1       2       1       1       2       1       1       2       1
       1       2       1       1       2       1       1       2       1       1
       2       1       1       2       1       1       2       1       1       2
       1       1       2       1       1       2       1       1       2       1
       1       2       1       1       2       1       1       2       1       1
       2       1       1       2       1       1       2       1       1       2
       1       1       2       1       1       2       1       1       2       1
       1       2       1       1       2       1       1       2       1       1
       2       1       1       2       1       1       2       1       1       2
       1       1       2       1       1       2       1       1       2       1
       1       2       1       1       2       1       1       2       1       1
       2       1       1       2       1       1       2       1       1       2
       1       1       2       1       1       2       1       1       2       1
       1       2       1       1       2       1       1       2       1       1
       2       1       1       2       1       1       2       1       1       2
       1       1       2       1       1       2       1       1       2       1
       1       2       1       1       2       1       1       2       1       1
       2       1       1       2       1       1       2       1       1       2
       1       1       2       1       1       2       1       1       2       1
       1       2       1       1       2       1       1       2       1       1
       2       1       1       2       1       1       2       1       1       2
       1       1       2       1       1       2       1       1       2       1
       1       2       1       1       2       1       1       2       1       1
       2       1       1       2       1       1       2       1       1       2
       1       1       2       1       1       2       1       1       2       1
       1       2       1       1       2       1       1       2       1       1
       2       1       1       2       1       1       2       1       1       2
       1       1       2       1       1       2       1       1       2       1
       1       2       1       1       2       1       1       2       1       1
       2       1       1       2       1       1       2       1       1       2
       1       1       2       1       1       2       1       1       2       1
       1       2       1       1       2       1       1       2       1       1
       2       1       1       2       1       1       2       1       1       2
       1       1       2       1       1       2       1       1       2       1
       1       2       1       1       2       1       1       2       1       1
       2       1       1       2       1       1       2       1       1       2
       1       1       2       1       1       2       1       1       2       1
       1       2       1       1       2       1       1       2       1       1
       2       1       1       2       1       1       2       1       1       2
       1       1       2       1       1       2       1       1       2       1
       1       2       1       1       2       1       1       2       1       1
       2       1       1       2       1       1       2       1       1       2
       1       1       2       1       1       2       1       1       2       1
       1       2       1       1       2       1       1       2       1       1
       2       1       1       2       1       1       2       1       1       2
       1       1       2       1       1       2       1       1       2       1
       1       2       1       1       2       1       1       2       1       1
       2       1       1       2       1       1       2       1       1       2
       1       1       2       1       1       2       1       1       2       1
       1       2       1       1       2       1       1       2       1       1
       2       1       1       2       1       1       2       1       1       2
       1       1       2       1       1       2       1       1       2       1
       1       2       1       1       2       1       1       2       1       1
       2       1       1       2       1       1       2       1       1       2
       1       1       2       1       1       2       1       1       2       1
       1       2       1       1       2       1       1       2       1       1
       2       1       1       2       1       1       2       1       1       2
       1       1       2       1       1       2       1       1       2       1
       1       2       1       1       2       1       1       2       1       1
       2       1       1       2       1       1       2       1       1       2
       1       1       2       1       1       2       1       1       2       1
       1       2       1       1       2       1       1       2       1       1
       2       1       1       2       1       1       2       1       1       2
       1       1       2       1       1       2       1       1       2       1
       1       2       1       1       2       1       1       2       1       1
       2       1       1       2       1       1       2       1       1       2
       1       1       2       1       1       2       1       1       2       1
       1       2       1       1       2       1       1       2       1       1
       2       1       1       2       1       1       2       1       1       2
       1       1       2       1       1       2       1       1       2       1
       1       2       1       1       2       1       1       2       1       1
       2       1       1       2       1       1       2       1       1       2
       1       1       2       1       1       2       1       1       2       1
       1       2       1       1       2       1       1       2       1       1
       2       1       1       2       1       1       2       1       1       2
       1       1       2       1       1       2       1       1       2       1
       1       2       1       1       2       1       1       2       1       1
       2       1       1       2       1       1       2       1       1       2
       1       1       2       1       1       2       1       1       2       1
       1       2       1       1       2       1       1       2       1       1
       2       1       1       2       1       1       2       1       1       2
       1       1       2       1       1       2       1       1       2       1
       1       2       1       1       2       1       1       2       1       1
       2       1       1       2       1       1       2       1       1       2
       1       1       2       1       1       2       1       1       2       1
       1       2       1       1       2       1       1       2       1       1
       2       1       1       2       1       1       2       1       1       2
       1       1       2       1       1       2       1       1       2       1
       1       2       1       1       2       1       1       2       1       1
       2       1       1       2       1       1       2       1       1       2
       1       1       2       1       1       2       1       1       2       1
       1       2       1       1       2       1       1       2       1       1
       2       1       1       2       1       1       2       1       1       2
       1       1       2       1       1       2       1       1       2       1
       1       2       1       1       2       1       1       2       1       1
       2       1       1       2       1       1       2       1       1       2
       1       1       2       1       1       2       1       1       2       1
       1       2       1       1       2       1       1       2       1       1
       2       1       1       2       1       1       2       1       1       2
       1       1       2       1       1       2       1       1       2       1
       1       2       1       1       2       1       1       2       1       1
       2       1       1       2       1       1       2       1       1       2
       1       1       2       1       1       2       1       1       2       1
       1       2       1       1       2       1       1       2       1       1
       2       1       1       2       1       1       2       1       1       2
       1       1       2       1       1       2       1       1       2       1
       1       2       1       1       2       1       1       2       1       1
       2       1       1       2       1       1       2       1       1       2
       1       1       2       1       1       2       1       1       2       1
       1       2       1       1       2       1       1       2       1       1
       2       1       1       2       1       1       2       1       1       2
       1       1       2       1       1       2       1       1       2       1
       1       2       1       1       2       1       1       2       1       1
       2       1       1       2       1       1       2       1       1       2
       1       1       2       1       1       2       1       1       2       1
       1       2       1       1       2       1       1       2       1       1
       2       1       1       2       1       1       2       1       1       2
       1       1       2       1       1       2       1       1       2       1
       1       2       1       1       2       1       1       2       1       1
       2       1       1       2       1       1       2       1       1       2
       1       1       2       1       1       2       1       1       2       1
       1       2       1       1       2       1       1       2       1       1
       2       1       1       2       1       1       2       1       1       2
       1       1       2       1       1       2       1       1       2       1
       1       2       1       1       2       1       1       2       1       1
       2       1       1       2       1       1       2       1       1       2
       1       1       2       1       1       2       1       1       2       1
       1       2       1       1       2       1       1       2       1       1
       2       1       1       2       1       1       2       1       1       2
       1       1       2       1       1       2       1       1       2       1
       1       2       1       1       2       1       1       2       1       1
       2       1       1       2       1       1       2       1       1       2
       1       1       2       1       1       2       1       1       2       1
       1       2       1       1       2       1       1       2       1       1
       2       1       1       2       1       1       2       1       1       2
       1       1       2       1       1       2       1       1       2       1
       1       2       1       1       2       1       1       2       1       1
       2       1       1       2       1       1       2       1       1       2
       1       1       2       1       1       2       1       1       2       1
       1       2       1       1       2       1       1       2       1       1
       2       1       1       2       1       1       2       1       1       2
       1       1       2       1       1       2       1       1       2       1
       1       2       1       1       2       1       1       2       1       1
       2       1       1       2       1       1       2       1       1       2
       1       1       2       1       1       2       1       1       2       1
       1       2       1       1       2       1       1       2       1       1
       2       1       1       2       1       1       2       1       1       2
       1       1       2       1       1       2       1       1       2       1
       1       2       1       1       2       1       1       2       1       1
       2       1       1       2       1       1       2       1       1       2
       1       1       2       1       1       2       1       1       2       1
       1       2       1       1       2       1       1       2       1       1
       2       1       1       2       1       1       2       1       1       2
       1       1       2       1       1       2       1       1       2       1
       1       2       1       1       2       1       1       2       1       1
       2       1       1       2       1       1       2       1       1       2
       1       1       2       1       1       2       1       1       2       1
       1       2       1       1       2       1       1       2       1       1
       2       1       1       2       1       1       2       1       1       2
       1       1       2       1       1       2       1       1       2       1
       1       2       1       1       2       1       1       2       1       1
       2       1       1       2       1       1       2       1       1       2
       1       1       2       1       1       2       1       1       2       1
       1       2       1       1       2       1       1       2       1       1
       2       1       1       2       1       1       2       1       1       2
       1       1       2       1       1       2       1       1       2       1
       1       2       1       1       2       1       1       2       1       1
       2       1       1       2       1       1       2       1       1       2
       1       1       2       1       1       2       1       1       2       1
       1       2       1       1       2       1       1       2       1       1
       2       1       1       2       1       1       2       1       1       2
       1       1       2       1       1       2       1       1       2       1
       1       2       1       1       2       1       1       2       1       1
       2       1       1       2       1       1       2       1       1       2
       1       1       2       1       1       2       1       1       2       1
       1       2       1       1       2       1       1       2       1       1
       2       1       1       2       1       1       2       1       1       2
       1       1       2       1       1       2       1       1       2       1
       1       2       1       1       2       1       1       2       1       1
       2       1       1       2       1       1       2       1       1       2
       1       1       2       1       1       2       1       1       2       1
       1       2       1       1       2       1       1       2       1       1
       2       1       1       2       1       1       2       1       1       2
       1       1       2       1       1       2       1       1       2       1
       1       2       1       1       2       1       1       2       1       1
       2       1       1       2       1       1       2       1       1       2
       1       1       2       1       1       2       1       1       2       1
       1       2       1       1       2       1       1       2       1       1
       2       1       1       2       1       1       2       1       1       2
       1       1       2       1       1       2       1       1       2       1
       1       2       1       1       2       1       1       2       1       1
       2       1       1       2       1       1       2       1       1       2
       1       1       2       1       1       2       1       1       2       1
       1       2       1       1       2       1       1       2       1       1
       2       1       1       2       1       1       2       1       1       2
       1       1       2       1       1       2       1       1       2       1
       1       2       1       1       2       1       1       2       1       1
       2       1       1       2       1       1       2       1       1       2
       1       1       2       1       1       2       1       1       2       1
       1       2       1       1       2       1       1       2       1       1
       2       1       1       2       1       1       2       1       1       2
       1       1       2       1       1       2       1       1       2       1
       1       2       1       1       2       1       1       2       1       1
       2       1       1       2       1       1       2       1       1       2
       1       1       2       1       1       2       1       1       2       1
       1       2       1       1       2       1       1       2       1       1
       2       1       1       2       1       1       2       1       1       2
       1       1       2       1       1       2       1       1       2       1
       1       2       1       1       2       1       1       2       1       1
       2       1       1       2       1       1       2       1       1       2
       1       1       2       1       1       2       1       1       2       1
       1       2       1       1       2       1       1       2       1       1
       2       1       1       2       1       1       2       1       1       2
       1       1       2       1       1       2       1       1       2       1
       1       2       1       1       2       1       1       2       1       1
       2       1       1       2       1       1       2       1       1       2
       1       1       2       1       1       2       1       1       2       1
       1       2       1       1       2       1       1       2       1       1
       2       1       1       2       1       1       2       1       1       2
       1       1       2       1       1       2       1       1       2       1
       1       2       1       1       2       1       1       2       1       1
       2       1       1       2       1       1       2       1       1       2
       1       1       2       1       1       2       1       1       2       1
       1       2       1       1       2       1       1       2       1       1
       2       1       1       2       1       1       2       1       1       2
       1       1       2       1       1       2       1       1       2       1
       1       2       1       1       2       1       1       2       1       1
       2       1       1       2       1       1       2       1       1       2
       1       1       2       1       1       2       1       1       2       1
       1       2       1       1       2       1       1       2       1       1
       2       1       1       2       1       1       2       1       1       2
       1       1       2       1       1       2       1       1       2       1
       1       2       1       1       2       1       1       2       1       1
       2       1       1       2       1       1       2       1       1       2
       1       1       2       1       1       2       1       1       2       1
       1       2       1       1       2       1       1       2       1       1
       2       1       1       2       1       1       2       1       1       2
       1       1       2       1       1       2       1       1       2       1
       1       2       1       1       2       1       1       2       1       1
       2       1       1       2       1       1       2       1       1       2
       1       1       2       1       1       2       1       1       2       1
       1       2       1       1       2       1       1       2       1       1
       2       1       1       2       1       1       2       1       1       2
       1       1       2       1       1       2       1       1       2       1
       1       2       1       1       2       1       1       2       1       1
       2       1       1       2       1       1       2       1       1       2
       1       1       2       1       1       2       1       1       2       1
       1       2       1       1       2       1       1       2       1       1
       2       1       1       2       1       1       2       1       1       2
       1       1       2       1       1       2       1       1       2       1
       1       2       1       1       2       1       1       2       1       1
       2       1       1       2       1       1       2       1       1       2
       1       1       2       1       1       2       1       1       2       1
       1       2       1       1       2       1       1       2       1       1
       2       1       1       2       1       1       2       1       1       2
       1       1       2       1       1       2       1       1       2       1
       1       2       1       1       2       1       1       2       1       1
       2       1       1       2       1       1       2       1       1       2
       1       1       2       1       1       2       1       1       2       1
       1       2       1       1       2       1       1       2       1       1
       2       1       1       2       1       1       2       1       1       2
       1       1       2       1       1       2       1       1       2       1
       1       2       1       1       2       1       1       2       1       1
       2       1       1       2       1       1       2       1       1       2
       1       1       2       1       1       2       1       1       2       1
       1       2       1       1       2       1       1       2       1       1
       2       1       1       2       1       1       2       1       1       2
       1       1       2       1       1       2       1       1       2       1
       1       2       1       1       2       1       1       2       1       1
       2       1       1       2       1       1       2       1       1       2
       1       1       2       1       1       2       1       1       2       1
       1       2       1       1       2       1       1       2       1       1
       2       1       1       2       1       1       2       1       1       2
       1       1       2       1       1       2       1       1       2       1
       1       2       1       1       2       1       1       2       1       1
       2       1       1       2       1       1       2       1       1       2
       1       1       2       1       1       2       1       1       2       1
       1       2       1       1       2       1       1       2       1       1
       2       1       1       2       1       1       2       1       1       2
       1       1       2       1       1       2       1       1       2       1
       1       2       1       1       2       1       1       2       1       1
       2       1       1       2       1       1       2       1       1       2
       1       1       2       1       1       2       1       1       2       1
       1       2       1       1       2       1       1       2       1       1
       2       1       1       2       1       1       2       1       1       2
       1       1       2       1       1       2       1       1       2       1
       1       2       1       1       2       1       1       2       1       1
       2       1       1       2       1       1       2       1       1       2
       1       1       2       1       1       2       1       1       2       1
       1       2       1       1       2       1       1       2       1       1
       2       1       1       2       1       1       2       1       1       2
       1       1       2       1       1       2       1       1       2       1
       1       2       1       1       2       1       1       2       1       1
       2       1       1       2       1       1       2       1       1       2
       1       1       2       1       1       2       1       1       2       1
       1       2       1       1       2       1       1       2       1       1
       2       1       1       2       1       1       2       1       1       2
       1       1       2       1       1       2       1       1       2       1
       1       2       1       1       2       1       1       2       1       1
       2       1       1       2       1       1       2       1       1       2
       1       1       2       1       1       2       1       1       2       1
       1       2       1       1       2       1       1       2       1       1
       2       1       1       2       1       1       2       1       1       2
       1       1       2       1       1       2       1       1       2       1
       1       2       1       1       2       1       1       2       1       1
       2       1       1       2       1       1       2       1       1       2
       1       1       2       1       1       2       1       1       2       1
       1       2       1       1       2       1       1       2       1       1
       2       1       1       2       1       1       2       1       1       2
       1       1       2       1       1       2       1       1       2       1
       1       2       1       1       2       1       1       2       1       1
       2       1       1       2       1       1       2       1       1       2
       1       1       2       1       1       2       1       1       2       1
       1       2       1       1       2       1       1       2       1       1
       2       1       1       2       1       1       2       1       1       2
       1       1       2       1       1       2       1       1       2       1
       1       2       1       1       2       1       1       2       1       1
       2       1       1       2       1       1       2       1       1       2
       1       1       2       1       1       2       1       1       2       1
       1       2       1       1       2       1       1       2       1       1
       2       1       1       2       1       1       2       1       1       2
       1       1       2       1       1       2       1       1       2       1
       1       2       1       1       2       1       1       2       1       1
       2       1       1       2       1       1       2       1       1       2
       1       1       2       1       1       2       1       1       2       1
       1       2       1       1       2       1       1       2       1       1
       2       1       1       2       1       1       2       1       1       2
       1       1       2       1       1       2       1       1       2       1
       1       2       1       1       2       1       1       2       1       1
       2       1       1       2       1       1       2       1       1       2
       1       1       2       1       1       2       1       1       2       1
       1       2       1       1       2       1       1       2       1       1
       2       1       1       2       1       1       2       1       1       2
       1       1       2       1       1       2       1       1       2       1
       1       2       1       1       2       1       1       2       1       1
       2       1       1       2       1       1       2       1       1       2
       1       1       2       1       1       2       1       1       2       1
       1       2       1       1       2       1       1       2       1       1
       2       1       1       2       1       1       2       1       1       2
       1       1       2       1       1       2       1       1       2       1
       1       2       1       1       2       1       1       2       1       1
       2       1       1       2       1       1       2       1       1       2
       1       1       2       1       1       2       1       1       2       1
       1       2       1       1       2       1       1       2       1       1
       2       1       1       2       1       1       2       1       1       2
       1       1       2       1       1       2       1       1       2       1
       1       2       1       1       2       1       1       2       1       1
       2       1       1       2       1       1       2       1       1       2
       1       1       2       1       1       2       1       1       2       1
       1       2       1       1       2       1       1       2       1       1
       2       1       1       2       1       1       2       1       1       2
       1       1       2       1       1       2       1       1       2       1
       1       2       1       1       2       1       1       2       1       1
       2       1       1       2       1       1       2       1       1       2
       1       1       2       1       1       2       1       1       2       1
       1       2       1       1       2       1       1       2       1       1
       2       1       1       2       1       1       2       1       1       2
       1       1       2       1       1       2       1       1       2       1
       1       2       1       1       2       1       1       2       1       1
       2       1       1       2       1       1       2       1       1       2
       1       1       2       1       1       2       1       1       2       1
       1       2       1       1       2       1       1       2       1       1
       2       1       1       2       1       1       2       1       1       2
       1       1       2       1       1       2       1       1       2       1
       1       2       1       1       2       1       1       2       1       1
       2       1       1       2       1       1       2       1       1       2
       1       1       2       1       1       2       1       1       2       1
       1       2       1       1       2       1       1       2       1       1
       2       1       1       2       1       1       2       1       1       2
       1       1       2       1       1       2       1       1       2       1
       1       2       1       1       2       1       1       2       1       1
       2       1       1       2       1       1       2       1       1       2
       1       1       2       1       1       2       1       1       2       1
       1       2       1       1       2       1       1       2       1       1
       2       1       1       2       1       1       2       1       1       2
       1       1       2       1       1       2       1       1       2       1
       1       2       1       1       2       1       1       2       1       1
       2       1       1       2       1       1       2       1       1       2
       1       1       2       1       1       2       1       1       2       1
       1       2       1       1       2       1       1       2       1       1
       2       1       1       2       1       1       2       1       1       2
       1       1       2       1       1       2       1       1       2       1
       1       2       1       1       2       1       1       2       1       1
       2       1       1       2       1       1       2       1       1       2
       1       1       2       1       1       2       1       1       2       1
       1       2       1       1       2       1       1       2       1       1
       2       1       1       2       1       1       2       1       1       2
       1       1       2       1       1       2       1       1       2       1
       1       2       1       1       2       1       1       2       1       1
       2       1       1       2       1       1       2       1       1       2
       1       1       2       1       1       2       1       1       2       1
       1       2       1       1       2       1       1       2       1       1
       2       1       1       2       1       1       2       1       1       2
       1       1       2       1       1       2       1       1       2       1
       1       2       1       1       2       1       1       2       1       1
       2       1       1       2       1       1       2       1       1       2
       1       1       2       1       1       2       1       1       2       1
       1       2       1       1       2       1       1       2       1       1
       2       1       1       2       1       1       2       1       1       2
       1       1       2       1       1       2       1       1       2       1
       1       2       1       1       2       1       1       2       1       1
       2       1       1       2       1       1       2       1       1       2
       1       1       2       1       1       2       1       1       2       1
       1       2       1       1       2       1       1       2       1       1
       2       1       1       2       1       1       2       1       1       2
       1       1       2       1       1       2       1       1       2       1
       1       2       1       1       2       1       1       2       1       1
       2       1       1       2       1       1       2       1       1       2
       1       1       2       1       1       2       1       1       2       1
       1       2       1       1       2       1       1       2       1       1
       2       1       1       2       1       1       2       1       1       2
       1       1       2       1       1       2       1       1       2       1
       1       2       1       1       2       1       1       2       1       1
       2       1       1       2       1       1       2       1       1       2
       1       1       2       1       1       2       1       1       2       1
       1       2       1       1       2       1       1       2       1       1
       2       1       1       2       1       1       2       1       1       2
       1       1       2       1       1       2       1       1       2       1
       1       2       1       1       2       1       1       2       1       1
       2       1       1       2       1       1       2       1       1       2
       1       1       2       1       1       2       1       1       2       1
       1       2       1       1       2       1       1       2       1       1
       2       1       1       2       1       1       2       1       1       2
       1       1       2       1       1       2       1       1       2       1
       1       2       1       1       2       1       1       2       1       1
       2       1       1       2       1       1       2       1       1       2
       1       1       2       1       1       2       1       1       2       1
       1       2       1       1       2       1       1       2       1       1
       2       1       1       2       1       1       2       1       1       2
       1       1       2       1       1       2       1       1       2       1
       1       2       1       1       2       1       1       2       1       1
       2       1       1       2       1       1       2       1       1       2
       1       1       2       1       1       2       1       1       2       1
       1       2       1       1       2       1       1       2       1       1
       2       1       1       2       1       1       2       1       1       2
       1       1       2       1       1       2       1       1       2       1
       1       2       1       1       2       1       1       2       1       1
       2       1       1       2       1       1       2       1       1       2
       1       1       2       1       1       2       1       1       2       1
       1       2       1       1       2       1       1       2       1       1
       2       1       1       2       1       1       2       1       1       2
       1       1       2       1       1       2       1       1       2       1
       1       2       1       1       2       1       1       2       1       1
       2       1       1       2       1       1       2       1       1       2
       1       1       2       1       1       2       1       1       2       1
       1       2       1       1       2       1       1       2       1       1
       2       1       1       2       1       1       2       1       1       2
       1       1       2       1       1       2       1       1       2       1
       1       2       1       1       2       1       1       2       1       1
       2       1       1       2       1       1       2       1       1       2
       1       1       2       1       1       2       1       1       2       1
       1       2       1       1       2       1       1       2       1       1
       2       1       1       2       1       1       2       1       1       2
       1       1       2       1       1       2       1       1       2       1
       1       2       1       1       2       1       1       2       1       1
       2       1       1       2       1       1       2       1       1       2
       1       1       2       1       1       2       1       1       2       1
       1       2       1       1       2       1       1       2       1       1
       2       1       1       2       1       1       2       1       1       2
       1       1       2       1       1       2       1       1       2       1
       1       2       1       1       2       1       1       2       1       1
       2       1       1       2       1       1       2       1       1       2
       1       1       2       1       1       2       1       1       2       1
       1       2       1       1       2       1       1       2       1       1
       2       1       1       2       1       1       2       1       1       2
       1       1       2       1       1       2       1       1       2       1
       1       2       1       1       2       1       1       2       1       1
       2       1       1       2       1       1       2       1       1       2
       1       1       2       1       1       2       1       1       2       1
       1       2       1       1       2       1       1       2       1       1
       2       1       1       2       1       1       2       1       1       2
       1       1       2       1       1       2       1       1       2       1
       1       2       1       1       2       1       1       2       1       1
       2       1       1       2       1       1       2       1       1       2
       1       1       2       1       1       2       1       1       2       1
       1       2       1       1       2       1       1       2       1       1
       2       1       1       2       1       1       2       1       1       2
       1       1       2       1       1       2       1       1       2       1
       1       2       1       1       2       1       1       2       1       1
       2       1       1       2       1       1       2       1       1       2
       1       1       2       1       1       2       1       1       2       1
       1       2       1       1       2       1       1       2       1       1
       2       1       1       2       1       1       2       1       1       2
       1       1       2       1       1       2       1       1       2       1
       1       2       1       1       2       1       1       2       1       1
       2       1       1       2       1       1       2       1       1       2
       1       1       2       1       1       2       1       1       2       1
       1       2       1       1       2       1       1       2       1       1
       2       1       1       2       1       1       2       1       1       2
       1       1       2       1       1       2       1       1       2       1
       1       2       1       1       2       1       1       2       1       1
       2       1       1       2       1       1       2       1       1       2
       1       1       2       1       1       2       1       1       2       1
       1       2       1       1       2       1       1       2       1       1
       2       1       1       2       1       1       2       1       1       2
       1       1       2       1       1       2       1       1       2       1
       1       2       1       1       2       1       1       2       1       1
       2       1       1       2       1       1       2       1       1       2
       1       1       2       1       1       2       1       1       2       1
       1       2       1       1       2       1       1       2       1       1
       2       1       1       2       1       1       2       1       1       2
       1       1       2       1       1       2       1       1       2       1
       1       2       1       1       2       1       1       2       1       1
       2       1       1       2       1       1       2       1       1       2
       1       1       2       1       1       2       1       1       2       1
       1       2       1       1       2       1       1       2       1       1
       2       1       1       2       1       1       2       1       1       2
       1       1       2       1       1       2       1       1       2       1
       1       2       1       1       2       1       1       2       1       1
       2       1       1       2       1       1       2       1       1       2
       1       1       2       1       1       2       1       1       2       1
       1       2       1       1       2       1       1       2       1       1
       2       1       1       2       1       1       2       1       1       2
       1       1       2       1       1       2       1       1       2       1
       1       2       1       1       2       1       1       2       1       1
       2       1       1       2       1       1       2       1       1       2
       1       1       2       1       1       2       1       1       2       1
       1       2       1       1       2       1       1       2       1       1
       2       1       1       2       1       1       2       1       1       2
       1       1       2       1       1       2       1       1       2       1
       1       2       1       1       2       1       1       2       1       1
       2       1       1       2       1       1       2       1       1       2
       1       1       2       1       1       2       1       1       2       1
       1       2       1       1       2       1       1       2       1       1
       2       1       1       2       1       1       2       1       1       2
       1       1       2       1       1       2       1       1       2       1
       1       2       1       1       2       1       1       2       1       1
       2       1       1       2       1       1       2       1       1       2
       1       1       2       1       1       2       1       1       2       1
       1       2       1       1       2       1       1       2       1       1
       2       1       1       2       1       1       2       1       1       2
       1       1       2       1       1       2       1       1       2       1
       1       2       1       1       2       1       1       2       1       1
       2       1       1       2       1       1       2       1       1       2
       1       1       2       1       1       2       1       1       2       1
       1       2       1       1       2       1       1       2       1       1
       2       1       1       2       1       1       2       1       1       2
       1       1       2       1       1       2       1       1       2       1
       1       2       1       1       2       1       1       2       1       1
       2       1       1       2       1       1       2       1       1       2
       1       1       2       1       1       2       1       1       2       1
       1       2       1       1       2       1       1       2       1       1
       2       1       1       2       1       1       2       1       1       2
       1       1       2       1       1       2       1       1       2       1
       1       2       1       1       2       1       1       2       1       1
       2       1       1       2       1       1       2       1       1       2
       1       1       2       1       1       2       1       1       2       1
       1       2       1       1       2       1       1       2       1       1
       2       1       1       2       1       1       2       1       1       2
       1       1       2       1       1       2       1       1       2       1
       1       2       1       1       2       1       1       2       1       1
       2       1       1       2       1       1       2       1       1       2
       1       1       2       1       1       2       1       1       2       1
       1       2       1       1       2       1       1       2       1       1
       2       1       1       2       1       1       2       1       1       2
       1       1       2       1       1       2       1       1       2       1
       1       2       1       1       2       1       1       2       1       1
       2       1       1       2       1       1       2       1       1       2
       1       1       2       1       1       2       1       1       2       1
       1       2       1       1       2       1       1       2       1       1
       2       1       1       2       1       1       2       1       1       2
       1       1       2       1       1       2       1       1       2       1
       1       2       1       1       2       1       1       2       1       1
       2       1       1       2       1       1       2       1       1       2
       1       1       2       1       1       2       1       1       2       1
       1       2       1       1       2       1       1       2       1       1
       2       1       1       2       1       1       2       1       1       2
       1       1       2       1       1       2       1       1       2       1
       1       2       1       1       2       1       1       2       1       1
       2       1       1       2       1       1       2       1       1       2
       1       1       2       1       1       2       1       1       2       1
       1       2       1       1       2       1       1       2       1       1
       2       1       1       2       1       1       2       1       1       2
       1       1       2       1       1       2       1       1       2       1
       1       2       1       1       2       1       1       2       1       1
       2       1       1       2       1       1       2       1       1       2
       1       1       2       1       1       2       1       1       2       1
       1       2       1       1       2       1       1       2       1       1
       2       1       1       2       1       1       2       1       1       2
       1       1       2       1       1       2       1       1       2       1
       1       2       1       1       2       1       1       2       1       1
       2       1       1       2       1       1       2       1       1       2
       1       1       2       1       1       2       1       1       2       1
       1       2       1       1       2       1       1       2       1       1
       2       1       1       2       1       1       2       1       1       2
       1       1       2       1       1       2       1       1       2       1
       1       2       1       1       2       1       1       2       1       1
       2       1       1       2       1       1       2       1       1       2
       1       1       2       1       1       2       1       1       2       1
       1       2       1       1       2       1       1       2       1       1
       2       1       1       2       1       1       2       1       1       2
       1       1       2       1       1       2       1       1       2       1
       1       2       1       1       2       1       1       2       1       1
       2       1       1       2       1       1       2       1       1       2
       1       1       2       1       1       2       1       1       2       1
       1       2       1       1       2       1       1       2       1       1
       2       1       1       2       1       1       2       1       1       2
       1       1       2       1       1       2       1       1       2       1
       1       2       1       1       2       1       1       2       1       1
       2       1       1       2       1       1       2       1       1       2
       1       1       2       1       1       2       1       1       2       1
       1       2       1       1       2       1       1       2       1       1
       2       1       1       2       1       1       2       1       1       2
       1       1       2       1       1       2       1       1       2       1
       1       2       1       1       2       1       1       2       1       1
       2       1       1       2       1       1       2       1       1       2
       1       1       2       1       1       2       1       1       2       1
       1       2       1       1       2       1       1       2       1       1
       2       1       1       2       1       1       2       1       1       2
       1       1       2       1       1       2       1       1       2       1
       1       2       1       1       2       1       1       2       1       1
       2       1       1       2       1       1       2       1       1       2
       1       1       2       1       1       2       1       1       2       1
       1       2       1       1       2       1       1       2       1       1
       2       1       1       2       1       1       2       1       1       2
       1       1       2       1       1       2       1       1       2       1
       1       2       1       1       2       1       1       2       1       1
       2       1       1       2       1       1       2       1       1       2
       1       1       2       1       1       2       1       1       2       1
       1       2       1       1       2       1       1       2       1       1
       2       1       1       2       1       1       2       1       1       2
       1       1       2       1       1       2       1       1       2       1
       1       2       1       1       2       1       1       2       1       1
       2       1       1       2       1       1       2       1       1       2
       1       1       2       1       1       2       1       1       2       1
       1       2       1       1       2       1       1       2       1       1
       2       1       1       2       1       1       2       1       1       2
       1       1       2       1       1       2       1       1       2       1
       1       2       1       1       2       1       1       2       1       1
       2       1       1       2       1       1       2       1       1       2
       1       1       2       1       1       2       1       1       2       1
       1       2       1       1       2       1       1       2       1       1
       2       1       1       2       1       1       2       1       1       2
       1       1       2       1       1       2       1       1       2       1
       1       2       1       1       2       1       1       2       1       1
       2       1       1       2       1       1       2       1       1       2
       1       1       2       1       1       2       1       1       2       1
       1       2       1       1       2       1       1       2       1       1
       2       1       1       2       1       1       2       1       1       2
       1       1       2       1       1       2       1       1       2       1
       1       2       1       1       2       1       1       2       1       1
       2       1       1       2       1       1       2       1       1       2
       1       1       2       1       1       2       1       1       2       1
       1       2       1       1       2       1       1       2       1       1
       2       1       1       2       1       1       2       1       1       2
       1       1       2       1       1       2       1       1       2       1
       1       2       1       1       2       1       1       2       1       1
       2       1       1       2       1       1       2       1       1       2
       1       1       2       1       1       2       1       1       2       1
       1       2       1       1       2       1       1       2       1       1
       2       1       1       2       1       1       2       1       1       2
       1       1       2       1       1       2       1       1       2       1
       1       2       1       1       2       1       1       2       1       1
       2       1       1       2       1       1       2       1       1       2
       1       1       2       1       1       2       1       1       2       1
       1       2       1       1       2       1       1       2       1       1
       2       1       1       2       1       1       2       1       1       2
       1       1       2       1       1       2       1       1       2       1
       1       2       1       1       2       1       1       2       1       1
       2       1       1       2       1       1       2       1       1       2
       1       1       2       1       1       2       1       1       2       1
       1       2       1       1       2       1       1       2       1       1
       2       1       1       2       1       1       2       1       1       2
       1       1       2       1       1       2       1       1       2       1
       1       2       1       1       2       1       1       2       1       1
       2       1       1       2       1       1       2       1       1       2
       1       1       2       1       1       2       1       1       2       1
       1       2       1       1       2       1       1       2       1       1
       2       1       1       2       1       1       2       1       1       2
       1       1       2       1       1       2       1       1       2       1
       1       2       1       1       2       1       1       2       1       1
       2       1       1       2       1       1       2       1       1       2
       1       1       2       1       1       2       1       1       2       1
       1       2       1       1       2       1       1       2       1       1
       2       1       1       2       1       1       2       1       1       2
       1       1       2       1       1       2       1       1       2       1
       1       2       1       1       2       1       1       2       1       1
       2       1       1       2       1       1       2       1       1       2
       1       1       2       1       1       2       1       1       2       1
       1       2       1       1       2       1       1       2       1       1
       2       1       1       2       1       1       2       1       1       2
       1       1       2       1       1       2       1       1       2       1
       1       2       1       1       2       1       1       2       1       1
       2       1       1       2       1       1       2       1       1       2
       1       1       2       1       1       2       1       1       2       1
       1       2       1       1       2       1       1       2       1       1
       2       1       1       2       1       1       2       1       1       2
       1       1       2       1       1       2       1       1       2       1
       1       2       1       1       2       1       1       2       1       1
       2       1       1       2       1       1       2       1       1       2
       1       1       2       1       1       2       1       1       2       1
       1       2       1       1       2       1       1       2       1       1
       2       1       1       2       1       1       2       1       1       2
       1       1       2       1       1       2       1       1       2       1
       1       2       1       1       2       1       1       2       1       1
       2       1       1       2       1       1       2       1       1       2
       1       1       2       1       1       2       1       1       2       1
       1       2       1       1       2       1       1       2       1       1
       2       1       1       2       1       1       2       1       1       2
       1       1       2       1       1       2       1       1       2       1
       1       2       1       1       2       1       1       2       1       1
       2       1       1       2       1       1       2       1       1       2
       1       1       2       1       1       2       1       1       2       1
       1       2       1       1       2       1       1       2       1       1
       2       1       1       2       1       1       2       1       1       2
       1       1       2       1       1       2       1       1       2       1
       1       2       1       1       2       1       1       2       1       1
       2       1       1       2       1       1       2       1       1       2
       1       1       2       1       1       2       1       1       2       1
       1       2       1       1       2       1       1       2       1       1
       2       1       1       2       1       1       2       1       1       2
       1       1       2       1       1       2       1       1       2       1
       1       2       1       1       2       1       1       2       1       1
       2       1       1       2       1       1       2       1       1       2
       1       1       2       1       1       2       1       1       2       1
       1       2       1       1       2       1       1       2       1       1
       2       1       1       2       1       1       2       1       1       2
       1       1       2       1       1       2       1       1       2       1
       1       2       1       1       2       1       1       2       1       1
       2       1       1       2       1       1       2       1       1       2
       1       1       2       1       1       2       1       1       2       1
       1       2       1       1       2       1       1       2       1       1
       2       1       1       2       1       1       2       1       1       2
       1       1       2       1       1       2       1       1       2       1
       1       2       1       1       2       1       1       2       1       1
       2       1       1       2       1       1       2       1       1       2
       1       1       2       1       1       2       1       1       2       1
       1       2       1       1       2       1       1       2       1       1
       2       1       1       2       1       1       2       1       1       2
       1       1       2       1       1       2       1       1       2       1
       1       2       1       1       2       1       1       2       1       1
       2       1       1       2       1       1       2       1       1       2
       1       1       2       1       1       2       1       1       2       1
       1       2       1       1       2       1       1       2       1       1
       2       1       1       2       1       1       2       1       1       2
       1       1       2       1       1       2       1       1       2       1
       1       2       1       1       2       1       1       2       1       1
       2       1       1       2       1       1       2       1       1       2
       1       1       2       1       1       2       1       1       2       1
       1       2       1       1       2       1       1       2       1       1
       2       1       1       2       1       1       2       1       1       2
       1       1       2       1       1       2       1       1       2       1
       1       2       1       1       2       1       1       2       1       1
       2       1       1       2       1       1       2       1       1       2
       1       1       2       1       1       2       1       1       2       1
       1       2       1       1       2       1       1       2       1       1
       2       1       1       2       1       1       2       1       1       2
       1       1       2       1       1       2       1       1       2       1
       1       2       1       1       2       1       1       2       1       1
       2       1       1       2       1       1       2       1       1       2
       1       1       2       1       1       2       1       1       2       1
       1       2       1       1       2       1       1       2       1       1
       2       1       1       2       1       1       2       1       1       2
       1       1       2       1       1       2       1       1       2       1
       1       2       1       1       2       1       1       2       1       1
       2       1       1       2       1       1       2       1       1       2
       1       1       2       1       1       2       1       1       2       1
       1       2       1       1       2       1       1       2       1       1
       2       1       1       2       1       1       2       1       1       2
       1       1       2       1       1       2       1       1       2       1
       1       2       1       1       2       1       1       2       1       1
       2       1       1       2       1       1       2       1       1       2
       1       1       2       1       1       2       1       1       2       1
       1       2       1       1       2       1       1       2       1       1
       2       1       1       2       1       1       2       1       1       2
       1       1       2       1       1       2       1       1       2       1
       1       2       1       1       2       1       1       2       1       1
       2       1       1       2       1       1       2       1       1       2
       1       1       2       1       1       2       1       1       2       1
       1       2       1       1       2       1       1       2       1       1
       2       1       1       2       1       1       2       1       1       2
       1       1       2       1       1       2       1       1       2       1
       1       2       1       1       2       1       1       2       1       1
       2       1       1       2       1       1       2       1       1       2
       1       1       2       1       1       2       1       1       2       1
       1       2       1       1       2       1       1       2       1       1
       2       1       1       2       1       1       2       1       1       2
       1       1       2       1       1       2       1       1       2       1
       1       2       1       1       2       1       1       2       1       1
       2       1       1       2       1       1       2       1       1       2
       1       1       2       1       1       2       1       1       2       1
       1       2       1       1       2       1       1       2       1       1
       2       1       1       2       1       1       2       1       1       2
       1       1       2       1       1       2       1       1       2       1
       1       2       1       1       2       1       1       2       1       1
       2       1       1       2       1       1       2       1       1       2
       1       1       2       1       1       2       1       1       2       1
       1       2       1       1       2       1       1       2       1       1
       2       1       1       2       1       1       2       1       1       2
       1       1       2       1       1       2       1       1       2       1
       1       2       1       1       2       1       1       2       1       1
       2       1       1       2       1       1       2       1       1       2
       1       1       2       1       1       2       1       1       2       1
       1       2       1       1       2       1       1       2       1       1
       2       1       1       2       1       1       2       1       1       2
       1       1       2       1       1       2       1       1       2       1
       1       2       1       1       2       1       1       2       1       1
       2       1       1       2       1       1       2       1       1       2
       1       1       2       1       1       2       1       1       2       1
       1       2       1       1       2       1       1       2       1       1
       2       1       1       2       1       1       2       1       1       2
       1       1       2       1       1       2       1       1       2       1
       1       2       1       1       2       1       1       2       1       1
       2       1       1       2       1       1       2       1       1       2
       1       1       2       1       1       2       1       1       2       1
       1       2       1       1       2       1       1       2       1       1
       2       1       1       2       1       1       2       1       1       2
       1       1       2       1       1       2       1       1       2       1
       1       2       1       1       2       1       1       2       1       1
       2       1       1       2       1       1       2       1       1       2
       1       1       2       1       1       2       1       1       2       1
       1       2       1       1       2       1       1       2       1       1
       2       1       1       2       1       1       2       1       1       2
       1       1       2       1       1       2       1       1       2       1
       1       2       1       1       2       1       1       2       1       1
       2       1       1       2       1       1       2       1       1       2
       1       1       2       1       1       2       1       1       2       1
       1       2       1       1       2       1       1       2       1       1
       2       1       1       2       1       1       2       1       1       2
       1       1       2       1       1       2       1       1       2       1
       1       2       1       1       2       1       1       2       1       1
       2       1       1       2       1       1       2       1       1       2
       1       1       2       1       1       2       1       1       2       1
       1       2       1       1       2       1       1       2       1       1
       2       1       1       2       1       1       2       1       1       2
       1       1       2       1       1       2       1       1       2       1
       1       2       1       1       2       1       1       2       1       1
       2       1       1       2       1       1       2       1       1       2
       1       1       2       1       1       2       1       1       2       1
       1       2       1       1       2       1       1       2       1       1
       2       1       1       2       1       1       2       1       1       2
       1       1       2       1       1       2       1       1       2       1
       1       2       1       1       2       1       1       2       1       1
       2       1       1       2       1       1       2       1       1       2
       1       1       2       1       1       2       1       1       2       1
       1       2       1       1       2       1       1       2       1       1
       2       1       1       2       1       1       2       1       1       2
       1       1       2       1       1       2       1       1       2       1
       1       2       1       1       2       1       1       2       1       1
       2       1       1       2       1       1       2       1       1       2
       1       1       2       1       1       2       1       1       2       1
       1       2       1       1       2       1       1       2       1       1
       2       1       1       2       1       1       2       1       1       2
       1       1       2       1       1       2       1       1       2       1
       1       2       1       1       2       1       1       2       1       1
       2       1       1       2       1       1       2       1       1       2
       1       1       2       1       1       2       1       1       2       1
       1       2       1       1       2       1       1       2       1       1
       2       1       1       2       1       1       2       1       1       2
       1       1       2       1       1       2       1       1       2       1
       1       2       1       1       2       1       1       2       1       1
       2       1       1       2       1       1       2       1       1       2
       1       1       2       1       1       2       1       1       2       1
       1       2       1       1       2       1       1       2       1       1
       2       1       1       2       1       1       2       1       1       2
       1       1       2       1       1       2       1       1       2       1
       1       2       1       1       2       1       1       2       1       1
       2       1       1       2       1       1       2       1       1       2
       1       1       2       1       1       2       1       1       2       1
       1       2       1       1       2       1       1       2       1       1
       2       1       1       2       1       1       2       1       1       2
       1       1       2       1       1       2       1       1       2       1
       1       2       1       1       2       1       1       2       1       1
       2       1       1       2       1       1       2       1       1       2
       1       1       2       1       1       2       1       1       2       1
       1       2       1       1       2       1       1       2       1       1
       2       1       1       2       1       1       2       1       1       2
       1       1       2       1       1       2       1       1       2       1
       1       2       1       1       2       1       1       2       1       1
       2       1       1       2       1       1       2       1       1       2
       1       1       2       1       1       2       1       1       2       1
       1       2       1       1       2       1       1       2       1       1
       2       1       1       2       1       1       2       1       1       2
       1       1       2       1       1       2       1       1       2       1
       1       2       1       1       2       1       1       2       1       1
       2       1       1       2       1       1       2       1       1       2
       1       1       2       1       1       2       1       1       2       1
       1       2       1       1       2       1       1       2       1       1
       2       1       1       2       1       1       2       1       1       2
       1       1       2       1       1       2       1       1       2       1
       1       2       1       1       2       1       1       2       1       1
       2       1       1       2       1       1       2       1       1       2
       1       1       2       1       1       2       1       1       2       1
       1       2       1       1       2       1       1       2       1       1
       2       1       1       2       1       1       2       1       1       2
       1       1       2       1       1       2       1       1       2       1
       1       2       1       1       2       1       1       2       1       1
       2       1       1       2       1       1       2       1       1       2
       1       1       2       1       1       2       1       1       2       1
       1       2       1       1       2       1       1       2       1       1
       2       1       1       2       1       1       2       1       1       2
       1       1       2       1       1       2       1       1       2       1
       1       2       1       1       2       1       1       2       1       1
       2       1       1       2       1       1       2       1       1       2
       1       1       2       1       1       2       1       1       2       1
       1       2       1       1       2       1       1       2       1       1
       2       1       1       2       1       1       2       1       1       2
       1       1       2       1       1       2       1       1       2       1
       1       2       1       1       2       1       1       2       1       1
       2       1       1       2       1       1       2       1       1       2
       1       1       2       1       1       2       1       1       2       1
       1       2       1       1       2       1       1       2       1       1
       2       1       1       2       1       1       2       1       1       2
       1       1       2       1       1       2       1       1       2       1
       1       2       1       1       2       1       1       2       1       1
       2       1       1       2       1       1       2       1       1       2
       1       1       2       1       1       2       1       1       2       1
       1       2       1       1       2       1       1       2       1       1
       2       1       1       2       1       1       2       1       1       2
       1       1       2       1       1       2       1       1       2       1
       1       2       1       1       2       1       1       2       1       1
       2       1       1       2       1       1       2       1       1       2
       1       1       2       1       1       2       1       1       2       1
       1       2       1       1       2       1       1       2       1       1
       2       1       1       2       1       1       2       1       1       2
       1       1       2       1       1       2       1       1       2       1
       1       2       1       1       2       1       1       2       1       1
       2       1       1       2       1       1       2       1       1       2
       1       1       2       1       1       2       1       1       2       1
       1       2       1       1       2       1       1       2       1       1
       2       1       1       2       1       1       2       1       1       2
       1       1       2       1       1       2       1       1       2       1
       1       2       1       1       2       1       1       2       1       1
       2       1       1       2       1       1       2       1       1       2
       1       1       2       1       1       2       1       1       2       1
       1       2       1       1       2       1       1       2       1       1
       2       1       1       2       1       1       2       1       1       2
       1       1       2       1       1       2       1       1       2       1
       1       2       1       1       2       1       1       2       1       1
       2       1       1       2       1       1       2       1       1       2
       1       1       2       1       1       2       1       1       2       1
       1       2       1       1       2       1       1       2       1       1
       2       1       1       2       1       1       2       1       1       2
       1       1       2       1       1       2       1       1       2       1
       1       2       1       1       2       1       1       2       1       1
       2       1       1       2       1       1       2       1       1       2
       1       1       2       1       1       2       1       1       2       1
       1       2       1       1       2       1       1       2       1       1
       2       1       1       2       1       1       2       1       1       2
       1       1       2       1       1       2       1       1       2       1
       1       2       1       1       2       1       1       2       1       1
       2       1       1       2       1       1       2       1       1       2
       1       1       2       1       1       2       1       1       2       1
       1       2       1       1       2       1       1       2       1       1
       2       1       1       2       1       1       2       1       1       2
       1       1       2       1       1       2       1       1       2       1
       1       2       1       1       2       1       1       2       1       1
       2       1       1       2       1       1       2       1       1       2
       1       1       2       1       1       2       1       1       2       1
       1       2       1       1       2       1       1       2       1       1
       2       1       1       2       1       1       2       1       1       2
       1       1       2       1       1       2       1       1       2       1
       1       2       1       1       2       1       1       2       1       1
       2       1       1       2       1       1       2       1       1       2
       1       1       2       1       1       2       1       1       2       1
       1       2       1       1       2       1       1       2       1       1
       2       1       1       2       1       1       2       1       1       2
       1       1       2       1       1       2       1       1       2       1
       1       2       1       1       2       1       1       2       1       1
       2       1       1       2       1       1       2       1       1       2
       1       1       2       1       1       2       1       1       2       1
       1       2       1       1       2       1       1       2       1       1
       2       1       1       2       1       1       2       1       1       2
       1       1       2       1       1       2       1       1       2       1
       1       2       1       1       2       1       1       2       1       1
       2       1       1       2       1       1       2       1       1       2
       1       1       2       1       1       2       1       1       2       1
       1       2       1       1       2       1       1       2       1       1
       2       1       1       2       1       1       2       1       1       2
       1       1       2       1       1       2       1       1       2       1
       1       2       1       1       2       1       1       2       1       1
       2       1       1       2       1       1       2       1       1       2
       1       1       2       1       1       2       1       1       2       1
       1       2       1       1       2       1       1       2       1       1
       2       1       1       2       1       1       2       1       1       2
       1       1       2       1       1       2       1       1       2       1
       1       2       1       1       2       1       1       2       1       1
       2       1       1       2       1       1       2       1       1       2
       1       1       2       1       1       2       1       1       2       1
       1       2       1       1       2       1       1       2       1       1
       2       1       1       2       1       1       2       1       1       2
       1       1       2       1       1       2       1       1       2       1
       1       2       1       1       2       1       1       2       1       1
       2       1       1       2       1       1       2       1       1       2
       1       1       2       1       1       2       1       1       2       1
       1       2       1       1       2       1       1       2       1       1
       2       1       1       2       1       1       2       1       1       2
       1       1       2       1       1       2       1       1       2       1
       1       2       1       1       2       1       1       2       1       1
       2       1       1       2       1       1       2       1       1       2
       1       1       2       1       1       2       1       1       2       1
       1       2       1       1       2       1       1       2       1       1
       2       1       1       2       1       1       2       1       1       2
       1       1       2       1       1       2       1       1       2       1
       1       2       1       1       2       1       1       2       1       1
       2       1       1       2       1       1       2       1       1       2
       1       1       2       1       1       2       1       1       2       1
       1       2       1       1       2       1       1       2       1       1
       2       1       1       2       1       1       2       1       1       2
       1       1       2       1       1       2       1       1       2       1
       1       2       1       1       2       1       1       2       1       1
       2       1       1       2       1       1       2       1       1       2
       1       1       2       1       1       2       1       1       2       1
       1       2       1       1       2       1       1       2       1       1
       2       1       1       2       1       1       2       1       1       2
       1       1       2       1       1       2       1       1       2       1
       1       2       1       1       2       1       1       2       1       1
       2       1       1       2       1       1       2       1       1       2
       1       1       2       1       1       2       1       1       2       1
       1       2       1       1       2       1       1       2       1       1
       2       1       1       2       1       1       2       1       1       2
       1       1       2       1       1       2       1       1       2       1
       1       2       1       1       2       1       1       2       1       1
       2       1       1       2       1       1       2       1       1       2
       1       1       2       1       1       2       1       1       2       1
       1       2       1       1       2       1       1       2       1       1
       2       1       1       2       1       1       2       1       1       2
       1       1       2       1       1       2       1       1       2       1
       1       2       1       1       2       1       1       2       1       1
       2       1       1       2       1       1       2       1       1       2
       1       1       2       1       1       2       1       1       2       1
       1       2       1       1       2       1       1       2       1       1
       2       1       1       2       1       1       2       1       1       2
       1       1       2       1       1       2       1       1       2       1
       1       2       1       1       2       1       1       2       1       1
       2       1       1       2       1       1       2       1       1       2
       1       1       2       1       1       2       1       1       2       1
       1       2       1       1       2       1       1       2       1       1
       2       1       1       2       1       1       2       1       1       2
       1       1       2       1       1       2       1       1       2       1
       1       2       1       1       2       1       1       2       1       1
       2       1       1       2       1       1       2       1       1       2
       1       1       2       1       1       2       1       1       2       1
       1       2       1       1       2       1       1       2       1       1
       2       1       1       2       1       1       2       1       1       2
       1       1       2       1       1       2       1       1       2       1
       1       2       1       1       2       1       1       2       1       1
       2       1       1       2       1       1       2       1       1       2
       1       1       2       1       1       2       1       1       2       1
       1       2       1       1       2       1       1       2       1       1
       2       1       1       2       1       1       2       1       1       2
       1       1       2       1       1       2       1       1       2       1
       1       2       1       1       2       1       1       2       1       1
       2       1       1       2       1       1       2       1       1       2
       1       1       2       1       1       2       1       1       2       1
       1       2       1       1       2       1       1       2       1       1
       2       1       1       2       1       1       2       1       1       2
       1       1       2       1       1       2       1       1       2       1
       1       2       1       1       2       1       1       2       1       1
       2       1       1       2       1       1       2       1       1       2
       1       1       2       1       1       2       1       1       2       1
       1       2       1       1       2       1       1       2       1       1
       2       1       1       2       1       1       2       1       1       2
       1       1       2       1       1       2       1       1       2       1
       1       2       1       1       2       1       1       2       1       1
       2       1       1       2       1       1       2       1       1       2
       1       1       2       1       1       2       1       1       2       1
       1       2       1       1       2       1       1       2       1       1
       2       1       1       2       1       1       2       1       1       2
       1       1       2       1       1       2       1       1       2       1
       1       2       1       1       2       1       1       2       1       1
       2       1       1       2       1       1       2       1       1       2
       1       1       2       1       1       2       1       1       2       1
       1       2       1       1       2       1       1       2       1       1
       2       1       1       2       1       1       2       1       1       2
       1       1       2       1       1       2       1       1       2       1
       1       2       1       1       2       1       1       2       1       1
       2       1       1       2       1       1       2       1       1       2
       1       1       2       1       1       2       1       1       2       1
       1       2       1       1       2       1       1       2       1       1
       2       1       1       2       1       1       2       1       1       2
       1       1       2       1       1       2       1       1       2       1
       1       2       1       1       2       1       1       2       1       1
       2       1       1       2       1       1       2       1       1       2
       1       1       2       1       1       2       1       1       2       1
       1       2       1       1       2       1       1       2       1       1
       2       1       1       2       1       1       2       1       1       2
       1       1       2       1       1       2       1       1       2       1
       1       2       1       1       2       1       1       2       1       1
       2       1       1       2       1       1       2       1       1       2
       1       1       2       1       1       2       1       1       2       1
       1       2       1       1       2       1       1       2       1       1
       2       1       1       2       1       1       2       1       1       2
       1       1       2       1       1       2       1       1       2       1
       1       2       1       1       2       1       1       2       1       1
       2       1       1       2       1       1       2       1       1       2
       1       1       2       1       1       2       1       1       2       1
       1       2       1       1       2       1       1       2       1       1
       2       1       1       2       1       1       2       1       1       2
       1       1       2       1       1       2       1       1       2       1
       1       2       1       1       2       1       1       2       1       1
       2       1       1       2       1       1       2       1       1       2
       1       1       2       1       1       2       1       1       2       1
       1       2       1       1       2       1       1       2       1       1
       2       1       1       2       1       1       2       1       1       2
       1       1       2       1       1       2       1       1       2       1
       1       2       1       1       2       1       1       2       1       1
       2       1       1       2       1       1       2       1       1       2
       1       1       2       1       1       2       1       1       2       1
       1       2       1       1       2       1       1       2       1       1
       2       1       1       2       1       1       2       1       1       2
       1       1       2       1       1       2       1       1       2       1
       1       2       1       1       2       1       1       2       1       1
       2       1       1       2       1       1       2       1       1       2
       1       1       2       1       1       2       1       1       2       1
       1       2       1       1       2       1       1       2       1       1
       2       1       1       2       1       1       2       1       1       2
       1       1       2       1       1       2       1       1       2       1
       1       2       1       1       2       1       1       2       1       1
       2       1       1       2       1       1       2       1       1       2
       1       1       2       1       1       2       1       1       2       1
       1       2       1       1       2       1       1       2       1       1
       2       1       1       2       1       1       2       1       1       2
       1       1       2       1       1       2       1       1       2       1
       1       2       1       1       2       1       1       2       1       1
       2       1       1       2       1       1       2       1       1       2
       1       1       2       1       1       2       1       1       2       1
       1       2       1       1       2       1       1       2       1       1
       2       1       1       2       1       1       2       1       1       2
       1       1       2       1       1       2       1       1       2       1
       1       2       1       1       2       1       1       2       1       1
       2       1       1       2       1       1       2       1       1       2
       1       1       2       1       1       2       1       1       2       1
       1       2       1       1       2       1       1       2       1       1
       2       1       1       2       1       1       2       1       1       2
       1       1       2       1       1       2       1       1       2       1
       1       2       1       1       2       1       1       2       1       1
       2       1       1       2       1       1       2       1       1       2
       1       1       2       1       1       2       1       1       2       1
       1       2       1       1       2       1       1       2       1       1
       2       1       1       2       1       1       2       1       1       2
       1       1       2       1       1       2       1       1       2       1
       1       2       1       1       2       1       1       2       1       1
       2       1       1       2       1       1       2       1       1       2
       1       1       2       1       1       2       1       1       2       1
       1       2       1       1       2       1       1       2       1       1
       2       1       1       2       1       1       2       1       1       2
       1       1       2       1       1       2       1       1       2       1
       1       2       1       1       2       1       1       2       1       1
       2       1       1       2       1       1       2       1       1       2
       1       1       2       1       1       2       1       1       2       1
       1       2       1       1       2       1       1       2       1       1
       2       1       1       2       1       1       2       1       1       2
       1       1       2       1       1       2       1       1       2       1
       1       2       1       1       2       1       1       2       1       1
       2       1       1       2       1       1       2       1       1       2
       1       1       2       1       1       2       1       1       2       1
       1       2       1       1       2       1       1       2       1       1
       2       1       1       2       1       1       2       1       1       2
       1       1       2       1       1       2       1       1       2       1
       1       2       1       1       2       1       1       2       1       1
       2       1       1       2       1       1       2       1       1       2
       1       1       2       1       1       2       1       1       2       1
       1       2       1       1       2       1       1       2       1       1
       2       1       1       2       1       1       2       1       1       2
       1       1       2       1       1       2       1       1       2       1
       1       2       1       1       2       1       1       2       1       1
       2       1       1       2       1       1       2       1       1       2
       1       1       2       1       1       2       1       1       2       1
       1       2       1       1       2       1       1       2       1       1
       2       1       1       2       1       1       2       1       1       2
       1       1       2       1       1       2       1       1       2       1
       1       2       1       1       2       1       1       2       1       1
       2       1       1       2       1       1       2       1       1       2
       1       1       2       1       1       2       1       1       2       1
       1       2       1       1       2       1       1       2       1       1
       2       1       1       2       1       1       2       1       1       2
       1       1       2       1       1       2       1       1       2       1
       1       2       1       1       2       1       1       2       1       1
       2       1       1       2       1       1       2       1       1       2
       1       1       2       1       1       2       1       1       2       1
       1       2       1       1       2       1       1       2       1       1
       2       1       1       2       1       1       2       1       1       2
       1       1       2       1       1       2       1       1       2       1
       1       2       1       1       2       1       1       2       1       1
       2       1       1       2       1       1       2       1       1       2
       1       1       2       1       1       2       1       1       2       1
       1       2       1       1       2       1       1       2       1       1
       2       1       1       2       1       1       2       1       1       2
       1       1       2       1       1       2       1       1       2       1
       1       2       1       1       2       1       1       2       1       1
       2       1       1       2       1       1       2       1       1       2
       1       1       2       1       1       2       1       1       2       1
       1       2       1       1       2       1       1       2       1       1
       2       1       1       2       1       1       2       1       1       2
       1       1       2       1       1       2       1       1       2       1
       1       2       1       1       2       1       1       2       1       1
       2       1       1       2       1       1       2       1       1       2
       1       1       2       1       1       2       1       1       2       1
       1       2       1       1       2       1       1       2       1       1
       2       1       1       2       1       1       2       1       1       2
       1       1       2       1       1       2       1       1       2       1
       1       2       1       1       2       1       1       2       1       1
       2       1       1       2       1       1       2       1       1       2
       1       1       2       1       1       2       1       1       2       1
       1       2       1       1       2       1       1       2       1       1
       2       1       1       2       1       1       2       1       1       2
       1       1       2       1       1       2       1       1       2       1
       1       2       1       1       2       1       1       2       1       1
       2       1       1       2       1       1       2       1       1       2
       1       1       2       1       1       2       1       1       2       1
       1       2       1       1       2       1       1       2       1       1
       2       1       1       2       1       1       2       1       1       2
       1       1       2       1       1       2       1       1       2       1
       1       2       1       1       2       1       1       2       1       1
       2       1       1       2       1       1       2       1       1       2
       1       1       2       1       1       2       1       1       2       1
       1       2       1       1       2       1       1       2       1       1
       2       1       1       2       1       1       2       1       1       2
       1       1       2       1       1       2       1       1       2       1
       1       2       1       1       2       1       1       2       1       1
       2       1       1       2       1       1       2       1       1       2
       1       1       2       1       1       2       1       1       2       1
       1       2       1       1       2       1       1       2       1       1
       2       1       1       2       1       1       2       1       1       2
       1       1       2       1       1       2       1       1       2       1
       1       2       1       1       2       1       1       2       1       1
       2       1       1       2       1       1       2       1       1       2
       1       1       2       1       1       2       1       1       2       1
       1       2       1       1       2       1       1       2       1       1
       2       1       1       2       1       1       2       1       1       2
       1       1       2       1       1       2       1       1       2       1
       1       2       1       1       2       1       1       2       1       1
       2       1       1       2       1       1       2       1       1       2
       1       1       2       1       1       2       1       1       2       1
       1       2       1       1       2       1       1       2       1       1
       2       1       1       2       1       1       2       1       1       2
       1       1       2       1       1       2       1       1       2       1
       1       2       1       1       2       1       1       2       1       1
       2       1       1       2       1       1       2       1       1       2
       1       1       2       1       1       2       1       1       2       1
       1       2       1       1       2       1       1       2       1       1
       2       1       1       2       1       1       2       1       1       2
       1       1       2       1       1       2       1       1       2       1
       1       2       1       1       2       1       1       2       1       1
       2       1       1       2       1       1       2       1       1       2
       1       1       2       1       1       2       1       1       2       1
       1       2       1       1       2       1       1       2       1       1
       2       1       1       2       1       1       2       1       1       2
       1       1       2       1       1       2       1       1       2       1
       1       2       1       1       2       1       1       2       1       1
       2       1       1       2       1       1       2       1       1       2
       1       1       2       1       1       2       1       1       2       1
       1       2       1       1       2       1       1       2       1       1
       2       1       1       2       1       1       2       1       1       2
       1       1       2       1       1       2       1       1       2       1
       1       2       1       1       2       1       1       2       1       1
       2       1       1       2       1       1       2       1       1       2
       1       1       2       1       1       2       1       1       2       1
       1       2       1       1       2       1       1       2       1       1
       2       1       1       2       1       1       2       1       1       2
       1       1       2       1       1       2       1       1       2       1
       1       2       1       1       2       1       1       2       1       1
       2       1       1       2       1       1       2       1       1       2
       1       1       2       1       1       2       1       1       2       1
       1       2       1       1       2       1       1       2       1       1
       2       1       1       2       1       1       2       1       1       2
       1       1       2       1       1       2       1       1       2       1
       1       2       1       1       2       1       1       2       1       1
       2       1       1       2       1       1       2       1       1       2
       1       1       2       1       1       2       1       1       2       1
       1       2       1       1       2       1       1       2       1       1
       2       1       1       2       1       1       2       1       1       2
       1       1       2       1       1       2       1       1       2       1
       1       2       1       1       2       1       1       2       1       1
       2       1       1       2       1       1       2       1       1       2
       1       1       2       1       1       2       1       1       2       1
       1       2       1       1       2       1       1       2       1       1
       2       1       1       2       1       1       2       1       1       2
       1       1       2       1       1       2       1       1       2       1
       1       2       1       1       2       1       1       2       1       1
       2       1       1       2       1       1       2       1       1       2
       1       1       2       1       1       2       1       1       2       1
       1       2       1       1       2       1       1       2       1       1
       2       1       1       2       1       1       2       1       1       2
       1       1       2       1       1       2       1       1       2       1
       1       2       1       1       2       1       1       2       1       1
       2       1       1       2       1       1       2       1       1       2
       1       1       2       1       1       2       1       1       2       1
       1       2       1       1       2       1       1       2       1       1
       2       1       1       2       1       1       2       1       1       2
       1       1       2       1       1       2       1       1       2       1
       1       2       1       1       2       1       1       2       1       1
       2       1       1       2       1       1       2       1       1       2
       1       1       2       1       1       2       1       1       2       1
       1       2       1       1       2       1       1       2       1       1
       2       1       1       2       1       1       2       1       1       2
       1       1       2       1       1       2       1       1       2       1
       1       2       1       1       2       1       1       2       1       1
       2       1       1       2       1       1       2       1       1       2
       1       1       2       1       1       2       1       1       2       1
       1       2       1       1       2       1       1       2       1       1
       2       1       1       2       1       1       2       1       1       2
       1       1       2       1       1       2       1       1       2       1
       1       2       1       1       2       1       1       2       1       1
       2       1       1       2       1       1       2       1       1       2
       1       1       2       1       1       2       1       1       2       1
       1       2       1       1       2       1       1       2       1       1
       2       1       1       2       1       1       2       1       1       2
       1       1       2       1       1       2       1       1       2       1
       1       2       1       1       2       1       1       2       1       1
       2       1       1       2       1       1       2       1       1       2
       1       1       2       1       1       2       1       1       2       1
       1       2       1       1       2       1       1       2       1       1
       2       1       1       2       1       1       2       1       1       2
       1       1       2       1       1       2       1       1       2       1
       1       2       1       1       2       1       1       2       1       1
       2       1       1       2       1       1       2       1       1       2
       1       1       2       1       1       2       1       1       2       1
       1       2       1       1       2       1       1       2       1       1
       2       1       1       2       1       1       2       1       1       2
       1       1       2       1       1       2       1       1       2       1
       1       2       1       1       2       1       1       2       1       1
       2       1       1       2       1       1       2       1       1       2
       1       1       2       1       1       2       1       1       2       1
       1       2       1       1       2       1       1       2       1       1
       2       1       1       2       1       1       2       1       1       2
       1       1       2       1       1       2       1       1       2       1
       1       2       1       1       2       1       1       2       1       1
       2       1       1       2       1       1       2       1       1       2
       1       1       2       1       1       2       1       1       2       1
       1       2       1       1       2       1       1       2       1       1
       2       1       1       2       1       1       2       1       1       2
       1       1       2       1       1       2       1       1       2       1
       1       2       1       1       2       1       1       2       1       1
       2       1       1       2       1       1       2       1       1       2
       1       1       2       1       1       2       1       1       2       1
       1       2       1       1       2       1       1       2       1       1
       2       1       1       2       1       1       2       1       1       2
       1       1       2       1       1       2       1       1       2       1
       1       2       1       1       2       1       1       2       1       1
       2       1       1       2       1       1       2       1       1       2
       1       1       2       1       1       2       1       1       2       1
       1       2       1       1       2       1       1       2       1       1
       2       1       1       2       1       1       2       1       1       2
       1       1       2       1       1       2       1       1       2       1
       1       2       1       1       2       1       1       2       1       1
       2       1       1       2       1       1       2       1       1       2
       1       1       2       1       1       2       1       1       2       1
       1       2       1       1       2       1       1       2       1       1
       2       1       1       2       1       1       2       1       1       2
       1       1       2       1       1       2       1       1       2       1
       1       2       1       1       2       1       1       2       1       1
       2       1       1       2       1       1       2       1       1       2
       1       1       2       1       1       2       1       1       2       1
       1       2       1       1       2       1       1       2       1       1
       2       1       1       2       1       1       2       1       1       2
       1       1       2       1       1       2       1       1       2       1
       1       2       1       1       2       1       1       2       1       1
       2       1       1       2       1       1       2       1       1       2
       1       1       2       1       1       2       1       1       2       1
       1       2       1       1       2       1       1       2       1       1
       2       1       1       2       1       1       2       1       1       2
       1       1       2       1       1       2       1       1       2       1
       1       2       1       1       2       1       1       2       1       1
       2       1       1       2       1       1       2       1       1       2
       1       1       2       1       1       2       1       1       2       1
       1       2       1       1       2       1       1       2       1       1
       2       1       1       2       1       1       2       1       1       2
       1       1       2       1       1       2       1       1       2       1
       1       2       1       1       2       1       1       2       1       1
       2       1       1       2       1       1       2       1       1       2
       1       1       2       1       1       2       1       1       2       1
       1       2       1       1       2       1       1       2       1       1
       2       1       1       2       1       1       2       1       1       2
       1       1       2       1       1       2       1       1       2       1
       1       2       1       1       2       1       1       2       1       1
       2       1       1       2       1       1       2       1       1       2
       1       1       2       1       1       2       1       1       2       1
       1       2       1       1       2       1       1       2       1       1
       2       1       1       2       1       1       2       1       1       2
       1       1       2       1       1       2       1       1       2       1
       1       2       1       1       2       1       1       2       1       1
       2       1       1       2       1       1       2       1       1       2
       1       1       2       1       1       2       1       1       2       1
       1       2       1       1       2       1       1       2       1       1
       2       1       1       2       1       1       2       1       1       2
       1       1       2       1       1       2       1       1       2       1
       1       2       1       1       2       1       1       2       1       1
       2       1       1       2       1       1       2       1       1       2
       1       1       2       1       1       2       1       1       2       1
       1       2       1       1       2       1       1       2       1       1
       2       1       1       2       1       1       2       1       1       2
       1       1       2       1       1       2       1       1       2       1
       1       2       1       1       2       1       1       2       1       1
       2       1       1       2       1       1       2       1       1       2
       1       1       2       1       1       2       1       1       2       1
       1       2       1       1       2       1       1       2       1       1
       2       1       1       2       1       1       2       1       1       2
       1       1       2       1       1       2       1       1       2       1
       1       2       1       1       2       1       1       2       1       1
       2       1       1       2       1       1       2       1       1       2
       1       1       2       1       1       2       1       1       2       1
       1       2       1       1       2       1       1       2       1       1
       2       1       1       2       1       1       2       1       1       2
       1       1       2       1       1       2       1       1       2       1
       1       2       1       1       2       1       1       2       1       1
       2       1       1       2       1       1       2       1       1       2
       1       1       2       1       1       2       1       1       2       1
       1       2       1       1       2       1       1       2       1       1
       2       1       1       2       1       1       2       1       1       2
       1       1       2       1       1       2       1       1       2       1
       1       2       1       1       2       1       1       2       1       1
       2       1       1       2       1       1       2       1       1       2
       1       1       2       1       1       2       1       1       2       1
       1       2       1       1       2       1       1       2       1       1
       2       1       1       2       1       1       2       1       1       2
       1       1       2       1       1       2       1       1       2       1
       1       2       1       1       2       1       1       2       1       1
       2       1       1       2       1       1       2       1       1       2
       1       1       2       1       1       2       1       1       2       1
       1       2       1       1       2       1       1       2       1       1
       2       1       1       2       1       1       2       1       1       2
       1       1       2       1       1       2       1       1       2       1
       1       2       1       1       2       1       1       2       1       1
       2       1       1       2       1       1       2       1       1       2
       1       1       2       1       1       2       1       1       2       1
       1       2       1       1       2       1       1       2       1       1
       2       1       1       2       1       1       2       1       1       2
       1       1       2       1       1       2       1       1       2       1
       1       2       1       1       2       1       1       2       1       1
       2       1       1       2       1       1       2       1       1       2
       1       1       2       1       1       2       1       1       2       1
       1       2       1       1       2       1       1       2       1       1
       2       1       1       2       1       1       2       1       1       2
       1       1       2       1       1       2       1       1       2       1
       1       2       1       1       2       1       1       2       1       1
       2       1       1       2       1       1       2       1       1       2
       1       1       2       1       1       2       1       1       2       1
       1       2       1       1       2       1       1       2       1       1
       2       1       1       2       1       1       2       1       1       2
       1       1       2       1       1       2       1       1       2       1
       1       2       1       1       2       1       1       2       1       1
       2       1       1       2       1       1       2       1       1       2
       1       1       2       1       1       2       1       1       2       1
       1       2       1       1       2       1       1       2       1       1
       2       1       1       2       1       1       2       1       1       2
       1       1       2       1       1       2       1       1       2       1
       1       2       1       1       2       1       1       2       1       1
       2       1       1       2       1       1       2       1       1       2
       1       1       2       1       1       2       1       1       2       1
       1       2       1       1       2       1       1       2       1       1
       2       1       1       2       1       1       2       1       1       2
       1       1       2       1       1       2       1       1       2       1
       1       2       1       1       2       1       1       2       1       1
       2       1       1       2       1       1       2       1       1       2
       1       1       2       1       1       2       1       1       2       1
       1       2       1       1       2       1       1       2       1       1
       2       1       1       2       1       1       2       1       1       2
       1       1       2       1       1       2       1       1       2       1
       1       2       1       1       2       1       1       2       1       1
       2       1       1       2       1       1       2       1       1       2
       1       1       2       1       1       2       1       1       2       1
       1       2       1       1       2       1       1       2       1       1
       2       1       1       2       1       1       2       1       1       2
       1       1       2       1       1       2       1       1       2       1
       1       2       1       1       2       1       1       2       1       1
       2       1       1       2       1       1       2       1       1       2
       1       1       2       1       1       2       1       1       2       1
       1       2       1       1       2       1       1       2       1       1
       2       1       1       2       1       1       2       1       1       2
       1       1       2       1       1       2       1       1       2       1
       1       2       1       1       2       1       1       2       1       1
       2       1       1       2       1       1       2       1       1       2
       1       1       2       1       1       2       1       1       2       1
       1       2       1       1       2       1       1       2       1       1
       2       1       1       2       1       1       2       1       1       2
       1       1       2       1       1       2       1       1       2       1
       1       2       1       1       2       1       1       2       1       1
       2       1       1       2       1       1       2       1       1       2
       1       1       2       1       1       2       1       1       2       1
       1       2       1       1       2       1       1       2       1       1
       2       1       1       2       1       1       2       1       1       2
       1       1       2       1       1       2       1       1       2       1
       1       2       1       1       2       1       1       2       1       1
       2       1       1       2       1       1       2       1       1       2
       1       1       2       1       1       2       1       1       2       1
       1       2       1       1       2       1       1       2       1       1
       2       1       1       2       1       1       2       1       1       2
       1       1       2       1       1       2       1       1       2       1
       1       2       1       1       2       1       1       2       1       1
       2       1       1       2       1       1       2       1       1       2
       1       1       2       1       1       2       1       1       2       1
       1       2       1       1       2       1       1       2       1       1
       2       1       1       2       1       1       2       1       1       2
       1       1       2       1       1       2       1       1       2       1
       1       2       1       1       2       1       1       2       1       1
       2       1       1       2       1       1       2       1       1       2
       1       1       2       1       1       2       1       1       2       1
       1       2       1       1       2       1       1       2       1       1
       2       1       1       2       1       1       2       1       1       2
       1       1       2       1       1       2       1       1       2       1
       1       2       1       1       2       1       1       2       1       1
       2       1       1       2       1       1       2       1       1       2
       1       1       2       1       1       2       1       1       2       1
       1       2       1       1       2       1       1       2       1       1
       2       1       1       2       1       1       2       1       1       2
       1       1       2       1       1       2       1       1       2       1
       1       2       1       1       2       1       1       2       1       1
       2       1       1       2       1       1       2       1       1       2
       1       1       2       1       1       2       1       1       2       1
       1       2       1       1       2       1       1       2       1       1
       2       1       1       2       1       1       2       1       1       2
       1       1       2       1       1       2       1       1       2       1
       1       2       1       1       2       1       1       2       1       1
       2       1       1       2       1       1       2       1       1       2
       1       1       2       1       1       2       1       1       2       1
       1       2       1       1       2       1       1       2       1       1
       2       1       1       2       1       1       2       1       1       2
       1       1       2       1       1       2       1       1       2       1
       1       2       1       1       2       1       1       2       1       1
       2       1       1       2       1       1       2       1       1       2
       1       1       2       1       1       2       1       1       2       1
       1       2       1       1       2       1       1       2       1       1
       2       1       1       2       1       1       2       1       1       2
       1       1       2       1       1       2       1       1       2       1
       1       2       1       1       2       1       1       2       1       1
       2       1       1       2       1       1       2       1       1       2
       1       1       2       1       1       2       1       1       2       1
       1       2       1       1       2       1       1       2       1       1
       2       1       1       2       1       1       2       1       1       2
       1       1       2       1       1       2       1       1       2       1
       1       2       1       1       2       1       1       2       1       1
       2       1       1       2       1       1       2       1       1       2
       1       1       2       1       1       2       1       1       2       1
       1       2       1       1       2       1       1       2       1       1
       2       1       1       2       1       1       2       1       1       2
       1       1       2       1       1       2       1       1       2       1
       1       2       1       1       2       1       1       2       1       1
       2       1       1       2       1       1       2       1       1       2
       1       1       2       1       1       2       1       1       2       1
       1       2       1       1       2       1       1       2       1       1
       2       1       1       2       1       1       2       1       1       2
       1       1       2       1       1       2       1       1       2       1
       1       2       1       1       2       1       1       2       1       1
       2       1       1       2       1       1       2       1       1       2
       1       1       2       1       1       2       1       1       2       1
       1       2       1       1       2       1       1       2       1       1
       2       1       1       2       1       1       2       1       1       2
       1       1       2       1       1       2       1       1       2       1
       1       2       1       1       2       1       1       2       1       1
       2       1       1       2       1       1       2       1       1       2
       1       1       2       1       1       2       1       1       2       1
       1       2       1       1       2       1       1       2       1       1
       2       1       1       2       1       1       2       1       1       2
       1       1       2       1       1       2       1       1       2       1
       1       2       1       1       2       1       1       2       1       1
       2       1       1       2       1       1       2       1       1       2
       1       1       2       1       1       2       1       1       2       1
       1       2       1       1       2       1       1       2       1       1
       2       1       1       2       1       1       2       1       1       2
       1       1       2       1       1       2       1       1       2       1
       1       2       1       1       2       1       1       2       1       1
       2       1       1       2       1       1       2       1       1       2
       1       1       2       1       1       2       1       1       2       1
       1       2       1       1       2       1       1       2       1       1
       2       1       1       2       1       1       2       1       1       2
       1       1       2       1       1       2       1       1       2       1
       1       2       1       1       2       1       1       2       1       1
       2       1       1       2       1       1       2       1       1       2
       1       1       2       1       1       2       1       1       2       1
       1       2       1       1       2       1       1       2       1       1
       2       1       1       2       1       1       2       1       1       2
       1       1       2       1       1       2       1       1       2       1
       1       2       1       1       2       1       1       2       1       1
       2       1       1       2       1       1       2       1       1       2
       1       1       2       1       1       2       1       1       2       1
       1       2       1       1       2       1       1       2       1       1
       2       1       1       2       1       1       2       1       1       2
       1       1       2       1       1       2       1       1       2       1
       1       2       1       1       2       1       1       2       1       1
       2       1       1       2       1       1       2       1       1       2
       1       1       2       1       1       2       1       1       2       1
       1       2       1       1       2       1       1       2       1       1
       2       1       1       2       1       1       2       1       1       2
       1       1       2       1       1       2       1       1       2       1
       1       2       1       1       2       1       1       2       1       1
       2       1       1       2       1       1       2       1       1       2
       1       1       2       1       1       2       1       1       2       1
       1       2       1       1       2       1       1       2       1       1
       2       1       1       2       1       1       2       1       1       2
       1       1       2       1       1       2       1       1       2       1
       1       2       1       1       2       1       1       2       1       1
       2       1       1       2       1       1       2       1       1       2
       1       1       2       1       1       2       1       1       2       1
       1       2       1       1       2       1       1       2       1       1
       2       1       1       2       1       1       2       1       1       2
       1       1       2       1       1       2       1       1       2       1
       1       2       1       1       2       1       1       2       1       1
       2       1       1       2       1       1       2       1       1       2
       1       1       2       1       1       2       1       1       2       1
       1       2       1       1       2       1       1       2       1       1
       2       1       1       2       1       1       2       1       1       2
       1       1       2       1       1       2       1       1       2       1
       1       2       1       1       2       1       1       2       1       1
       2       1       1       2       1       1       2       1       1       2
       1       1       2       1       1       2       1       1       2       1
       1       2       1       1       2       1       1       2       1       1
       2       1       1       2       1       1       2       1       1       2
       1       1       2       1       1       2       1       1       2       1
       1       2       1       1       2       1       1       2       1       1
       2       1       1       2       1       1       2       1       1       2
       1       1       2       1       1       2       1       1       2       1
       1       2       1       1       2       1       1       2       1       1
       2       1       1       2       1       1       2       1       1       2
       1       1       2       1       1       2       1       1       2       1
       1       2       1       1       2       1       1       2       1       1
       2       1       1       2       1       1       2       1       1       2
       1       1       2       1       1       2       1       1       2       1
       1       2       1       1       2       1       1       2       1       1
       2       1       1       2       1       1       2       1       1       2
       1       1       2       1       1       2       1       1       2       1
       1       2       1       1       2       1       1       2       1       1
       2       1       1       2       1       1       2       1       1       2
       1       1       2       1       1       2       1       1       2       1
       1       2       1       1       2       1       1       2       1       1
       2       1       1       2       1       1       2       1       1       2
       1       1       2       1       1       2       1       1       2       1
       1       2       1       1       2       1       1       2       1       1
       2       1       1       2       1       1       2       1       1       2
       1       1       2       1       1       2       1       1       2       1
       1       2       1       1       2       1       1       2       1       1
       2       1       1       2       1       1       2       1       1       2
       1       1       2       1       1       2       1       1       2       1
       1       2       1       1       2       1       1       2       1       1
       2       1       1       2       1       1       2       1       1       2
       1       1       2       1       1       2       1       1       2       1
       1       2       1       1       2       1       1       2       1       1
       2       1       1       2       1       1       2       1       1       2
       1       1       2       1       1       2       1       1       2       1
       1       2       1       1       2       1       1       2       1       1
       2       1       1       2       1       1       2       1       1       2
       1       1       2       1       1       2       1       1       2       1
       1       2       1       1       2       1       1       2       1       1
       2       1       1       2       1       1       2       1       1       2
       1       1       2       1       1       2       1       1       2       1
       1       2       1       1       2       1       1       2       1       1
       2       1       1       2       1       1       2       1       1       2
       1       1       2       1       1       2       1       1       2       1
       1       2       1       1       2       1       1       2       1       1
       2       1       1       2       1       1       2       1       1       2
       1       1       2       1       1       2       1       1       2       1
       1       2       1       1       2       1       1       2       1       1
       2       1       1       2       1       1       2       1       1       2
       1       1       2       1       1       2       1       1       2       1
       1       2       1       1       2       1       1       2       1       1
       2       1       1       2       1       1       2       1       1       2
       1       1       2       1       1       2       1       1       2       1
       1       2       1       1       2       1       1       2       1       1
       2       1       1       2       1       1       2       1       1       2
       1       1       2       1       1       2       1       1       2       1
       1       2       1       1       2       1       1       2       1       1
       2       1       1       2       1       1       2       1       1       2
       1       1       2       1       1       2       1       1       2       1
       1       2       1       1       2       1       1       2       1       1
       2       1       1       2       1       1       2       1       1       2
       1       1       2       1       1       2       1       1       2       1
       1       2       1       1       2       1       1       2       1       1
       2       1       1       2       1       1       2       1       1       2
       1       1       2       1       1       2       1       1       2       1
       1       2       1       1       2       1       1       2       1       1
       2       1       1       2       1       1       2       1       1       2
       1       1       2       1       1       2       1       1       2       1
       1       2       1       1       2       1       1       2       1       1
       2       1       1       2       1       1       2       1       1       2
       1       1       2       1       1       2       1       1       2       1
       1       2       1       1       2       1       1       2       1       1
       2       1       1       2       1       1       2       1       1       2
       1       1       2       1       1       2       1       1       2       1
       1       2       1       1       2       1       1       2       1       1
       2       1       1       2       1       1       2       1       1       2
       1       1       2       1       1       2       1       1       2       1
       1       2       1       1       2       1       1       2       1       1
       2       1       1       2       1       1       2       1       1       2
       1       1       2       1       1       2       1       1       2       1
       1       2       1       1       2       1       1       2       1       1
       2       1       1       2       1       1       2       1       1       2
       1       1       2       1       1       2       1       1       2       1
       1       2       1       1       2       1       1       2       1       1
       2       1       1       2       1       1       2       1       1       2
       1       1       2       1       1       2       1       1       2       1
       1       2       1       1       2       1       1       2       1       1
       2       1       1       2       1       1       2       1       1       2
       1       1       2       1       1       2       1       1       2       1
       1       2       1       1       2       1       1       2       1       1
       2       1       1       2       1       1       2       1       1       2
       1       1       2       1       1       2       1       1       2       1
       1       2       1       1       2       1       1       2       1       1
       2       1       1       2       1       1       2       1       1       2
       1       1       2       1       1       2       1       1       2       1
       1       2       1       1       2       1       1       2       1       1
       2       1       1       2       1       1       2       1       1       2
       1       1       2       1       1       2       1       1       2       1
       1       2       1       1       2       1       1       2       1       1
       2       1       1       2       1       1       2       1       1       2
       1       1       2       1       1       2       1       1       2       1
       1       2       1       1       2       1       1       2       1       1
       2       1       1       2       1       1       2       1       1       2
       1       1       2       1       1       2       1       1       2       1
       1       2       1       1       2       1       1       2       1       1
       2       1       1       2       1       1       2       1       1       2
       1       1       2       1       1       2       1       1       2       1
       1       2       1       1       2       1       1       2       1       1
       2       1       1       2       1       1       2       1       1       2
       1       1       2       1       1       2       1       1       2       1
       1       2       1       1       2       1       1       2       1       1
       2       1       1       2       1       1       2       1       1       2
       1       1       2       1       1       2       1       1       2       1
       1       2       1       1       2       1       1       2       1       1
       2       1       1       2       1       1       2       1       1       2
       1       1       2       1       1       2       1       1       2       1
       1       2       1       1       2       1       1       2       1       1
       2       1       1       2       1       1       2       1       1       2
       1       1       2       1       1       2       1       1       2       1
       1       2       1       1       2       1       1       2       1       1
       2       1       1       2       1       1       2       1       1       2
       1       1       2       1       1       2       1       1       2       1
       1       2       1       1       2       1       1       2       1       1
       2       1       1       2       1       1       2       1       1       2
       1       1       2       1       1       2       1       1       2       1
       1       2       1       1       2       1       1       2       1       1
       2       1       1       2       1       1       2       1       1       2
       1       1       2       1       1       2       1       1       2       1
       1       2       1       1       2       1       1       2       1       1
       2       1       1       2       1       1       2       1       1       2
       1       1       2       1       1       2       1       1       2       1
       1       2       1       1       2       1       1       2       1       1
       2       1       1       2       1       1       2       1       1       2
       1       1       2       1       1       2       1       1       2       1
       1       2       1       1       2       1       1       2       1       1
       2       1       1       2       1       1       2       1       1       2
       1       1       2       1       1       2       1       1       2       1
       1       2       1       1       2       1       1       2       1       1
       2       1       1       2       1       1       2       1       1       2
       1       1       2       1       1       2       1       1       2       1
       1       2       1       1       2       1       1       2       1       1
       2       1       1       2       1       1       2       1       1       2
       1       1       2       1       1       2       1       1       2       1
       1       2       1       1       2       1       1       2       1       1
       2       1       1       2       1       1       2       1       1       2
       1       1       2       1       1       2       1       1       2       1
       1       2       1       1       2       1       1       2       1       1
       2       1       1       2       1       1       2       1       1       2
       1       1       2       1       1       2       1       1       2       1
       1       2       1       1       2       1       1       2       1       1
       2       1       1       2       1       1       2       1       1       2
       1       1       2       1       1       2       1       1       2       1
       1       2       1       1       2       1       1       2       1       1
       2       1       1       2       1       1       2       1       1       2
       1       1       2       1       1       2       1       1       2       1
       1       2       1       1       2       1       1       2       1       1
       2       1       1       2       1       1       2       1       1       2
       1       1       2       1       1       2       1       1       2       1
       1       2       1       1       2       1       1       2       1       1
       2       1       1       2       1       1       2       1       1       2
       1       1       2       1       1       2       1       1       2       1
       1       2       1       1       2       1       1       2       1       1
       2       1       1       2       1       1       2       1       1       2
       1       1       2       1       1       2       1       1       2       1
       1       2       1       1       2       1       1       2       1       1
       2       1       1       2       1       1       2       1       1       2
       1       1       2       1       1       2       1       1       2       1
       1       2       1       1       2       1       1       2       1       1
       2       1       1       2       1       1       2       1       1       2
       1       1       2       1       1       2       1       1       2       1
       1       2       1       1       2       1       1       2       1       1
       2       1       1       2       1       1       2       1       1       2
       1       1       2       1       1       2       1       1       2       1
       1       2       1       1       2       1       1       2       1       1
       2       1       1       2       1       1       2       1       1       2
       1       1       2       1       1       2       1       1       2       1
       1       2       1       1       2       1       1       2       1       1
       2       1       1       2       1       1       2       1       1       2
       1       1       2       1       1       2       1       1       2       1
       1       2       1       1       2       1       1       2       1       1
       2       1       1       2       1       1       2       1       1       2
       1       1       2       1       1       2       1       1       2       1
       1       2       1       1       2       1       1       2       1       1
       2       1       1       2       1       1       2       1       1       2
       1       1       2       1       1       2       1       1       2       1
       1       2       1       1       2       1       1       2       1       1
       2       1       1       2       1       1       2       1       1       2
       1       1       2       1       1       2       1       1       2       1
       1       2       1       1       2       1       1       2       1       1
       2       1       1       2       1       1       2       1       1       2
       1       1       2       1       1       2       1       1       2       1
       1       2       1       1       2       1       1       2       1       1
       2       1       1       2       1       1       2       1       1       2
       1       1       2       1       1       2       1       1       2       1
       1       2       1       1       2       1       1       2       1       1
       2       1       1       2       1       1       2       1       1       2
       1       1       2       1       1       2       1       1       2       1
       1       2       1       1       2       1       1       2       1       1
       2       1       1       2       1       1       2       1       1       2
       1       1       2       1       1       2       1       1       2       1
       1       2       1       1       2       1       1       2       1       1
       2       1       1       2       1       1       2       1       1       2
       1       1       2       1       1       2       1       1       2       1
       1       2       1       1       2       1       1       2       1       1
       2       1       1       2       1       1       2       1       1       2
       1       1       2       1       1       2       1       1       2       1
       1       2       1       1       2       1       1       2       1       1
       2       1       1       2       1       1       2       1       1       2
       1       1       2       1       1       2       1       1       2       1
       1       2       1       1       2       1       1       2       1       1
       2       1       1       2       1       1       2       1       1       2
       1       1       2       1       1       2       1       1       2       1
       1       2       1       1       2       1       1       2       1       1
       2       1       1       2       1       1       2       1       1       2
       1       1       2       1       1       2       1       1       2       1
       1       2       1       1       2       1       1       2       1       1
       2       1       1       2       1       1       2       1       1       2
       1       1       2       1       1       2       1       1       2       1
       1       2       1       1       2       1       1       2       1       1
       2       1       1       2       1       1       2       1       1       2
       1       1       2       1       1       2       1       1       2       1
       1       2       1       1       2       1       1       2       1       1
       2       1       1       2       1       1       2       1       1       2
       1       1       2       1       1       2       1       1       2       1
       1       2       1       1       2       1       1       2       1       1
       2       1       1       2       1       1       2       1       1       2
       1       1       2       1       1       2       1       1       2       1
       1       2       1       1       2       1       1       2       1       1
       2       1       1       2       1       1       2       1       1       2
       1       1       2       1       1       2       1       1       2       1
       1       2       1       1       2       1       1       2       1       1
       2       1       1       2       1       1       2       1       1       2
       1       1       2       1       1       2       1       1       2       1
       1       2       1       1       2       1       1       2       1       1
       2       1       1       2       1       1       2       1       1       2
       1       1       2       1       1       2       1       1       2       1
       1       2       1       1       2       1       1       2       1       1
       2       1       1       2       1       1       2       1       1       2
       1       1       2       1       1       2       1       1       2       1
       1       2       1       1       2       1       1       2       1       1
       2       1       1       2       1       1       2       1       1       2
       1       1       2       1       1       2       1       1       2       1
       1       2       1       1       2       1       1       2       1       1
       2       1       1       2       1       1       2       1       1       2
       1       1       2       1       1       2       1       1       2       1
       1       2       1       1       2       1       1       2       1       1
       2       1       1       2       1       1       2       1       1       2
       1       1       2       1       1       2       1       1       2       1
       1       2       1       1       2       1       1       2       1       1
       2       1       1       2       1       1       2       1       1       2
       1       1       2       1       1       2       1       1       2       1
       1       2       1       1       2       1       1       2       1       1
       2       1       1       2       1       1       2       1       1       2
       1       1       2       1       1       2       1       1       2       1
       1       2       1       1       2       1       1       2       1       1
       2       1       1       2       1       1       2       1       1       2
       1       1       2       1       1       2       1       1       2       1
       1       2       1       1       2       1       1       2       1       1
       2       1       1       2       1       1       2       1       1       2
       1       1       2       1       1       2       1       1       2       1
       1       2       1       1       2       1       1       2       1       1
       2       1       1       2       1       1       2       1       1       2
       1       1       2       1       1       2       1       1       2       1
       1       2       1       1       2       1       1       2       1       1
       2       1       1       2       1       1       2       1       1       2
       1       1       2       1       1       2       1       1       2       1
       1       2       1       1       2       1       1       2       1       1
       2       1       1       2       1       1       2       1       1       2
       1       1       2       1       1       2       1       1       2       1
       1       2       1       1       2       1       1       2       1       1
       2       1       1       2       1       1       2       1       1       2
       1       1       2       1       1       2       1       1       2       1
       1       2       1       1       2       1       1       2       1       1
       2       1       1       2       1       1       2       1       1       2
       1       1       2       1       1       2       1       1       2       1
       1       2       1       1       2       1       1       2       1       1
       2       1       1       2       1       1       2       1       1       2
       1       1       2       1       1       2       1       1       2       1
       1       2       1       1       2       1       1       2       1       1
       2       1       1       2       1       1       2       1       1       2
       1       1       2       1       1       2       1       1       2       1
       1       2       1       1       2       1       1       2       1       1
       2       1       1       2       1       1       2       1       1       2
       1       1       2       1       1       2       1       1       2       1
       1       2       1       1       2       1       1       2       1       1
       2       1       1       2       1       1       2       1       1       2
       1       1       2       1       1       2       1       1       2       1
       1       2       1       1       2       1       1       2       1       1
       2       1       1       2       1       1       2       1       1       2
       1       1       2       1       1       2       1       1       2       1
       1       2       1       1       2       1       1       2       1       1
       2       1       1       2       1       1       2       1       1       2
       1       1       2       1       1       2       1       1       2       1
       1       2       1       1       2       1       1       2       1       1
       2       1       1       2       1       1       2       1       1       2
       1       1       2       1       1       2       1       1       2       1
       1       2       1       1       2       1       1       2       1       1
       2       1       1       2       1       1       2       1       1       2
       1       1       2       1       1       2       1       1       2       1
       1       2       1       1       2       1       1       2       1       1
       2       1       1       2       1       1       2       1       1       2
       1       1       2       1       1       2       1       1       2       1
       1       2       1       1       2       1       1       2       1       1
       2       1       1       2       1       1       2       1       1       2
       1       1       2       1       1       2       1       1       2       1
       1       2       1       1       2       1       1       2       1       1
       2       1       1       2       1       1       2       1       1       2
       1       1       2       1       1       2       1       1       2       1
       1       2       1       1       2       1       1       2       1       1
       2       1       1       2       1       1       2       1       1       2
       1       1       2       1       1       2       1       1       2       1
       1       2       1       1       2       1       1       2       1       1
       2       1       1       2       1       1       2       1       1       2
       1       1       2       1       1       2       1       1       2       1
       1       2       1       1       2       1       1       2       1       1
       2       1       1       2       1       1       2       1       1       2
       1       1       2       1       1       2       1       1       2       1
       1       2       1       1       2       1       1       2       1       1
       2       1       1       2       1       1       2       1       1       2
       1       1       2       1       1       2       1       1       2       1
       1       2       1       1       2       1       1       2       1       1
       2       1       1       2       1       1       2       1       1       2
       1       1       2       1       1       2       1       1       2       1
       1       2       1       1       2       1       1       2       1       1
       2       1       1       2       1       1       2       1       1       2
       1       1       2       1       1       2       1       1       2       1
       1       2       1       1       2       1       1       2       1       1
       2       1       1       2       1       1       2       1       1       2
       1       1       2       1       1       2       1       1       2       1
       1       2       1       1       2       1       1       2       1       1
       2       1       1       2       1       1       2       1       1       2
       1       1       2       1       1       2       1       1       2       1
       1       2       1       1       2       1       1       2       1       1
       2       1       1       2       1       1       2       1       1       2
       1       1       2       1       1       2       1       1       2       1
       1       2       1       1       2       1       1       2       1       1
       2       1       1       2       1       1       2       1       1       2
       1       1       2       1       1       2       1       1       2       1
       1       2       1       1       2       1       1       2       1       1
       2       1       1       2       1       1       2       1       1       2
       1       1       2       1       1       2       1       1       2       1
       1       2       1       1       2       1       1       2       1       1
       2       1       1       2       1       1       2       1       1       2
       1       1       2       1       1       2       1       1       2       1
       1       2       1       1       2       1       1       2       1       1
       2       1       1       2       1       1       2       1       1       2
       1       1       2       1       1       2       1       1       2       1
       1       2       1       1       2       1       1       2       1       1
       2       1       1       2       1       1       2       1       1       2
       1       1       2       1       1       2       1       1       2       1
       1       2       1       1       2       1       1       2       1       1
       2       1       1       2       1       1       2       1       1       2
       1       1       2       1       1       2       1       1       2       1
       1       2       1       1       2       1       1       2       1       1
       2       1       1       2       1       1       2       1       1       2
       1       1       2       1       1       2       1       1       2       1
       1       2       1       1       2       1       1       2       1       1
       2       1       1       2       1       1       2       1       1       2
       1       1       2       1       1       2       1       1       2       1
       1       2       1       1       2       1       1       2       1       1
       2       1       1       2       1       1       2       1       1       2
       1       1       2       1       1       2       1       1       2       1
       1       2       1       1       2       1       1       2       1       1
       2       1       1       2       1       1       2       1       1       2
       1       1       2       1       1       2       1       1       2       1
       1       2       1       1       2       1       1       2       1       1
       2       1       1       2       1       1       2       1       1       2
       1       1       2       1       1       2       1       1       2       1
       1       2       1       1       2       1       1       2       1       1
       2       1       1       2       1       1       2       1       1       2
       1       1       2       1       1       2       1       1       2       1
       1       2       1       1       2       1       1       2       1       1
       2       1       1       2       1       1       2       1       1       2
       1       1       2       1       1       2       1       1       2       1
       1       2       1       1       2       1       1       2       1       1
       2       1       1       2       1       1       2       1       1       2
       1       1       2       1       1       2       1       1       2       1
       1       2       1       1       2       1       1       2       1       1
       2       1       1       2       1       1       2       1       1       2
       1       1       2       1       1       2       1       1       2       1
       1       2       1       1       2       1       1       2       1       1
       2       1       1       2       1       1       2       1       1       2
       1       1       2       1       1       2       1       1       2       1
       1       2       1       1       2       1       1       2       1       1
       2       1       1       2       1       1       2       1       1       2
       1       1       2       1       1       2       1       1       2       1
       1       2       1       1       2       1       1       2       1       1
       2       1       1       2       1       1       2       1       1       2
       1       1       2       1       1       2       1       1       2       1
       1       2       1       1       2       1       1       2       1       1
       2       1       1       2       1       1       2       1       1       2
       1       1       2       1       1       2       1       1       2       1
       1       2       1       1       2       1       1       2       1       1
       2       1       1       2       1       1       2       1       1       2
       1       1       2       1       1       2       1       1       2       1
       1       2       1       1       2       1       1       2       1       1
       2       1       1       2       1       1       2       1       1       2
       1       1       2       1       1       2       1       1       2       1
       1       2       1       1       2       1       1       2       1       1
       2       1       1       2       1       1       2       1       1       2
       1       1       2       1       1       2       1       1       2       1
       1       2       1       1       2       1       1       2       1       1
       2       1       1       2       1       1       2       1       1       2
       1       1       2       1       1       2       1       1       2       1
       1       2       1       1       2       1       1       2       1       1
       2       1       1       2       1       1       2       1       1       2
       1       1       2       1       1       2       1       1       2       1
       1       2       1       1       2       1       1       2       1       1
       2       1       1       2       1       1       2       1       1       2
       1       1       2       1       1       2       1       1       2       1
       1       2       1       1       2       1       1       2       1       1
       2       1       1       2       1       1       2       1       1       2
       1       1       2       1       1       2       1       1       2       1
       1       2       1       1       2       1       1       2       1       1
       2       1       1       2       1       1       2       1       1       2
       1       1       2       1       1       2       1       1       2       1
       1       2       1       1       2       1       1       2       1       1
       2       1       1       2       1       1       2       1       1       2
       1       1       2       1       1       2       1       1       2       1
       1       2       1       1       2       1       1       2       1       1
       2       1       1       2       1       1       2       1       1       2
       1       1       2       1       1       2       1       1       2       1
       1       2       1       1       2       1       1       2       1       1
       2       1       1       2       1       1       2       1       1       2
       1       1       2       1       1       2       1       1       2       1
       1       2       1       1       2       1       1       2       1       1
       2       1       1       2       1       1       2       1       1       2
       1       1       2       1       1       2       1       1       2       1
       1       2       1       1       2       1       1       2       1       1
       2       1       1       2       1       1       2       1       1       2
       1       1       2       1       1       2       1       1       2       1
       1       2       1       1       2       1       1       2       1       1
       2       1       1       2       1       1       2       1       1       2
       1       1       2       1       1       2       1       1       2       1
       1       2       1       1       2       1       1       2       1       1
       2       1       1       2       1       1       2       1       1       2
       1       1       2       1       1       2       1       1       2       1
       1       2       1       1       2       1       1       2       1       1
       2       1       1       2       1       1       2       1       1       2
       1       1       2       1       1       2       1       1       2       1
       1       2       1       1       2       1       1       2       1       1
       2       1       1       2       1       1       2       1       1       2
       1       1       2       1       1       2       1       1       2       1
       1       2       1       1       2       1       1       2       1       1
       2       1       1       2       1       1       2       1       1       2
       1       1       2       1       1       2       1       1       2       1
       1       2       1       1       2       1       1       2       1       1
       2       1       1       2       1       1       2       1       1       2
       1       1       2       1       1       2       1       1       2       1
       1       2       1       1       2       1       1       2       1       1
       2       1       1       2       1       1       2       1       1       2
       1       1       2       1       1       2       1       1       2       1
       1       2       1       1       2       1       1       2       1       1
       2       1       1       2       1       1       2       1       1       2
       1       1       2       1       1       2       1       1       2       1
       1       2       1       1       2       1       1       2       1       1
       2       1       1       2       1       1       2       1       1       2
       1       1       2       1       1       2       1       1       2       1
       1       2       1       1       2       1       1       2       1       1
       2       1       1       2       1       1       2       1       1       2
       1       1       2       1       1       2       1       1       2       1
       1       2       1       1       2       1       1       2       1       1
       2       1       1       2       1       1       2       1       1       2
       1       1       2       1       1       2       1       1       2       1
       1       2       1       1       2       1       1       2       1       1
       2       1       1       2       1       1       2       1       1       2
       1       1       2       1       1       2       1       1       2       1
       1       2       1       1       2       1       1       2       1       1
       2       1       1       2       1       1       2       1       1       2
       1       1       2       1       1       2       1       1       2       1
       1       2       1       1       2       1       1       2       1       1
       2       1       1       2       1       1       2       1       1       2
       1       1       2       1       1       2       1       1       2       1
       1       2       1       1       2       1       1       2       1       1
       2       1       1       2       1       1       2       1       1       2
       1       1       2       1       1       2       1       1       2       1
       1       2       1       1       2       1       1       2       1       1
       2       1       1       2       1       1       2       1       1       2
       1       1       2       1       1       2       1       1       2       1
       1       2       1       1       2       1       1       2       1       1
       2       1       1       2       1       1       2       1       1       2
       1       1       2       1       1       2       1       1       2       1
       1       2       1       1       2       1       1       2       1       1
       2       1       1       2       1       1       2       1       1       2
       1       1       2       1       1       2       1       1       2       1
       1       2       1       1       2       1       1       2       1       1
       2       1       1       2       1       1       2       1       1       2
       1       1       2       1       1       2       1       1       2       1
       1       2       1       1       2       1       1       2       1       1
       2       1       1       2       1       1       2       1       1       2
       1       1       2       1       1       2       1       1       2       1
       1       2       1       1       2       1       1       2       1       1
       2       1       1       2       1       1       2       1       1       2
       1       1       2       1       1       2       1       1       2       1
       1       2       1       1       2       1       1       2       1       1
       2       1       1       2       1       1       2       1       1       2
       1       1       2       1       1       2       1       1       2       1
       1       2       1       1       2       1       1       2       1       1
       2       1       1       2       1       1       2       1       1       2
       1       1       2       1       1       2       1       1       2       1
       1       2       1       1       2       1       1       2       1       1
       2       1       1       2       1       1       2       1       1       2
       1       1       2       1       1       2       1       1       2       1
       1       2       1       1       2       1       1       2       1       1
       2       1       1       2       1       1       2       1       1       2
       1       1       2       1       1       2       1       1       2       1
       1       2       1       1       2       1       1       2       1       1
       2       1       1       2       1       1       2       1       1       2
       1       1       2       1       1       2       1       1       2       1
       1       2       1       1       2       1       1       2       1       1
       2       1       1       2       1       1       2       1       1       2
       1       1       2       1       1       2       1       1       2       1
       1       2       1       1       2       1       1       2       1       1
       2       1       1       2       1       1       2       1       1       2
       1       1       2       1       1       2       1       1       2       1
       1       2       1       1       2       1       1       2       1       1
       2       1       1       2       1       1       2       1       1       2
       1       1       2       1       1       2       1       1       2       1
       1       2       1       1       2       1       1       2       1       1
       2       1       1       2       1       1       2       1       1       2
       1       1       2       1       1       2       1       1       2       1
       1       2       1       1       2       1       1       2       1       1
       2       1       1       2       1       1       2       1       1       2
       1       1       2       1       1       2       1       1       2       1
       1       2       1       1       2       1       1       2       1       1
       2       1       1       2       1       1       2       1       1       2
       1       1       2       1       1       2       1       1       2       1
       1       2       1       1       2       1       1       2       1       1
       2       1       1       2       1       1       2       1       1       2
       1       1       2       1       1       2       1       1       2       1
       1       2       1       1       2       1       1       2       1       1
       2       1       1       2       1       1       2       1       1       2
       1       1       2       1       1       2       1       1       2       1
       1       2       1       1       2       1       1       2       1       1
       2       1       1       2       1       1       2       1       1       2
       1       1       2       1       1       2       1       1       2       1
       1       2       1       1       2       1       1       2       1       1
       2       1       1       2       1       1       2       1       1       2
       1       1       2       1       1       2       1       1       2       1
       1       2       1       1       2       1       1       2       1       1
       2       1       1       2       1       1       2       1       1       2
       1       1       2       1       1       2       1       1       2       1
       1       2       1       1       2       1       1       2       1       1
       2       1       1       2       1       1       2       1       1       2
       1       1       2       1       1       2       1       1       2       1
       1       2       1       1       2       1       1       2       1       1
       2       1       1       2       1       1       2       1       1       2
       1       1       2       1       1       2       1       1       2       1
       1       2       1       1       2       1       1       2       1       1
       2       1       1       2       1       1       2       1       1       2
       1       1       2       1       1       2       1       1       2       1
       1       2       1       1       2       1       1       2       1       1
       2       1       1       2       1       1       2       1       1       2
       1       1       2       1       1       2       1       1       2       1
       1       2       1       1       2       1       1       2       1       1
       2       1       1       2       1       1       2       1       1       2
       1       1       2       1       1       2       1       1       2       1
       1       2       1       1       2       1       1       2       1       1
       2       1       1       2       1       1       2       1       1       2
       1       1       2       1       1       2       1       1       2       1
       1       2       1       1       2       1       1       2       1       1
       2       1       1       2       1       1       2       1       1       2
       1       1       2       1       1       2       1       1       2       1
       1       2       1       1       2       1       1       2       1       1
       2       1       1       2       1       1       2       1       1       2
       1       1       2       1       1       2       1       1       2       1
       1       2       1       1       2       1       1       2       1       1
       2       1       1       2       1       1       2       1       1       2
       1       1       2       1       1       2       1       1       2       1
       1       2       1       1       2       1       1       2       1       1
       2       1       1       2       1       1       2       1       1       2
       1       1       2       1       1       2       1       1       2       1
       1       2       1       1       2       1       1       2       1       1
       2       1       1       2       1       1       2       1       1       2
       1       1       2       1       1       2       1       1       2       1
       1       2       1       1       2       1       1       2       1       1
       2       1       1       2       1       1       2       1       1       2
       1       1       2       1       1       2       1       1       2       1
       1       2       1       1       2       1       1       2       1       1
       2       1       1       2       1       1       2       1       1       2
       1       1       2       1       1       2       1       1       2       1
       1       2       1       1       2       1       1       2       1       1
       2       1       1       2       1       1       2       1       1       2
       1       1       2       1       1       2       1       1       2       1
       1       2       1       1       2       1       1       2       1       1
       2       1       1       2       1       1       2       1       1       2
       1       1       2       1       1       2       1       1       2       1
       1       2       1       1       2       1       1       2       1       1
       2       1       1       2       1       1       2       1       1       2
       1       1       2       1       1       2       1       1       2       1
       1       2       1       1       2       1       1       2       1       1
       2       1       1       2       1       1       2       1       1       2
       1       1       2       1       1       2       1       1       2       1
       1       2       1       1       2       1       1       2       1       1
       2       1       1       2       1       1       2       1       1       2
       1       1       2       1       1       2       1       1       2       1
       1       2       1       1       2       1       1       2       1       1
       2       1       1       2       1       1       2       1       1       2
       1       1       2       1       1       2       1       1       2       1
       1       2       1       1       2       1       1       2       1       1
       2       1       1       2       1       1       2       1       1       2
       1       1       2       1       1       2       1       1       2       1
       1       2       1       1       2       1       1       2       1       1
       2       1       1       2       1       1       2       1       1       2
       1       1       2       1       1       2       1       1       2       1
       1       2       1       1       2       1       1       2       1       1
       2       1       1       2       1       1       2       1       1       2
       1       1       2       1       1       2       1       1       2       1
       1       2       1       1       2       1       1       2       1       1
       2       1       1       2       1       1       2       1       1       2
       1       1       2       1       1       2       1       1       2       1
       1       2       1       1       2       1       1       2       1       1
       2       1       1       2       1       1       2       1       1       2
       1       1       2       1       1       2       1       1       2       1
       1       2       1       1       2       1       1       2       1       1
       2       1       1       2       1       1       2       1       1       2
       1       1       2       1       1       2       1       1       2       1
       1       2       1       1       2       1       1       2       1       1
       2       1       1       2       1       1       2       1       1       2
       1       1       2       1       1       2       1       1       2       1
       1       2       1       1       2       1       1       2       1       1
       2       1       1       2       1       1       2       1       1       2
       1       1       2       1       1       2       1       1       2       1
       1       2       1       1       2       1       1       2       1       1
       2       1       1       2       1       1       2       1       1       2
       1       1       2       1       1       2       1       1       2       1
       1       2       1       1       2       1       1       2       1       1
       2       1       1       2       1       1       2       1       1       2
       1       1       2       1       1       2       1       1       2       1
       1       2       1       1       2       1       1       2       1       1
       2       1       1       2       1       1       2       1       1       2
       1       1       2       1       1       2       1       1       2       1
       1       2       1       1       2       1       1       2       1       1
       2       1       1       2       1       1       2       1       1       2
       1       1       2       1       1       2       1       1       2       1
       1       2       1       1       2       1       1       2       1       1
       2       1       1       2       1       1       2       1       1       2
       1       1       2       1       1       2       1       1       2       1
       1       2       1       1       2       1       1       2       1       1
       2       1       1       2       1       1       2       1       1       2
       1       1       2       1       1       2       1       1       2       1
       1       2       1       1       2       1       1       2       1       1
       2       1       1       2       1       1       2       1       1       2
       1       1       2       1       1       2       1       1       2       1
       1       2       1       1       2       1       1       2       1       1
       2       1       1       2       1       1       2       1       1       2
       1       1       2       1       1       2       1       1       2       1
       1       2       1       1       2       1       1       2       1       1
       2       1       1       2       1       1       2       1       1       2
       1       1       2       1       1       2       1       1       2       1
       1       2       1       1       2       1       1       2       1       1
       2       1       1       2       1       1       2       1       1       2
       1       1       2       1       1       2       1       1       2       1
       1       2       1       1       2       1       1       2       1       1
       2       1       1       2       1       1       2       1       1       2
       1       1       2       1       1       2       1       1       2       1
       1       2       1       1       2       1       1       2       1       1
       2       1       1       2       1       1       2       1       1       2
       1       1       2       1       1       2       1       1       2       1
       1       2       1       1       2       1       1       2       1       1
       2       1       1       2       1       1       2       1       1       2
       1       1       2       1       1       2       1       1       2       1
       1       2       1       1       2       1       1       2       1       1
       2       1       1       2       1       1       2       1       1       2
       1       1       2       1       1       2       1       1       2       1
       1       2       1       1       2       1       1       2       1       1
       2       1       1       2       1       1       2       1       1       2
       1       1       2       1       1       2       1       1       2       1
       1       2       1       1       2       1       1       2       1       1
       2       1       1       2       1       1       2       1       1       2
       1       1       2       1       1       2       1       1       2       1
       1       2       1       1       2       1       1       2       1       1
       2       1       1       2       1       1       2       1       1       2
       1       1       2       1       1       2       1       1       2       1
       1       2       1       1       2       1       1       2       1       1
       2       1       1       2       1       1       2       1       1       2
       1       1       2       1       1       2       1       1       2       1
       1       2       1       1       2       1       1       2       1       1
       2       1       1       2       1       1       2       1       1       2
       1       1       2       1       1       2       1       1       2       1
       1       2       1       1       2       1       1       2       1       1
       2       1       1       2       1       1       2       1       1       2
       1       1       2       1       1       2       1       1       2       1
       1       2       1       1       2       1       1       2       1       1
       2       1       1       2       1       1       2       1       1       2
       1       1       2       1       1       2       1       1       2       1
       1       2       1       1       2       1       1       2       1       1
       2       1       1       2       1       1       2       1       1       2
       1       1       2       1       1       2       1       1       2       1
       1       2       1       1       2       1       1       2       1       1
       2       1       1       2       1       1       2       1       1       2
       1       1       2       1       1       2       1       1       2       1
       1       2       1       1       2       1       1       2       1       1
       2       1       1       2       1       1       2       1       1       2
       1       1       2       1       1       2       1       1       2       1
       1       2       1       1       2       1       1       2       1       1
       2       1       1       2       1       1       2       1       1       2
       1       1       2       1       1       2       1       1       2       1
       1       2       1       1       2       1       1       2       1       1
       2       1       1       2       1       1       2       1       1       2
       1       1       2       1       1       2       1       1       2       1
       1       2       1       1       2       1       1       2       1       1
       2       1       1       2       1       1       2       1       1       2
       1       1       2       1       1       2       1       1       2       1
       1       2       1       1       2       1       1       2       1       1
       2       1       1       2       1       1       2       1       1       2
       1       1       2       1       1       2       1       1       2       1
       1       2       1       1       2       1       1       2       1       1
       2       1       1       2       1       1       2       1       1       2
       1       1       2       1       1       2       1       1       2       1
       1       2       1       1       2       1       1       2       1       1
       2       1       1       2       1       1       2       1       1       2
       1       1       2       1       1       2       1       1       2       1
       1       2       1       1       2       1       1       2       1       1
       2       1       1       2       1       1       2       1       1       2
       1       1       2       1       1       2       1       1       2       1
       1       2       1       1       2       1       1       2       1       1
       2       1       1       2       1       1       2       1       1       2
       1       1       2       1       1       2       1       1       2       1
       1       2       1       1       2       1       1       2       1       1
       2       1       1       2       1       1       2       1       1       2
       1       1       2       1       1       2       1       1       2       1
       1       2       1       1       2       1       1       2       1       1
       2       1       1       2       1       1       2       1       1       2
       1       1       2       1       1       2       1       1       2       1
       1       2       1       1       2       1       1       2       1       1
       2       1       1       2       1       1       2       1       1       2
       1       1       2       1       1       2       1       1       2       1
       1       2       1       1       2       1       1       2       1       1
       2       1       1       2       1       1       2       1       1       2
       1       1       2       1       1       2       1       1       2       1
       1       2       1       1       2       1       1       2       1       1
       2       1       1       2       1       1       2       1       1       2
       1       1       2       1       1       2       1       1       2       1
       1       2       1       1       2       1       1       2       1       1
       2       1       1       2       1       1       2       1       1       2
       1       1       2       1       1       2       1       1       2       1
       1       2       1       1       2       1       1       2       1       1
       2       1       1       2       1       1       2       1       1       2
       1       1       2       1       1       2       1       1       2       1
       1       2       1       1       2       1       1       2       1       1
       2       1       1       2       1       1       2       1       1       2
       1       1       2       1       1       2       1       1       2       1
       1       2       1       1       2       1       1       2       1       1
       2       1       1       2       1       1       2       1       1       2
       1       1       2       1       1       2       1       1       2       1
       1       2       1       1       2       1       1       2       1       1
       2       1       1       2       1       1       2       1       1       2
       1       1       2       1       1       2       1       1       2       1
       1       2       1       1       2       1       1       2       1       1
       2       1       1       2       1       1       2       1       1       2
       1       1       2       1       1       2       1       1       2       1
       1       2       1       1       2       1       1       2       1       1
       2       1       1       2       1       1       2       1       1       2
       1       1       2       1       1       2       1       1       2       1
       1       2       1       1       2       1       1       2       1       1
       2       1       1       2       1       1       2       1       1       2
       1       1       2       1       1       2       1       1       2       1
       1       2       1       1       2       1       1       2       1       1
       2       1       1       2       1       1       2       1       1       2
       1       1       2       1       1       2       1       1       2       1
       1       2       1       1       2       1       1       2       1       1
       2       1       1       2       1       1       2       1       1       2
       1       1       2       1       1       2       1       1       2       1
       1       2       1       1       2       1       1       2       1       1
       2       1       1       2       1       1       2       1       1       2
       1       1       2       1       1       2       1       1       2       1
       1       2       1       1       2       1       1       2       1       1
       2       1       1       2       1       1       2       1       1       2
       1       1       2       1       1       2       1       1       2       1
       1       2       1       1       2       1       1       2       1       1
       2       1       1       2       1       1       2       1       1       2
       1       1       2       1       1       2       1       1       2       1
       1       2       1       1       2       1       1       2       1       1
       2       1       1       2       1       1       2       1       1       2
       1       1       2       1       1       2       1       1       2       1
       1       2       1       1       2       1       1       2       1       1
       2       1       1       2       1       1       2       1       1       2
       1       1       2       1       1       2       1       1       2       1
       1       2       1       1       2       1       1       2       1       1
       2       1       1       2       1       1       2       1       1       2
       1       1       2       1       1       2       1       1       2       1
       1       2       1       1       2       1       1       2       1       1
       2       1       1       2       1       1       2       1       1       2
       1       1       2       1       1       2       1       1       2       1
       1       2       1       1       2       1       1       2       1       1
       2       1       1       2       1       1       2       1       1       2
       1       1       2       1       1       2       1       1       2       1
       1       2       1       1       2       1       1       2       1       1
       2       1       1       2       1       1       2       1       1       2
       1       1       2       1       1       2       1       1       2       1
       1       2       1       1       2       1       1       2       1       1
       2       1       1       2       1       1       2       1       1       2
       1       1       2       1       1       2       1       1       2       1
       1       2       1       1       2       1       1       2       1       1
       2       1       1       2       1       1       2       1       1       2
       1       1       2       1       1       2       1       1       2       1
       1       2       1       1       2       1       1       2       1       1
       2       1       1       2       1       1       2       1       1       2
       1       1       2       1       1       2       1       1       2       1
       1       2       1       1       2       1       1       2       1       1
       2       1       1       2       1       1       2       1       1       2
       1       1       2       1       1       2       1       1       2       1
       1       2       1       1       2       1       1       2       1       1
       2       1       1       2       1       1       2       1       1       2
       1       1       2       1       1       2       1       1       2       1
       1       2       1       1       2       1       1       2       1       1
       2       1       1       2       1       1       2       1       1       2
       1       1       2       1       1       2       1       1       2       1
       1       2       1       1       2       1       1       2       1       1
       2       1       1       2       1       1       2       1       1       2
       1       1       2       1       1       2       1       1       2       1
       1       2       1       1       2       1       1       2       1       1
       2       1       1       2       1       1       2       1       1       2
       1       1       2       1       1       2       1       1       2       1
       1       2       1       1       2       1       1       2       1       1
       2       1       1       2       1       1       2       1       1       2
       1       1       2       1       1       2       1       1       2       1
       1       2       1       1       2       1       1       2       1       1
       2       1       1       2       1       1       2       1       1       2
       1       1       2       1       1       2       1       1       2       1
       1       2       1       1       2       1       1       2       1       1
       2       1       1       2       1       1       2       1       1       2
       1       1       2       1       1       2       1       1       2       1
       1       2       1       1       2       1       1       2       1       1
       2       1       1       2       1       1       2       1       1       2
       1       1       2       1       1       2       1       1       2       1
       1       2       1       1       2       1       1       2       1       1
       2       1       1       2       1       1       2       1       1       2
       1       1       2       1       1       2       1       1       2       1
       1       2       1       1       2       1       1       2       1       1
       2       1       1       2       1       1       2       1       1       2
       1       1       2       1       1       2       1       1       2       1
       1       2       1       1       2       1       1       2       1       1
       2       1       1       2       1       1       2       1       1       2
       1       1       2       1       1       2       1       1       2       1
       1       2       1       1       2       1       1       2       1       1
       2       1       1       2       1       1       2       1       1       2
       1       1       2       1       1       2       1       1       2       1
       1       2       1       1       2       1       1       2       1       1
       2       1       1       2       1       1       2       1       1       2
       1       1       2       1       1       2       1       1       2       1
       1       2       1       1       2       1       1       2       1       1
       2       1       1       2       1       1       2       1       1       2
       1       1       2       1       1       2       1       1       2       1
       1       2       1       1       2       1       1       2       1       1
       2       1       1       2       1       1       2       1       1       2
       1       1       2       1       1       2       1       1       2       1
       1       2       1       1       2       1       1       2       1       1
       2       1       1       2       1       1       2       1       1       2
       1       1       2       1       1       2       1       1       2       1
       1       2       1       1       2       1       1       2       1       1
       2       1       1       2       1       1       2       1       1       2
       1       1       2       1       1       2       1       1       2       1
       1       2       1       1       2       1       1       2       1       1
       2       1       1       2       1       1       2       1       1       2
       1       1       2       1       1       2       1       1       2       1
       1       2       1       1       2       1       1       2       1       1
       2       1       1       2       1       1       2       1       1       2
       1       1       2       1       1       2       1       1       2       1
       1       2       1       1       2       1       1       2       1       1
       2       1       1       2       1       1       2       1       1       2
       1       1       2       1       1       2       1       1       2       1
       1       2       1       1       2       1       1       2       1       1
       2       1       1       2       1       1       2       1       1       2
       1       1       2       1       1       2       1       1       2       1
       1       2       1       1       2       1       1       2       1       1
       2       1       1       2       1       1       2       1       1       2
       1       1       2       1       1       2       1       1       2       1
       1       2       1       1       2       1       1       2       1       1
       2       1       1       2       1       1       2       1       1       2
       1       1       2       1       1       2       1       1       2       1
       1       2       1       1       2       1       1       2       1       1
       2       1       1       2       1       1       2       1       1       2
       1       1       2       1       1       2       1       1       2       1
       1       2       1       1       2       1       1       2       1       1
       2       1       1       2       1       1       2       1       1       2
       1       1       2       1       1       2       1       1       2       1
       1       2       1       1       2       1       1       2       1       1
       2       1       1       2       1       1       2       1       1       2
       1       1       2       1       1       2       1       1       2       1
       1       2       1       1       2       1       1       2       1       1
       2       1       1       2       1       1       2       1       1       2
       1       1       2       1       1       2       1       1       2       1
       1       2       1       1       2       1       1       2       1       1
       2       1       1       2       1       1       2       1       1       2
       1       1       2       1       1       2       1       1       2       1
       1       2       1       1       2       1       1       2       1       1
       2       1       1       2       1       1       2       1       1       2
       1       1       2       1       1       2       1       1       2       1
       1       2       1       1       2       1       1       2       1       1
       2       1       1       2       1       1       2       1       1       2
       1       1       2       1       1       2       1       1       2       1
       1       2       1       1       2       1       1       2       1       1
       2       1       1       2       1       1       2       1       1       2
       1       1       2       1       1       2       1       1       2       1
       1       2       1       1       2       1       1       2       1       1
       2       1       1       2       1       1       2       1       1       2
       1       1       2       1       1       2       1       1       2       1
       1       2       1       1       2       1       1       2       1       1
       2       1       1       2       1       1       2       1       1       2
       1       1       2       1       1       2       1       1       2       1
       1       2       1       1       2       1       1       2       1       1
       2       1       1       2       1       1       2       1       1       2
       1       1       2       1       1       2       1       1       2       1
       1       2       1       1       2       1       1       2       1       1
       2       1       1       2       1       1       2       1       1       2
       1       1       2       1       1       2       1       1       2       1
       1       2       1       1       2       1       1       2       1       1
       2       1       1       2       1       1       2       1       1       2
       1       1       2       1       1       2       1       1       2       1
       1       2       1       1       2       1       1       2       1       1
       2       1       1       2       1       1       2       1       1       2
       1       1       2       1       1       2       1       1       2       1
       1       2       1       1       2       1       1       2       1       1
       2       1       1       2       1       1       2       1       1       2
       1       1       2       1       1       2       1       1       2       1
       1       2       1       1       2       1       1       2       1       1
       2       1       1       2       1       1       2       1       1       2
       1       1       2       1       1       2       1       1       2       1
       1       2       1       1       2       1       1       2       1       1
       2       1       1       2       1       1       2       1       1       2
       1       1       2       1       1       2       1       1       2       1
       1       2       1       1       2       1       1       2       1       1
       2       1       1       2       1       1       2       1       1       2
       1       1       2       1       1       2       1       1       2       1
       1       2       1       1       2       1       1       2       1       1
       2       1       1       2       1       1       2       1       1       2
       1       1       2       1       1       2       1       1       2       1
       1       2       1       1       2       1       1       2       1       1
       2       1       1       2       1       1       2       1       1       2
       1       1       2       1       1       2       1       1       2       1
       1       2       1       1       2       1       1       2       1       1
       2       1       1       2       1       1       2       1       1       2
       1       1       2       1       1       2       1       1       2       1
       1       2       1       1       2       1       1       2       1       1
       2       1       1       2       1       1       2       1       1       2
       1       1       2       1       1       2       1       1       2       1
       1       2       1       1       2       1       1       2       1       1
       2       1       1       2       1       1       2       1       1       2
       1       1       2       1       1       2       1       1       2       1
       1       2       1       1       2       1       1       2       1       1
       2       1       1       2       1       1       2       1       1       2
       1       1       2       1       1       2       1       1       2       1
       1       2       1       1       2       1       1       2       1       1
       2       1       1       2       1       1       2       1       1       2
       1       1       2       1       1       2       1       1       2       1
       1       2       1       1       2       1       1       2       1       1
       2       1       1       2       1       1       2       1       1       2
       1       1       2       1       1       2       1       1       2       1
       1       2       1       1       2       1       1       2       1       1
       2       1       1       2       1       1       2       1       1       2
       1       1       2       1       1       2       1       1       2       1
       1       2       1       1       2       1       1       2       1       1
       2       1       1       2       1       1       2       1       1       2
       1       1       2       1       1       2       1       1       2       1
       1       2       1       1       2       1       1       2       1       1
       2       1       1       2       1       1       2       1       1       2
       1       1       2       1       1       2       1       1       2       1
       1       2       1       1       2       1       1       2       1       1
       2       1       1       2       1       1       2       1       1       2
       1       1       2       1       1       2       1       1       2       1
       1       2       1       1       2       1       1       2       1       1
       2       1       1       2       1       1       2       1       1       2
       1       1       2       1       1       2       1       1       2       1
       1       2       1       1       2       1       1       2       1       1
       2       1       1       2       1       1       2       1       1       2
       1       1       2       1       1       2       1       1       2       1
       1       2       1       1       2       1       1       2       1       1
       2       1       1       2       1       1       2       1       1       2
       1       1       2       1       1       2       1       1       2       1
       1       2       1       1       2       1       1       2       1       1
       2       1       1       2       1       1       2       1       1       2
       1       1       2       1       1       2       1       1       2       1
       1       2       1       1       2       1       1       2       1       1
       2       1       1       2       1       1       2       1       1       2
       1       1       2       1       1       2       1       1       2       1
       1       2       1       1       2       1       1       2       1       1
       2       1       1       2       1       1       2       1       1       2
       1       1       2       1       1       2       1       1       2       1
       1       2       1       1       2       1       1       2       1       1
       2       1       1       2       1       1       2       1       1       2
       1       1       2       1       1       2       1       1       2       1
       1       2       1       1       2       1       1       2       1       1
       2       1       1       2       1       1       2       1       1       2
       1       1       2       1       1       2       1       1       2       1
       1       2       1       1       2       1       1       2       1       1
       2       1       1       2       1       1       2       1       1       2
       1       1       2       1       1       2       1       1       2       1
       1       2       1       1       2       1       1       2       1       1
       2       1       1       2       1       1       2       1       1       2
       1       1       2       1       1       2       1       1       2       1
       1       2       1       1       2       1       1       2       1       1
       2       1       1       2       1       1       2       1       1       2
       1       1       2       1       1       2       1       1       2       1
       1       2       1       1       2       1       1       2       1       1
       2       1       1       2       1       1       2       1       1       2
       1       1       2       1       1       2       1       1       2       1
       1       2       1       1       2       1       1       2       1       1
       2       1       1       2       1       1       2       1       1       2
       1       1       2       1       1       2       1       1       2       1
       1       2       1       1       2       1       1       2       1       1
       2       1       1       2       1       1       2       1       1       2
       1       1       2       1       1       2       1       1       2       1
       1       2       1       1       2       1       1       2       1       1
       2       1       1       2       1       1       2       1       1       2
       1       1       2       1       1       2       1       1       2       1
       1       2       1       1       2       1       1       2       1       1
       2       1       1       2       1       1       2       1       1       2
       1       1       2       1       1       2       1       1       2       1
       1       2       1       1       2       1       1       2       1       1
       2       1       1       2       1       1       2       1       1       2
       1       1       2       1       1       2       1       1       2       1
       1       2       1       1       2       1       1       2       1       1
       2       1       1       2       1       1       2       1       1       2
       1       1       2       1       1       2       1       1       2       1
       1       2       1       1       2       1       1       2       1       1
       2       1       1       2       1       1       2       1       1       2
       1       1       2       1       1       2       1       1       2       1
       1       2       1       1       2       1       1       2       1       1
       2       1       1       2       1       1       2       1       1       2
       1       1       2       1       1       2       1       1       2       1
       1       2       1       1       2       1       1       2       1       1
       2       1       1       2       1       1       2       1       1       2
       1       1       2       1       1       2       1       1       2       1
       1       2       1       1       2       1       1       2       1       1
       2       1       1       2       1       1       2       1       1       2
       1       1       2       1       1       2       1       1       2       1
       1       2       1       1       2       1       1       2       1       1
       2       1       1       2       1       1       2       1       1       2
       1       1       2       1       1       2       1       1       2       1
       1       2       1       1       2       1       1       2       1       1
       2       1       1       2       1       1       2       1       1       2
       1       1       2       1       1       2       1       1       2       1
       1       2       1       1       2       1       1       2       1       1
       2       1       1       2       1       1       2       1       1       2
       1       1       2       1       1       2       1       1       2       1
       1       2       1       1       2       1       1       2       1       1
       2       1       1       2       1       1       2       1       1       2
       1       1       2       1       1       2       1       1       2       1
       1       2       1       1       2       1       1       2       1       1
       2       1       1       2       1       1       2       1       1       2
       1       1       2       1       1       2       1       1       2       1
       1       2       1       1       2       1       1       2       1       1
       2       1       1       2       1       1       2       1       1       2
       1       1       2       1       1       2       1       1       2       1
       1       2       1       1       2       1       1       2       1       1
       2       1       1       2       1       1       2       1       1       2
       1       1       2       1       1       2       1       1       2       1
       1       2       1       1       2       1       1       2       1       1
       2       1       1       2       1       1       2       1       1       2
       1       1       2       1       1       2       1       1       2       1
       1       2       1       1       2       1       1       2       1       1
       2       1       1       2       1       1       2       1       1       2
       1       1       2       1       1       2       1       1       2       1
       1       2       1       1       2       1       1       2       1       1
       2       1       1       2       1       1       2       1       1       2
       1       1       2       1       1       2       1       1       2       1
       1       2       1       1       2       1       1       2       1       1
       2       1       1       2       1       1       2       1       1       2
       1       1       2       1       1       2       1       1       2       1
       1       2       1       1       2       1       1       2       1       1
       2       1       1       2       1       1       2       1       1       2
       1       1       2       1       1       2       1       1       2       1
       1       2       1       1       2       1       1       2       1       1
       2       1       1       2       1       1       2       1       1       2
       1       1       2       1       1       2       1       1       2       1
       1       2       1       1       2       1       1       2       1       1
       2       1       1       2       1       1       2       1       1       2
       1       1       2       1       1       2       1       1       2       1
       1       2       1       1       2       1       1       2       1       1
       2       1       1       2       1       1       2       1       1       2
       1       1       2       1       1       2       1       1       2       1
       1       2       1       1       2       1       1       2       1       1
       2       1       1       2       1       1       2       1       1       2
       1       1       2       1       1       2       1       1       2       1
       1       2       1       1       2       1       1       2       1       1
       2       1       1       2       1       1       2       1       1       2
       1       1       2       1       1       2       1       1       2       1
       1       2       1       1       2       1       1       2       1       1
       2       1       1       2       1       1       2       1       1       2
       1       1       2       1       1       2       1       1       2       1
       1       2       1       1       2       1       1       2       1       1
       2       1       1       2       1       1       2       1       1       2
       1       1       2       1       1       2       1       1       2       1
       1       2       1       1       2       1       1       2       1       1
       2       1       1       2       1       1       2       1       1       2
       1       1       2       1       1       2       1       1       2       1
       1       2       1       1       2       1       1       2       1       1
       2       1       1       2       1       1       2       1       1       2
       1       1       2       1       1       2       1       1       2       1
       1       2       1       1       2       1       1       2       1       1
       2       1       1       2       1       1       2       1       1       2
       1       1       2       1       1       2       1       1       2       1
       1       2       1       1       2       1       1       2       1       1
       2       1       1       2       1       1       2       1       1       2
       1       1       2       1       1       2       1       1       2       1
       1       2       1       1       2       1       1       2       1       1
       2       1       1       2       1       1       2       1       1       2
       1       1       2       1       1       2       1       1       2       1
       1       2       1       1       2       1       1       2       1       1
       2       1       1       2       1       1       2       1       1       2
       1       1       2       1       1       2       1       1       2       1
       1       2       1       1       2       1       1       2       1       1
       2       1       1       2       1       1       2       1       1       2
       1       1       2       1       1       2       1       1       2       1
       1       2       1       1       2       1       1       2       1       1
       2       1       1       2       1       1       2       1       1       2
       1       1       2       1       1       2       1       1       2       1
       1       2       1       1       2       1       1       2       1       1
       2       1       1       2       1       1       2       1       1       2
       1       1       2       1       1       2       1       1       2       1
       1       2       1       1       2       1       1       2       1       1
       2       1       1       2       1       1       2       1       1       2
       1       1       2       1       1       2       1       1       2       1
       1       2       1       1       2       1       1       2       1       1
       2       1       1       2       1       1       2       1       1       2
       1       1       2       1       1       2       1       1       2       1
       1       2       1       1       2       1       1       2       1       1
       2       1       1       2       1       1       2       1       1       2
       1       1       2       1       1       2       1       1       2       1
       1       2       1       1       2       1       1       2       1       1
       2       1       1       2       1       1       2       1       1       2
       1       1       2       1       1       2       1       1       2       1
       1       2       1       1       2       1       1       2       1       1
       2       1       1       2       1       1       2       1       1       2
       1       1       2       1       1       2       1       1       2       1
       1       2       1       1       2       1       1       2       1       1
       2       1       1       2       1       1       2       1       1       2
       1       1       2       1       1       2       1       1       2       1
       1       2       1       1       2       1       1       2       1       1
       2       1       1       2       1       1       2       1       1       2
       1       1       2       1       1       2       1       1       2       1
       1       2       1       1       2       1       1       2       1       1
       2       1       1       2       1       1       2       1       1       2
       1       1       2       1       1       2       1       1       2       1
       1       2       1       1       2       1       1       2       1       1
       2       1       1       2       1       1       2       1       1       2
       1       1       2       1       1       2       1       1       2       1
       1       2       1       1       2       1       1       2       1       1
       2       1       1       2       1       1       2       1       1       2
       1       1       2       1       1       2       1       1       2       1
       1       2       1       1       2       1       1       2       1       1
       2       1       1       2       1       1       2       1       1       2
       1       1       2       1       1       2       1       1       2       1
       1       2       1       1       2       1       1       2       1       1
       2       1       1       2       1       1       2       1       1       2
       1       1       2       1       1       2       1       1       2       1
       1       2       1       1       2       1       1       2       1       1
       2       1       1       2       1       1       2       1       1       2
       1       1       2       1       1       2       1       1       2       1
       1       2       1       1       2       1       1       2       1       1
       2       1       1       2       1       1       2       1       1       2
       1       1       2       1       1       2       1       1       2       1
       1       2       1       1       2       1       1       2       1       1
       2       1       1       2       1       1       2       1       1       2
       1       1       2       1       1       2       1       1       2       1
       1       2       1       1       2       1       1       2       1       1
       2       1       1       2       1       1       2       1       1       2
       1       1       2       1       1       2       1       1       2       1
       1       2       1       1       2       1       1       2       1       1
       2       1       1       2       1       1       2       1       1       2
       1       1       2       1       1       2       1       1       2       1
       1       2       1       1       2       1       1       2       1       1
       2       1       1       2       1       1       2       1       1       2
       1       1       2       1       1       2       1       1       2       1
       1       2       1       1       2       1       1       2       1       1
       2       1       1       2       1       1       2       1       1       2
       1       1       2       1       1       2       1       1       2       1
       1       2       1       1       2       1       1       2       1       1
       2       1       1       2       1       1       2       1       1       2
       1       1       2       1       1       2       1       1       2       1
       1       2       1       1       2       1       1       2       1       1
       2       1       1       2       1       1       2       1       1       2
       1       1       2       1       1       2       1       1       2       1
       1       2       1       1       2       1       1       2       1       1
       2       1       1       2       1       1       2       1       1       2
       1       1       2       1       1       2       1       1       2       1
       1       2       1       1       2       1       1       2       1       1
       2       1       1       2       1       1       2       1       1       2
       1       1       2       1       1       2       1       1       2       1
       1       2       1       1       2       1       1       2       1       1
       2       1       1       2       1       1       2       1       1       2
       1       1       2       1       1       2       1       1       2       1
       1       2       1       1       2       1       1       2       1       1
       2       1       1       2       1       1       2       1       1       2
       1       1       2       1       1       2       1       1       2       1
       1       2       1       1       2       1       1       2       1       1
       2       1       1       2       1       1       2       1       1       2
       1       1       2       1       1       2       1       1       2       1
       1       2       1       1       2       1       1       2       1       1
       2       1       1       2       1       1       2       1       1       2
       1       1       2       1       1       2       1       1       2       1
       1       2       1       1       2       1       1       2       1       1
       2       1       1       2       1       1       2       1       1       2
       1       1       2       1       1       2       1       1       2       1
       1       2       1       1       2       1       1       2       1       1
       2       1       1       2       1       1       2       1       1       2
       1       1       2       1       1       2       1       1       2       1
       1       2       1       1       2       1       1       2       1       1
       2       1       1       2       1       1       2       1       1       2
       1       1       2       1       1       2       1       1       2       1
       1       2       1       1       2       1       1       2       1       1
       2       1       1       2       1       1       2       1       1       2
       1       1       2       1       1       2       1       1       2       1
       1       2       1       1       2       1       1       2       1       1
       2       1       1       2       1       1       2       1       1       2
       1       1       2       1       1       2       1       1       2       1
       1       2       1       1       2       1       1       2       1       1
       2       1       1       2       1       1       2       1       1       2
       1       1       2       1       1       2       1       1       2       1
       1       2       1       1       2       1       1       2       1       1
       2       1       1       2       1       1       2       1       1       2
       1       1       2       1       1       2       1       1       2       1
       1       2       1       1       2       1       1       2       1       1
       2       1       1       2       1       1       2       1       1       2
       1       1       2       1       1       2       1       1       2       1
       1       2       1       1       2       1       1       2       1       1
       2       1       1       2       1       1       2       1       1       2
       1       1       2       1       1       2       1       1       2       1
       1       2       1       1       2       1       1       2       1       1
       2       1       1       2       1       1       2       1       1       2
       1       1       2       1       1       2       1       1       2       1
       1       2       1       1       2       1       1       2       1       1
       2       1       1       2       1       1       2       1       1       2
       1       1       2       1       1       2       1       1       2       1
       1       2       1       1       2       1       1       2       1       1
       2       1       1       2       1       1       2       1       1       2
       1       1       2       1       1       2       1       1       2       1
       1       2       1       1       2       1       1       2       1       1
       2       1       1       2       1       1       2       1       1       2
       1       1       2       1       1       2       1       1       2       1
       1       2       1       1       2       1       1       2       1       1
       2       1       1       2       1       1       2       1       1       2
       1       1       2       1       1       2       1       1       2       1
       1       2       1       1       2       1       1       2       1       1
       2       1       1       2       1       1       2       1       1       2
       1       1       2       1       1       2       1       1       2       1
       1       2       1       1       2       1       1       2       1       1
       2       1       1       2       1       1       2       1       1       2
       1       1       2       1       1       2       1       1       2       1
       1       2       1       1       2       1       1       2       1       1
       2       1       1       2       1       1       2       1       1       2
       1       1       2       1       1       2       1       1       2       1
       1       2       1       1       2       1       1       2       1       1
       2       1       1       2       1       1       2       1       1       2
       1       1       2       1       1       2       1       1       2       1
       1       2       1       1       2       1       1       2       1       1
       2       1       1       2       1       1       2       1       1       2
       1       1       2       1       1       2       1       1       2       1
       1       2       1       1       2       1       1       2       1       1
       2       1       1       2       1       1       2       1       1       2
       1       1       2       1       1       2       1       1       2       1
       1       2       1       1       2       1       1       2       1       1
       2       1       1       2       1       1       2       1       1       2
       1       1       2       1       1       2       1       1       2       1
       1       2       1       1       2       1       1       2       1       1
       2       1       1       2       1       1       2       1       1       2
       1       1       2       1       1       2       1       1       2       1
       1       2       1       1       2       1       1       2       1       1
       2       1       1       2       1       1       2       1       1       2
       1       1       2       1       1       2       1       1       2       1
       1       2       1       1       2       1       1       2       1       1
       2       1       1       2       1       1       2       1       1       2
       1       1       2       1       1       2       1       1       2       1
       1       2       1       1       2       1       1       2       1       1
       2       1       1       2       1       1       2       1       1       2
       1       1       2       1       1       2       1       1       2       1
       1       2       1       1       2       1       1       2       1       1
       2       1       1       2       1       1       2       1       1       2
       1       1       2       1       1       2       1       1       2       1
       1       2       1       1       2       1       1       2       1       1
       2       1       1       2       1       1       2       1       1       2
       1       1       2       1       1       2       1       1       2       1
       1       2       1       1       2       1       1       2       1       1
       2       1       1       2       1       1       2       1       1       2
       1       1       2       1       1       2       1       1       2       1
       1       2       1       1       2       1       1       2       1       1
       2       1       1       2       1       1       2       1       1       2
       1       1       2       1       1       2       1       1       2       1
       1       2       1       1       2       1       1       2       1       1
       2       1       1       2       1       1       2       1       1       2
       1       1       2       1       1       2       1       1       2       1
       1       2       1       1       2       1       1       2       1       1
       2       1       1       2       1       1       2       1       1       2
       1       1       2       1       1       2       1       1       2       1
       1       2       1       1       2       1       1       2       1       1
       2       1       1       2       1       1       2       1       1       2
       1       1       2       1       1       2       1       1       2       1
       1       2       1       1       2       1       1       2       1       1
       2       1       1       2       1       1       2       1       1       2
       1       1       2       1       1       2       1       1       2       1
       1       2       1       1       2       1       1       2       1       1
       2       1       1       2       1       1       2       1       1       2
       1       1       2       1       1       2       1       1       2       1
       1       2       1       1       2       1       1       2       1       1
       2       1       1       2       1       1       2       1       1       2
       1       1       2       1       1       2       1       1       2       1
       1       2       1       1       2       1       1       2       1       1
       2       1       1       2       1       1       2       1       1       2
       1       1       2       1       1       2       1       1       2       1
       1       2       1       1       2       1       1       2       1       1
       2       1       1       2       1       1       2       1       1       2
       1       1       2       1       1       2       1       1       2       1
       1       2       1       1       2       1       1       2       1       1
       2       1       1       2       1       1       2       1       1       2
       1       1       2       1       1       2       1       1       2       1
       1       2       1       1       2       1       1       2       1       1
       2       1       1       2       1       1       2       1       1       2
       1       1       2       1       1       2       1       1       2       1
       1       2       1       1       2       1       1       2       1       1
       2       1       1       2       1       1       2       1       1       2
       1       1       2       1       1       2       1       1       2       1
       1       2       1       1       2       1       1       2       1       1
       2       1       1       2       1       1       2       1       1       2
       1       1       2       1       1       2       1       1       2       1
       1       2       1       1       2       1       1       2       1       1
       2       1       1       2       1       1       2       1       1       2
       1       1       2       1       1       2       1       1       2       1
       1       2       1       1       2       1       1       2       1       1
       2       1       1       2       1       1       2       1       1       2
       1       1       2       1       1       2       1       1       2       1
       1       2       1       1       2       1       1       2       1       1
       2       1       1       2       1       1       2       1       1       2
       1       1       2       1       1       2       1       1       2       1
       1       2       1       1       2       1       1       2       1       1
       2       1       1       2       1       1       2       1       1       2
       1       1       2       1       1       2       1       1       2       1
       1       2       1       1       2       1       1       2       1       1
       2       1       1       2       1       1       2       1       1       2
       1       1       2       1       1       2       1       1       2       1
       1       2       1       1       2       1       1       2       1       1
       2       1       1       2       1       1       2       1       1       2
       1       1       2       1       1       2       1       1       2       1
       1       2       1       1       2       1       1       2       1       1
       2       1       1       2       1       1       2       1       1       2
       1       1       2       1       1       2       1       1       2       1
       1       2       1       1       2       1       1       2       1       1
       2       1       1       2       1       1       2       1       1       2
       1       1       2       1       1       2       1       1       2       1
       1       2       1       1       2       1       1       2       1       1
       2       1       1       2       1       1       2       1       1       2
       1       1       2       1       1       2       1       1       2       1
       1       2       1       1       2       1       1       2       1       1
       2       1       1       2       1       1       2       1       1       2
       1       1       2       1       1       2       1       1       2       1
       1       2       1       1       2       1       1       2       1       1
       2       1       1       2       1       1       2       1       1       2
       1       1       2       1       1       2       1       1       2       1
       1       2       1       1       2       1       1       2       1       1
       2       1       1       2       1       1       2       1       1       2
       1       1       2       1       1       2       1       1       2       1
       1       2       1       1       2       1       1       2       1       1
       2       1       1       2       1       1       2       1       1       2
       1       1       2       1       1       2       1       1       2       1
       1       2       1       1       2       1       1       2       1       1
       2       1       1       2       1       1       2       1       1       2
       1       1       2       1       1       2       1       1       2       1
       1       2       1       1       2       1       1       2       1       1
       2       1       1       2       1       1       2       1       1       2
       1       1       2       1       1       2       1       1       2       1
       1       2       1       1       2       1       1       2       1       1
       2       1       1       2       1       1       2       1       1       2
       1       1       2       1       1       2       1       1       2       1
       1       2       1       1       2       1       1       2       1       1
       2       1       1       2       1       1       2       1       1       2
       1       1       2       1       1       2       1       1       2       1
       1       2       1       1       2       1       1       2       1       1
       2       1       1       2       1       1       2       1       1       2
       1       1       2       1       1       2       1       1       2       1
       1       2       1       1       2       1       1       2       1       1
       2       1       1       2       1       1       2       1       1       2
       1       1       2       1       1       2       1       1       2       1
       1       2       1       1       2       1       1       2       1       1
       2       1       1       2       1       1       2       1       1       2
       1       1       2       1       1       2       1       1       2       1
       1       2       1       1       2       1       1       2       1       1
       2       1       1       2       1       1       2       1       1       2
       1       1       2       1       1       2       1       1       2       1
       1       2       1       1       2       1       1       2       1       1
       2       1       1       2       1       1       2       1       1       2
       1       1       2       1       1       2       1       1       2       1
       1       2       1       1       2       1       1       2       1       1
       2       1       1       2       1       1       2       1       1       2
       1       1       2       1       1       2       1       1       2       1
       1       2       1       1       2       1       1       2       1       1
       2       1       1       2       1       1       2       1       1       2
       1       1       2       1       1       2       1       1       2       1
       1       2       1       1       2       1       1       2       1       1
       2       1       1       2       1       1       2       1       1       2
       1       1       2       1       1       2       1       1       2       1
       1       2       1       1       2       1       1       2       1       1
       2       1       1       2       1       1       2       1       1       2
       1       1       2       1       1       2       1       1       2       1
       1       2       1       1       2       1       1       2       1       1
       2       1       1       2       1       1       2       1       1       2
       1       1       2       1       1       2       1       1       2       1
       1       2       1       1       2       1       1       2       1       1
       2       1       1       2       1       1       2       1       1       2
       1       1       2       1       1       2       1       1       2       1
       1       2       1       1       2       1       1       2       1       1
       2       1       1       2       1       1       2       1       1       2
       1       1       2       1       1       2       1       1       2       1
       1       2       1       1       2       1       1       2       1       1
       2       1       1       2       1       1       2       1       1       2
       1       1       2       1       1       2       1       1       2       1
       1       2       1       1       2       1       1       2       1       1
       2       1       1       2       1       1       2       1       1       2
       1       1       2       1       1       2       1       1       2       1
       1       2       1       1       2       1       1       2       1       1
       2       1       1       2       1       1       2       1       1       2
       1       1       2       1       1       2       1       1       2       1
       1       2       1       1       2       1       1       2       1       1
       2       1       1       2       1       1       2       1       1       2
       1       1       2       1       1       2       1       1       2       1
       1       2       1       1       2       1       1       2       1       1
       2       1       1       2       1       1       2       1       1       2
       1       1       2       1       1       2       1       1       2       1
       1       2       1       1       2       1       1       2       1       1
       2       1       1       2       1       1       2       1       1       2
       1       1       2       1       1       2       1       1       2       1
       1       2       1       1       2       1       1       2       1       1
       2       1       1       2       1       1       2       1       1       2
       1       1       2       1       1       2       1       1       2       1
       1       2       1       1       2       1       1       2       1       1
       2       1       1       2       1       1       2       1       1       2
       1       1       2       1       1       2       1       1       2       1
       1       2       1       1       2       1       1       2       1       1
       2       1       1       2       1       1       2       1       1       2
       1       1       2       1       1       2       1       1       2       1
       1       2       1       1       2       1       1       2       1       1
       2       1       1       2       1       1       2       1       1       2
       1       1       2       1       1       2       1       1       2       1
       1       2       1       1       2       1       1       2       1       1
       2       1       1       2       1       1       2       1       1       2
       1       1       2       1       1       2       1       1       2       1
       1       2       1       1       2       1       1       2       1       1
       2       1       1       2       1       1       2       1       1       2
       1       1       2       1       1       2       1       1       2       1
       1       2       1       1       2       1       1       2       1       1
       2       1       1       2       1       1       2       1       1       2
       1       1       2       1       1       2       1       1       2       1
       1       2       1       1       2       1       1       2       1       1
       2       1       1       2       1       1       2       1       1       2
       1       1       2       1       1       2       1       1       2       1
       1       2       1       1       2       1       1       2       1       1
       2       1       1       2       1       1       2       1       1       2
       1       1       2       1       1       2       1       1       2       1
       1       2       1       1       2       1       1       2       1       1
       2       1       1       2       1       1       2       1       1       2
       1       1       2       1       1       2       1       1       2       1
       1       2       1       1       2       1       1       2       1       1
       2       1       1       2       1       1       2       1       1       2
       1       1       2       1       1       2       1       1       2       1
       1       2       1       1       2       1       1       2       1       1
       2       1       1       2       1       1       2       1       1       2
       1       1       2       1       1       2       1       1       2       1
       1       2       1       1       2       1       1       2       1       1
       2       1       1       2       1       1       2       1       1       2
       1       1       2       1       1       2       1       1       2       1
       1       2       1       1       2       1       1       2       1       1
       2       1       1       2       1       1       2       1       1       2
       1       1       2       1       1       2       1       1       2       1
       1       2       1       1       2       1       1       2       1       1
       2       1       1       2       1       1       2       1       1       2
       1       1       2       1       1       2       1       1       2       1
       1       2       1       1       2       1       1       2       1       1
       2       1       1       2       1       1       2       1       1       2
       1       1       2       1       1       2       1       1       2       1
       1       2       1       1       2       1       1       2       1       1
       2       1       1       2       1       1       2       1       1       2
       1       1       2       1       1       2       1       1       2       1
       1       2       1       1       2       1       1       2       1       1
       2       1       1       2       1       1       2       1       1       2
       1       1       2       1       1       2       1       1       2       1
       1       2       1       1       2       1       1       2       1       1
       2       1       1       2       1       1       2       1       1       2
       1       1       2       1       1       2       1       1       2       1
       1       2       1       1       2       1       1       2       1       1
       2       1       1       2       1       1       2       1       1       2
       1       1       2       1       1       2       1       1       2       1
       1       2       1       1       2       1       1       2       1       1
       2       1       1       2       1       1       2       1       1       2
       1       1       2       1       1       2       1       1       2       1
       1       2       1       1       2       1       1       2       1       1
       2       1       1       2       1       1       2       1       1       2
       1       1       2       1       1       2       1       1       2       1
       1       2       1       1       2       1       1       2       1       1
       2       1       1       2       1       1       2       1       1       2
       1       1       2       1       1       2       1       1       2       1
       1       2       1       1       2       1       1       2       1       1
       2       1       1       2       1       1       2       1       1       2
       1       1       2       1       1       2       1       1       2       1
       1       2       1       1       2       1       1       2       1       1
       2       1       1       2       1       1       2       1       1       2
       1       1       2       1       1       2       1       1       2       1
       1       2       1       1       2       1       1       2       1       1
       2       1       1       2       1       1       2       1       1       2
       1       1       2       1       1       2       1       1       2       1
       1       2       1       1       2       1       1       2       1       1
       2       1       1       2       1       1       2       1       1       2
       1       1       2       1       1       2       1       1       2       1
       1       2       1       1       2       1       1       2       1       1
       2       1       1       2       1       1       2       1       1       2
       1       1       2       1       1       2       1       1       2       1
       1       2       1       1       2       1       1       2       1       1
       2       1       1       2       1       1       2       1       1       2
       1       1       2       1       1       2       1       1       2       1
       1       2       1       1       2       1       1
%FLAG NONBONDED_PARM_INDEX                                                      
%FORMAT(10I8)                                                                   
       1       2       4       7      11      16      22      29      37       2
       3       5       8      12      17      23      30      38       4       5
       6       9      13      18      24      31      39       7       8       9
      10      14      19      25      32      40      11      12      13      14
      15      20      26      33      41      16      17      18      19      20
      21      27      34      42      22      23      24      25      26      27
      28      35      43      29      30      31      32      33      34      35
      36      44      37      38      39      40      41      42      43      44
      45
%FLAG RESIDUE_LABEL                                                             
%FORMAT(20a4)                                                                   
NOT ZN  Na+ WAT WAT WAT WAT WAT WAT WAT WAT WAT WAT WAT WAT WAT WAT WAT WAT WAT 
WAT WAT WAT WAT WAT WAT WAT WAT WAT WAT WAT WAT WAT WAT WAT WAT WAT WAT WAT WAT 
WAT WAT WAT WAT WAT WAT WAT WAT WAT WAT WAT WAT WAT WAT WAT WAT WAT WAT WAT WAT 
WAT WAT WAT WAT WAT WAT WAT WAT WAT WAT WAT WAT WAT WAT WAT WAT WAT WAT WAT WAT 
WAT WAT WAT WAT WAT WAT WAT WAT WAT WAT WAT WAT WAT WAT WAT WAT WAT WAT WAT WAT 
WAT WAT WAT WAT WAT WAT WAT WAT WAT WAT WAT WAT WAT WAT WAT WAT WAT WAT WAT WAT 
WAT WAT WAT WAT WAT WAT WAT WAT WAT WAT WAT WAT WAT WAT WAT WAT WAT WAT WAT WAT 
WAT WAT WAT WAT WAT WAT WAT WAT WAT WAT WAT WAT WAT WAT WAT WAT WAT WAT WAT WAT 
WAT WAT WAT WAT WAT WAT WAT WAT WAT WAT WAT WAT WAT WAT WAT WAT WAT WAT WAT WAT 
WAT WAT WAT WAT WAT WAT WAT WAT WAT WAT WAT WAT WAT WAT WAT WAT WAT WAT WAT WAT 
WAT WAT WAT WAT WAT WAT WAT WAT WAT WAT WAT WAT WAT WAT WAT WAT WAT WAT WAT WAT 
WAT WAT WAT WAT WAT WAT WAT WAT WAT WAT WAT WAT WAT WAT WAT WAT WAT WAT WAT WAT 
WAT WAT WAT WAT WAT WAT WAT WAT WAT WAT WAT WAT WAT WAT WAT WAT WAT WAT WAT WAT 
WAT WAT WAT WAT WAT WAT WAT WAT WAT WAT WAT WAT WAT WAT WAT WAT WAT WAT WAT WAT 
WAT WAT WAT WAT WAT WAT WAT WAT WAT WAT WAT WAT WAT WAT WAT WAT WAT WAT WAT WAT 
WAT WAT WAT WAT WAT WAT WAT WAT WAT WAT WAT WAT WAT WAT WAT WAT WAT WAT WAT WAT 
WAT WAT WAT WAT WAT WAT WAT WAT WAT WAT WAT WAT WAT WAT WAT WAT WAT WAT WAT WAT 
WAT WAT WAT WAT WAT WAT WAT WAT WAT WAT WAT WAT WAT WAT WAT WAT WAT WAT WAT WAT 
WAT WAT WAT WAT WAT WAT WAT WAT WAT WAT WAT WAT WAT WAT WAT WAT WAT WAT WAT WAT 
WAT WAT WAT WAT WAT WAT WAT WAT WAT WAT WAT WAT WAT WAT WAT WAT WAT WAT WAT WAT 
WAT WAT WAT WAT WAT WAT WAT WAT WAT WAT WAT WAT WAT WAT WAT WAT WAT WAT WAT WAT 
WAT WAT WAT WAT WAT WAT WAT WAT WAT WAT WAT WAT WAT WAT WAT WAT WAT WAT WAT WAT 
WAT WAT WAT WAT WAT WAT WAT WAT WAT WAT WAT WAT WAT WAT WAT WAT WAT WAT WAT WAT 
WAT WAT WAT WAT WAT WAT WAT WAT WAT WAT WAT WAT WAT WAT WAT WAT WAT WAT WAT WAT 
WAT WAT WAT WAT WAT WAT WAT WAT WAT WAT WAT WAT WAT WAT WAT WAT WAT WAT WAT WAT 
WAT WAT WAT WAT WAT WAT WAT WAT WAT WAT WAT WAT WAT WAT WAT WAT WAT WAT WAT WAT 
WAT WAT WAT WAT WAT WAT WAT WAT WAT WAT WAT WAT WAT WAT WAT WAT WAT WAT WAT WAT 
WAT WAT WAT WAT WAT WAT WAT WAT WAT WAT WAT WAT WAT WAT WAT WAT WAT WAT WAT WAT 
WAT WAT WAT WAT WAT WAT WAT WAT WAT WAT WAT WAT WAT WAT WAT WAT WAT WAT WAT WAT 
WAT WAT WAT WAT WAT WAT WAT WAT WAT WAT WAT WAT WAT WAT WAT WAT WAT WAT WAT WAT 
WAT WAT WAT WAT WAT WAT WAT WAT WAT WAT WAT WAT WAT WAT WAT WAT WAT WAT WAT WAT 
WAT WAT WAT WAT WAT WAT WAT WAT WAT WAT WAT WAT WAT WAT WAT WAT WAT WAT WAT WAT 
WAT WAT WAT WAT WAT WAT WAT WAT WAT WAT WAT WAT WAT WAT WAT WAT WAT WAT WAT WAT 
WAT WAT WAT WAT WAT WAT WAT WAT WAT WAT WAT WAT WAT WAT WAT WAT WAT WAT WAT WAT 
WAT WAT WAT WAT WAT WAT WAT WAT WAT WAT WAT WAT WAT WAT WAT WAT WAT WAT WAT WAT 
WAT WAT WAT WAT WAT WAT WAT WAT WAT WAT WAT WAT WAT WAT WAT WAT WAT WAT WAT WAT 
WAT WAT WAT WAT WAT WAT WAT WAT WAT WAT WAT WAT WAT WAT WAT WAT WAT WAT WAT WAT 
WAT WAT WAT WAT WAT WAT WAT WAT WAT WAT WAT WAT WAT WAT WAT WAT WAT WAT WAT WAT 
WAT WAT WAT WAT WAT WAT WAT WAT WAT WAT WAT WAT WAT WAT WAT WAT WAT WAT WAT WAT 
WAT WAT WAT WAT WAT WAT WAT WAT WAT WAT WAT WAT WAT WAT WAT WAT WAT WAT WAT WAT 
WAT WAT WAT WAT WAT WAT WAT WAT WAT WAT WAT WAT WAT WAT WAT WAT WAT WAT WAT WAT 
WAT WAT WAT WAT WAT WAT WAT WAT WAT WAT WAT WAT WAT WAT WAT WAT WAT WAT WAT WAT 
WAT WAT WAT WAT WAT WAT WAT WAT WAT WAT WAT WAT WAT WAT WAT WAT WAT WAT WAT WAT 
WAT WAT WAT WAT WAT WAT WAT WAT WAT WAT WAT WAT WAT WAT WAT WAT WAT WAT WAT WAT 
WAT WAT WAT WAT WAT WAT WAT WAT WAT WAT WAT WAT WAT WAT WAT WAT WAT WAT WAT WAT 
WAT WAT WAT WAT WAT WAT WAT WAT WAT WAT WAT WAT WAT WAT WAT WAT WAT WAT WAT WAT 
WAT WAT WAT WAT WAT WAT WAT WAT WAT WAT WAT WAT WAT WAT WAT WAT WAT WAT WAT WAT 
WAT WAT WAT WAT WAT WAT WAT WAT WAT WAT WAT WAT WAT WAT WAT WAT WAT WAT WAT WAT 
WAT WAT WAT WAT WAT WAT WAT WAT WAT WAT WAT WAT WAT WAT WAT WAT WAT WAT WAT WAT 
WAT WAT WAT WAT WAT WAT WAT WAT WAT WAT WAT WAT WAT WAT WAT WAT WAT WAT WAT WAT 
WAT WAT WAT WAT WAT WAT WAT WAT WAT WAT WAT WAT WAT WAT WAT WAT WAT WAT WAT WAT 
WAT WAT WAT WAT WAT WAT WAT WAT WAT WAT WAT WAT WAT WAT WAT WAT WAT WAT WAT WAT 
WAT WAT WAT WAT WAT WAT WAT WAT WAT WAT WAT WAT WAT WAT WAT WAT WAT WAT WAT WAT 
WAT WAT WAT WAT WAT WAT WAT WAT WAT WAT WAT WAT WAT WAT WAT WAT WAT WAT WAT WAT 
WAT WAT WAT WAT WAT WAT WAT WAT WAT WAT WAT WAT WAT WAT WAT WAT WAT WAT WAT WAT 
WAT WAT WAT WAT WAT WAT WAT WAT WAT WAT WAT WAT WAT WAT WAT WAT WAT WAT WAT WAT 
WAT WAT WAT WAT WAT WAT WAT WAT WAT WAT WAT WAT WAT WAT WAT WAT WAT WAT WAT WAT 
WAT WAT WAT WAT WAT WAT WAT WAT WAT WAT WAT WAT WAT WAT WAT WAT WAT WAT WAT WAT 
WAT WAT WAT WAT WAT WAT WAT WAT WAT WAT WAT WAT WAT WAT WAT WAT WAT WAT WAT WAT 
WAT WAT WAT WAT WAT WAT WAT WAT WAT WAT WAT WAT WAT WAT WAT WAT WAT WAT WAT WAT 
WAT WAT WAT WAT WAT WAT WAT WAT WAT WAT WAT WAT WAT WAT WAT WAT WAT WAT WAT WAT 
WAT WAT WAT WAT WAT WAT WAT WAT WAT WAT WAT WAT WAT WAT WAT WAT WAT WAT WAT WAT 
WAT WAT WAT WAT WAT WAT WAT WAT WAT WAT WAT WAT WAT WAT WAT WAT WAT WAT WAT WAT 
WAT WAT WAT WAT WAT WAT WAT WAT WAT WAT WAT WAT WAT WAT WAT WAT WAT WAT WAT WAT 
WAT WAT WAT WAT WAT WAT WAT WAT WAT WAT WAT WAT WAT WAT WAT WAT WAT WAT WAT WAT 
WAT WAT WAT WAT WAT WAT WAT WAT WAT WAT WAT WAT WAT WAT WAT WAT WAT WAT WAT WAT 
WAT WAT WAT WAT WAT WAT WAT WAT WAT WAT WAT WAT WAT WAT WAT WAT WAT WAT WAT WAT 
WAT WAT WAT WAT WAT WAT WAT WAT WAT WAT WAT WAT WAT WAT WAT WAT WAT WAT WAT WAT 
WAT WAT WAT WAT WAT WAT WAT WAT WAT WAT WAT WAT WAT WAT WAT WAT WAT WAT WAT WAT 
WAT WAT WAT WAT WAT WAT WAT WAT WAT WAT WAT WAT WAT WAT WAT WAT WAT WAT WAT WAT 
WAT WAT WAT WAT WAT WAT WAT WAT WAT WAT WAT WAT WAT WAT WAT WAT WAT WAT WAT WAT 
WAT WAT WAT WAT WAT WAT WAT WAT WAT WAT WAT WAT WAT WAT WAT WAT WAT WAT WAT WAT 
WAT WAT WAT WAT WAT WAT WAT WAT WAT WAT WAT WAT WAT WAT WAT WAT WAT WAT WAT WAT 
WAT WAT WAT WAT WAT WAT WAT WAT WAT WAT WAT WAT WAT WAT WAT WAT WAT WAT WAT WAT 
WAT WAT WAT WAT WAT WAT WAT WAT WAT WAT WAT WAT WAT WAT WAT WAT WAT WAT WAT WAT 
WAT WAT WAT WAT WAT WAT WAT WAT WAT WAT WAT WAT WAT WAT WAT WAT WAT WAT WAT WAT 
WAT WAT WAT WAT WAT WAT WAT WAT WAT WAT WAT WAT WAT WAT WAT WAT WAT WAT WAT WAT 
WAT WAT WAT WAT WAT WAT WAT WAT WAT WAT WAT WAT WAT WAT WAT WAT WAT WAT WAT WAT 
WAT WAT WAT WAT WAT WAT WAT WAT WAT WAT WAT WAT WAT WAT WAT WAT WAT WAT WAT WAT 
WAT WAT WAT WAT WAT WAT WAT WAT WAT WAT WAT WAT WAT WAT WAT WAT WAT WAT WAT WAT 
WAT WAT WAT WAT WAT WAT WAT WAT WAT WAT WAT WAT WAT WAT WAT WAT WAT WAT WAT WAT 
WAT WAT WAT WAT WAT WAT WAT WAT WAT WAT WAT WAT WAT WAT WAT WAT WAT WAT WAT WAT 
WAT WAT WAT WAT WAT WAT WAT WAT WAT WAT WAT WAT WAT WAT WAT WAT WAT WAT WAT WAT 
WAT WAT WAT WAT WAT WAT WAT WAT WAT WAT WAT WAT WAT WAT WAT WAT WAT WAT WAT WAT 
WAT WAT WAT WAT WAT WAT WAT WAT WAT WAT WAT WAT WAT WAT WAT WAT WAT WAT WAT WAT 
WAT WAT WAT WAT WAT WAT WAT WAT WAT WAT WAT WAT WAT WAT WAT WAT WAT WAT WAT WAT 
WAT WAT WAT WAT WAT WAT WAT WAT WAT WAT WAT WAT WAT WAT WAT WAT WAT WAT WAT WAT 
WAT WAT WAT WAT WAT WAT WAT WAT WAT WAT WAT WAT WAT WAT WAT WAT WAT WAT WAT WAT 
WAT WAT WAT WAT WAT WAT WAT WAT WAT WAT WAT WAT WAT WAT WAT WAT WAT WAT WAT WAT 
WAT WAT WAT WAT WAT WAT WAT WAT WAT WAT WAT WAT WAT WAT WAT WAT WAT WAT WAT WAT 
WAT WAT WAT WAT WAT WAT WAT WAT WAT WAT WAT WAT WAT WAT WAT WAT WAT WAT WAT WAT 
WAT WAT WAT WAT WAT WAT WAT WAT WAT WAT WAT WAT WAT WAT WAT WAT WAT WAT WAT WAT 
WAT WAT WAT WAT WAT WAT WAT WAT WAT WAT WAT WAT WAT WAT WAT WAT WAT WAT WAT WAT 
WAT WAT WAT WAT WAT WAT WAT WAT WAT WAT WAT WAT WAT WAT WAT WAT WAT WAT WAT WAT 
WAT WAT WAT WAT WAT WAT WAT WAT WAT WAT WAT WAT WAT WAT WAT WAT WAT WAT WAT WAT 
WAT WAT WAT WAT WAT WAT WAT WAT WAT WAT WAT WAT WAT WAT WAT WAT WAT WAT WAT WAT 
WAT WAT WAT WAT WAT WAT WAT WAT WAT WAT WAT WAT WAT WAT WAT WAT WAT WAT WAT WAT 
WAT WAT WAT WAT WAT WAT WAT WAT WAT WAT WAT WAT WAT WAT WAT WAT WAT WAT WAT WAT 
WAT WAT WAT WAT WAT WAT WAT WAT WAT WAT WAT WAT WAT WAT WAT WAT WAT WAT WAT WAT 
WAT WAT WAT WAT WAT WAT WAT WAT WAT WAT WAT WAT WAT WAT WAT WAT WAT WAT WAT WAT 
WAT WAT WAT WAT WAT WAT WAT WAT WAT WAT WAT WAT WAT WAT WAT WAT WAT WAT WAT WAT 
WAT WAT WAT WAT WAT WAT WAT WAT WAT WAT WAT WAT WAT WAT WAT WAT WAT WAT WAT WAT 
WAT WAT WAT WAT WAT WAT WAT WAT WAT WAT WAT WAT WAT WAT WAT WAT WAT WAT WAT WAT 
WAT WAT WAT WAT WAT WAT WAT WAT WAT WAT WAT WAT WAT WAT WAT WAT WAT WAT WAT WAT 
WAT WAT WAT WAT WAT WAT WAT WAT WAT WAT WAT WAT WAT WAT WAT WAT WAT WAT WAT WAT 
WAT WAT WAT WAT WAT WAT WAT WAT WAT WAT WAT WAT WAT WAT WAT WAT WAT WAT WAT WAT 
WAT WAT WAT WAT WAT WAT WAT WAT WAT WAT WAT WAT WAT WAT WAT WAT WAT WAT WAT WAT 
WAT WAT WAT WAT WAT WAT WAT WAT WAT WAT WAT WAT WAT WAT WAT WAT WAT WAT WAT WAT 
WAT WAT WAT WAT WAT WAT WAT WAT WAT WAT WAT WAT WAT WAT WAT WAT WAT WAT WAT WAT 
WAT WAT WAT WAT WAT WAT WAT WAT WAT WAT WAT WAT WAT WAT WAT WAT WAT WAT WAT WAT 
WAT WAT WAT WAT WAT WAT WAT WAT WAT WAT WAT WAT WAT WAT WAT WAT WAT WAT WAT WAT 
WAT WAT WAT WAT WAT WAT WAT WAT WAT WAT WAT WAT WAT WAT WAT WAT WAT WAT WAT WAT 
WAT WAT WAT WAT WAT WAT WAT WAT WAT WAT WAT WAT WAT WAT WAT WAT WAT WAT WAT WAT 
WAT WAT WAT WAT WAT WAT WAT WAT WAT WAT WAT WAT WAT WAT WAT WAT WAT WAT WAT WAT 
WAT WAT WAT WAT WAT WAT WAT WAT WAT WAT WAT WAT WAT WAT WAT WAT WAT WAT WAT WAT 
WAT WAT WAT WAT WAT WAT WAT WAT WAT WAT WAT WAT WAT WAT WAT WAT WAT WAT WAT WAT 
WAT WAT WAT WAT WAT WAT WAT WAT WAT WAT WAT WAT WAT WAT WAT WAT WAT WAT WAT WAT 
WAT WAT WAT WAT WAT WAT WAT WAT WAT WAT WAT WAT WAT WAT WAT WAT WAT WAT WAT WAT 
WAT WAT WAT WAT WAT WAT WAT WAT WAT WAT WAT WAT WAT WAT WAT WAT WAT WAT WAT WAT 
WAT WAT WAT WAT WAT WAT WAT WAT WAT WAT WAT WAT WAT WAT WAT WAT WAT WAT WAT WAT 
WAT WAT WAT WAT WAT WAT WAT WAT WAT WAT WAT WAT WAT WAT WAT WAT WAT WAT WAT WAT 
WAT WAT WAT WAT WAT WAT WAT WAT WAT WAT WAT WAT WAT WAT WAT WAT WAT WAT WAT WAT 
WAT WAT WAT WAT WAT WAT WAT WAT WAT WAT WAT WAT WAT WAT WAT WAT WAT WAT WAT WAT 
WAT WAT WAT WAT WAT WAT WAT WAT WAT WAT WAT WAT WAT WAT WAT WAT WAT WAT WAT WAT 
WAT WAT WAT WAT WAT WAT WAT WAT WAT WAT WAT WAT WAT WAT WAT WAT WAT WAT WAT WAT 
WAT WAT WAT WAT WAT WAT WAT WAT WAT WAT WAT WAT WAT WAT WAT WAT WAT WAT WAT WAT 
WAT WAT WAT WAT WAT WAT WAT WAT WAT WAT WAT WAT WAT WAT WAT WAT WAT WAT WAT WAT 
WAT WAT WAT WAT WAT WAT WAT WAT WAT WAT WAT WAT WAT WAT WAT WAT WAT WAT WAT WAT 
WAT WAT WAT WAT WAT WAT WAT WAT WAT WAT WAT WAT WAT WAT WAT WAT WAT WAT WAT WAT 
WAT WAT WAT WAT WAT WAT WAT WAT WAT WAT WAT WAT WAT WAT WAT WAT WAT WAT WAT WAT 
WAT WAT WAT WAT WAT WAT WAT WAT WAT WAT WAT WAT WAT WAT WAT WAT WAT WAT WAT WAT 
WAT WAT WAT WAT WAT WAT WAT WAT WAT WAT WAT WAT WAT WAT WAT WAT WAT WAT WAT WAT 
WAT WAT WAT WAT WAT WAT WAT WAT WAT WAT WAT WAT WAT WAT WAT WAT WAT WAT WAT WAT 
WAT WAT WAT WAT WAT WAT WAT WAT WAT WAT WAT WAT WAT WAT WAT WAT WAT WAT WAT WAT 
WAT WAT WAT WAT WAT WAT WAT WAT WAT WAT WAT WAT WAT WAT WAT WAT WAT WAT WAT WAT 
WAT WAT WAT WAT WAT WAT WAT WAT WAT WAT WAT WAT WAT WAT WAT WAT WAT WAT WAT WAT 
WAT WAT WAT WAT WAT WAT WAT WAT WAT WAT WAT WAT WAT WAT WAT WAT WAT WAT WAT WAT 
WAT WAT WAT WAT WAT WAT WAT WAT WAT WAT WAT WAT WAT WAT WAT WAT WAT WAT WAT WAT 
WAT WAT WAT WAT WAT WAT WAT WAT WAT WAT WAT WAT WAT WAT WAT WAT WAT WAT WAT WAT 
WAT WAT WAT WAT WAT WAT WAT WAT WAT WAT WAT WAT WAT WAT WAT WAT WAT WAT WAT WAT 
WAT WAT WAT WAT WAT WAT WAT WAT WAT WAT WAT WAT WAT WAT WAT WAT WAT WAT WAT WAT 
WAT WAT WAT WAT WAT WAT WAT WAT WAT WAT WAT WAT WAT WAT WAT WAT WAT WAT WAT WAT 
WAT WAT WAT WAT WAT WAT WAT WAT WAT WAT WAT WAT WAT WAT WAT WAT WAT WAT WAT WAT 
WAT WAT WAT WAT WAT WAT WAT WAT WAT WAT WAT WAT WAT WAT WAT WAT WAT WAT WAT WAT 
WAT WAT WAT WAT WAT WAT WAT WAT WAT WAT WAT WAT WAT WAT WAT WAT WAT WAT WAT WAT 
WAT WAT WAT WAT WAT WAT WAT WAT WAT WAT WAT WAT WAT WAT WAT WAT WAT WAT WAT WAT 
WAT WAT WAT WAT WAT WAT WAT WAT WAT WAT WAT WAT WAT WAT WAT WAT WAT WAT WAT WAT 
WAT WAT WAT WAT WAT WAT WAT WAT WAT WAT WAT WAT WAT WAT WAT WAT WAT WAT WAT WAT 
WAT WAT WAT WAT WAT WAT WAT WAT WAT WAT WAT WAT WAT WAT WAT WAT WAT WAT WAT WAT 
WAT WAT WAT WAT WAT WAT WAT WAT WAT WAT WAT WAT WAT WAT WAT WAT WAT WAT WAT WAT 
WAT WAT WAT WAT WAT WAT WAT WAT WAT WAT WAT WAT WAT WAT WAT WAT WAT WAT WAT WAT 
WAT WAT WAT WAT WAT WAT WAT WAT WAT WAT WAT WAT WAT WAT WAT WAT WAT WAT WAT WAT 
WAT WAT WAT WAT WAT WAT WAT WAT WAT WAT WAT WAT WAT WAT WAT WAT WAT WAT WAT WAT 
WAT WAT WAT WAT WAT WAT WAT WAT WAT WAT WAT WAT WAT WAT WAT WAT WAT WAT WAT WAT 
WAT WAT WAT WAT WAT WAT WAT WAT WAT WAT WAT WAT WAT WAT WAT WAT WAT WAT WAT WAT 
WAT WAT WAT WAT WAT WAT WAT WAT WAT WAT WAT WAT WAT WAT WAT WAT WAT WAT WAT WAT 
WAT WAT WAT WAT WAT WAT WAT WAT WAT WAT WAT WAT WAT WAT WAT WAT WAT WAT WAT WAT 
WAT WAT WAT WAT WAT WAT WAT WAT WAT WAT WAT WAT WAT WAT WAT WAT WAT WAT WAT WAT 
WAT WAT WAT WAT WAT WAT WAT WAT WAT WAT WAT WAT WAT WAT WAT WAT WAT WAT WAT WAT 
WAT WAT WAT WAT WAT WAT WAT WAT WAT WAT WAT WAT WAT WAT WAT WAT WAT WAT WAT WAT 
WAT WAT WAT WAT WAT WAT WAT WAT WAT WAT WAT WAT WAT WAT WAT WAT WAT WAT WAT WAT 
WAT WAT WAT WAT WAT WAT WAT WAT WAT WAT WAT WAT WAT WAT WAT WAT WAT WAT WAT WAT 
WAT WAT WAT WAT WAT WAT WAT WAT WAT WAT WAT WAT WAT WAT WAT WAT WAT WAT WAT WAT 
WAT WAT WAT WAT WAT WAT WAT WAT WAT WAT WAT WAT WAT WAT WAT WAT WAT WAT WAT WAT 
WAT WAT WAT WAT WAT WAT WAT WAT WAT WAT WAT WAT WAT WAT WAT WAT WAT WAT WAT WAT 
WAT WAT WAT WAT WAT WAT WAT WAT WAT WAT WAT WAT WAT WAT WAT WAT WAT WAT WAT WAT 
WAT WAT WAT WAT WAT WAT WAT WAT WAT WAT WAT WAT WAT WAT WAT WAT WAT WAT WAT WAT 
WAT WAT WAT WAT WAT WAT WAT WAT WAT WAT WAT WAT WAT WAT WAT WAT WAT WAT WAT WAT 
WAT WAT WAT WAT WAT WAT WAT WAT WAT WAT WAT WAT WAT WAT WAT WAT WAT WAT WAT WAT 
WAT WAT WAT WAT WAT WAT WAT WAT WAT WAT WAT WAT WAT WAT WAT WAT WAT WAT WAT WAT 
WAT WAT WAT WAT WAT WAT WAT WAT WAT WAT WAT WAT WAT WAT WAT WAT WAT WAT WAT WAT 
WAT WAT WAT WAT WAT WAT WAT WAT WAT WAT WAT WAT WAT WAT WAT WAT WAT WAT WAT WAT 
WAT WAT WAT WAT WAT WAT WAT WAT WAT WAT WAT WAT WAT WAT WAT WAT WAT WAT WAT WAT 
WAT WAT WAT WAT WAT WAT WAT WAT WAT WAT WAT WAT WAT WAT WAT WAT WAT WAT WAT WAT 
WAT WAT WAT WAT WAT WAT WAT WAT WAT WAT WAT WAT WAT WAT WAT WAT WAT WAT WAT WAT 
WAT WAT WAT WAT WAT WAT WAT WAT WAT WAT WAT WAT WAT WAT WAT WAT WAT WAT WAT WAT 
WAT WAT WAT WAT WAT WAT WAT WAT WAT WAT WAT WAT WAT WAT WAT WAT WAT WAT WAT WAT 
WAT WAT WAT WAT WAT WAT WAT WAT WAT WAT WAT WAT WAT WAT WAT WAT WAT WAT WAT WAT 
WAT WAT WAT WAT WAT WAT WAT WAT WAT WAT WAT WAT WAT WAT WAT WAT WAT WAT WAT WAT 
WAT WAT WAT WAT WAT WAT WAT WAT WAT WAT WAT WAT WAT WAT WAT WAT WAT WAT WAT WAT 
WAT WAT WAT WAT WAT WAT WAT WAT WAT WAT WAT WAT WAT WAT WAT WAT WAT WAT WAT WAT 
WAT WAT WAT WAT WAT WAT WAT WAT WAT WAT WAT WAT WAT WAT WAT WAT WAT WAT WAT WAT 
WAT WAT WAT WAT WAT WAT WAT WAT WAT WAT WAT WAT WAT WAT WAT WAT WAT WAT WAT WAT 
WAT WAT WAT WAT WAT WAT WAT WAT WAT WAT WAT WAT WAT WAT WAT WAT WAT WAT WAT WAT 
WAT WAT WAT WAT WAT WAT WAT WAT WAT WAT WAT WAT WAT WAT WAT WAT WAT WAT WAT WAT 
WAT WAT WAT WAT WAT WAT WAT WAT WAT WAT WAT WAT WAT WAT WAT WAT WAT WAT WAT WAT 
WAT WAT WAT WAT WAT WAT WAT WAT WAT WAT WAT WAT WAT WAT WAT WAT WAT WAT WAT WAT 
WAT WAT WAT WAT WAT WAT WAT WAT WAT WAT WAT WAT WAT WAT WAT WAT WAT WAT WAT WAT 
WAT WAT WAT WAT WAT WAT WAT WAT WAT WAT WAT WAT WAT WAT WAT WAT WAT WAT WAT WAT 
WAT WAT WAT WAT WAT WAT WAT WAT WAT WAT WAT WAT WAT WAT WAT WAT WAT WAT WAT WAT 
WAT WAT WAT WAT WAT WAT WAT WAT WAT WAT WAT WAT WAT WAT WAT WAT WAT WAT WAT WAT 
WAT WAT WAT WAT WAT WAT WAT WAT WAT WAT WAT WAT WAT WAT WAT WAT WAT WAT WAT WAT 
WAT WAT WAT WAT WAT WAT WAT WAT WAT WAT WAT WAT WAT WAT WAT WAT WAT WAT WAT WAT 
WAT WAT WAT WAT WAT WAT WAT WAT WAT WAT WAT WAT WAT WAT WAT WAT WAT WAT WAT WAT 
WAT WAT WAT WAT WAT WAT WAT WAT WAT WAT WAT WAT WAT WAT WAT WAT WAT WAT WAT WAT 
WAT WAT WAT WAT WAT WAT WAT WAT WAT WAT WAT WAT WAT WAT WAT WAT WAT WAT WAT WAT 
WAT WAT WAT WAT WAT WAT WAT WAT WAT WAT WAT WAT WAT WAT WAT WAT WAT WAT WAT WAT 
WAT WAT WAT WAT WAT WAT WAT WAT WAT WAT WAT WAT WAT WAT WAT WAT WAT WAT WAT WAT 
WAT WAT WAT WAT WAT WAT WAT WAT WAT WAT WAT WAT WAT WAT WAT WAT WAT WAT WAT WAT 
WAT WAT WAT WAT WAT WAT WAT WAT WAT WAT WAT WAT WAT WAT WAT WAT WAT WAT WAT WAT 
WAT WAT WAT WAT WAT WAT WAT WAT WAT WAT WAT WAT WAT WAT WAT WAT WAT WAT WAT WAT 
WAT WAT WAT WAT WAT WAT WAT WAT WAT WAT WAT WAT WAT WAT WAT WAT WAT WAT WAT WAT 
WAT WAT WAT WAT WAT WAT WAT WAT WAT WAT WAT WAT WAT WAT WAT WAT WAT WAT WAT WAT 
WAT WAT WAT WAT WAT WAT WAT WAT WAT WAT WAT WAT WAT WAT WAT WAT WAT WAT WAT WAT 
WAT WAT WAT WAT WAT WAT WAT WAT WAT WAT WAT WAT WAT WAT WAT WAT WAT WAT WAT WAT 
WAT WAT WAT WAT WAT WAT WAT WAT WAT WAT WAT WAT WAT WAT WAT WAT WAT WAT WAT WAT 
WAT WAT WAT WAT WAT WAT WAT WAT WAT WAT WAT WAT WAT WAT WAT WAT WAT WAT WAT WAT 
WAT WAT WAT WAT WAT WAT WAT WAT WAT WAT WAT WAT WAT WAT WAT WAT WAT WAT WAT WAT 
WAT WAT WAT WAT WAT WAT WAT WAT WAT WAT WAT WAT WAT WAT WAT WAT WAT WAT WAT WAT 
WAT WAT WAT WAT WAT WAT WAT WAT WAT WAT WAT WAT WAT WAT WAT WAT WAT WAT WAT WAT 
WAT WAT WAT WAT WAT WAT WAT WAT WAT WAT WAT WAT WAT WAT WAT WAT WAT WAT WAT WAT 
WAT WAT WAT WAT WAT WAT WAT WAT WAT WAT WAT WAT WAT WAT WAT WAT WAT WAT WAT WAT 
WAT WAT WAT WAT WAT WAT WAT WAT WAT WAT WAT WAT WAT WAT WAT WAT WAT WAT WAT WAT 
WAT WAT WAT WAT WAT WAT WAT WAT WAT WAT WAT WAT WAT WAT WAT WAT WAT WAT WAT WAT 
WAT WAT WAT WAT WAT WAT WAT WAT WAT WAT WAT WAT WAT WAT WAT WAT WAT WAT WAT WAT 
WAT WAT WAT WAT WAT WAT WAT WAT WAT WAT WAT WAT WAT WAT WAT WAT WAT WAT WAT WAT 
WAT WAT WAT WAT WAT WAT WAT WAT WAT WAT WAT WAT WAT WAT WAT WAT WAT WAT WAT WAT 
WAT WAT WAT WAT WAT WAT WAT WAT WAT WAT WAT WAT WAT WAT WAT WAT WAT WAT WAT WAT 
WAT WAT WAT WAT WAT WAT WAT WAT WAT WAT WAT WAT WAT WAT WAT WAT WAT WAT WAT WAT 
WAT WAT WAT WAT WAT WAT WAT WAT WAT WAT WAT WAT WAT WAT WAT WAT WAT WAT WAT WAT 
WAT WAT WAT WAT WAT WAT WAT WAT WAT WAT WAT WAT WAT WAT WAT WAT WAT WAT WAT WAT 
WAT WAT WAT WAT WAT WAT WAT WAT WAT WAT WAT WAT WAT WAT WAT WAT WAT WAT WAT WAT 
WAT WAT WAT WAT WAT WAT WAT WAT WAT WAT WAT WAT WAT WAT WAT WAT WAT WAT WAT WAT 
WAT WAT WAT WAT WAT WAT WAT WAT WAT WAT WAT WAT WAT WAT WAT WAT WAT WAT WAT WAT 
WAT WAT WAT WAT WAT WAT WAT WAT WAT WAT WAT WAT WAT WAT WAT WAT WAT WAT WAT WAT 
WAT WAT WAT WAT WAT WAT WAT WAT WAT WAT WAT WAT WAT WAT WAT WAT WAT WAT WAT WAT 
WAT WAT WAT WAT WAT WAT WAT WAT WAT WAT WAT WAT WAT WAT WAT WAT WAT WAT WAT WAT 
WAT WAT WAT WAT WAT WAT WAT WAT WAT WAT WAT WAT WAT WAT WAT WAT WAT WAT WAT WAT 
WAT WAT WAT WAT WAT WAT WAT WAT WAT WAT WAT WAT WAT WAT WAT WAT WAT WAT WAT WAT 
WAT WAT WAT WAT WAT WAT WAT WAT WAT WAT WAT WAT WAT WAT WAT WAT WAT WAT WAT WAT 
WAT WAT WAT WAT WAT WAT WAT WAT WAT WAT WAT WAT WAT WAT WAT WAT WAT WAT WAT WAT 
WAT WAT WAT WAT WAT WAT WAT WAT WAT WAT WAT WAT WAT WAT WAT WAT WAT WAT WAT WAT 
WAT WAT WAT WAT WAT WAT WAT WAT WAT WAT WAT WAT WAT WAT WAT WAT WAT WAT WAT WAT 
WAT WAT WAT WAT WAT WAT WAT WAT WAT WAT WAT WAT WAT WAT WAT WAT WAT WAT WAT WAT 
WAT WAT WAT WAT WAT WAT WAT WAT WAT WAT WAT WAT WAT WAT WAT WAT WAT WAT WAT WAT 
WAT WAT WAT WAT WAT WAT WAT WAT WAT WAT WAT WAT WAT WAT WAT WAT WAT WAT WAT WAT 
WAT WAT WAT WAT WAT WAT WAT WAT WAT WAT WAT WAT WAT WAT WAT WAT WAT WAT WAT WAT 
WAT WAT WAT WAT WAT WAT WAT WAT WAT WAT WAT WAT WAT WAT WAT WAT WAT WAT WAT WAT 
WAT WAT WAT WAT WAT WAT WAT WAT WAT WAT WAT WAT WAT WAT WAT WAT WAT WAT WAT WAT 
WAT WAT WAT WAT WAT WAT WAT WAT WAT WAT WAT WAT WAT WAT WAT WAT WAT WAT WAT WAT 
WAT WAT WAT WAT WAT WAT WAT WAT WAT WAT WAT WAT WAT WAT WAT WAT WAT WAT WAT WAT 
WAT WAT WAT WAT WAT WAT WAT WAT WAT WAT WAT WAT WAT WAT WAT WAT WAT WAT WAT WAT 
WAT WAT WAT WAT WAT WAT WAT WAT WAT WAT WAT WAT WAT WAT WAT WAT WAT WAT WAT WAT 
WAT WAT WAT WAT WAT WAT WAT WAT WAT WAT WAT WAT WAT WAT WAT WAT WAT WAT WAT WAT 
WAT WAT WAT WAT WAT WAT WAT WAT WAT WAT WAT WAT WAT WAT WAT WAT WAT WAT WAT WAT 
WAT WAT WAT WAT WAT WAT WAT WAT WAT WAT WAT WAT WAT WAT WAT WAT WAT WAT WAT WAT 
WAT WAT WAT WAT WAT WAT WAT WAT WAT WAT WAT WAT WAT WAT WAT WAT WAT WAT WAT WAT 
WAT WAT WAT WAT WAT WAT WAT WAT WAT WAT WAT WAT WAT WAT WAT WAT WAT WAT WAT WAT 
WAT WAT WAT WAT WAT WAT WAT WAT WAT WAT WAT WAT WAT WAT WAT WAT WAT WAT WAT WAT 
WAT WAT WAT WAT WAT WAT WAT WAT WAT WAT WAT WAT WAT WAT WAT WAT WAT WAT WAT WAT 
WAT WAT WAT WAT WAT WAT WAT WAT WAT WAT WAT WAT WAT WAT WAT WAT WAT WAT WAT WAT 
WAT WAT WAT WAT WAT WAT WAT WAT WAT WAT WAT WAT WAT WAT WAT WAT WAT WAT WAT WAT 
WAT WAT WAT WAT WAT WAT WAT WAT WAT WAT WAT WAT WAT WAT WAT WAT WAT WAT WAT WAT 
WAT WAT WAT WAT WAT WAT WAT WAT WAT WAT WAT WAT WAT WAT WAT WAT WAT WAT WAT WAT 
WAT WAT WAT WAT WAT WAT WAT WAT WAT WAT WAT WAT WAT WAT WAT WAT WAT WAT WAT WAT 
WAT WAT WAT WAT WAT WAT WAT WAT WAT WAT WAT WAT WAT WAT WAT WAT WAT WAT WAT WAT 
WAT WAT WAT WAT WAT WAT WAT WAT WAT WAT WAT WAT WAT WAT WAT WAT WAT WAT WAT WAT 
WAT WAT WAT WAT WAT WAT WAT WAT WAT WAT WAT WAT WAT WAT WAT WAT WAT WAT WAT WAT 
WAT WAT WAT WAT WAT WAT WAT WAT WAT WAT WAT WAT WAT WAT WAT WAT WAT WAT WAT WAT 
WAT WAT WAT WAT WAT WAT WAT WAT WAT WAT WAT WAT WAT WAT WAT WAT WAT WAT WAT WAT 
WAT WAT WAT WAT WAT WAT WAT WAT WAT WAT WAT WAT WAT WAT WAT WAT WAT WAT WAT WAT 
WAT WAT WAT WAT WAT WAT WAT WAT WAT WAT WAT WAT WAT WAT WAT WAT WAT WAT WAT WAT 
WAT WAT WAT WAT WAT WAT WAT WAT WAT WAT WAT WAT WAT WAT WAT WAT WAT WAT WAT WAT 
WAT WAT WAT WAT WAT WAT WAT WAT WAT WAT WAT WAT WAT WAT WAT WAT WAT WAT WAT WAT 
WAT WAT WAT WAT WAT WAT WAT WAT WAT WAT WAT WAT WAT WAT WAT WAT WAT WAT WAT WAT 
WAT WAT WAT WAT WAT WAT WAT WAT WAT WAT WAT WAT WAT WAT WAT WAT WAT WAT WAT WAT 
WAT WAT WAT WAT WAT WAT WAT WAT WAT WAT WAT WAT WAT WAT WAT WAT WAT WAT WAT WAT 
WAT WAT WAT WAT WAT WAT WAT WAT WAT WAT WAT WAT WAT WAT WAT WAT WAT WAT WAT WAT 
WAT WAT WAT WAT WAT WAT WAT WAT WAT WAT WAT WAT WAT WAT WAT WAT WAT WAT WAT WAT 
WAT WAT WAT WAT WAT WAT WAT WAT WAT WAT WAT WAT WAT WAT WAT WAT WAT WAT WAT WAT 
WAT WAT WAT WAT WAT WAT WAT WAT WAT WAT WAT WAT WAT WAT WAT WAT WAT WAT WAT WAT 
WAT WAT WAT WAT WAT WAT WAT WAT WAT WAT WAT WAT WAT WAT WAT WAT WAT WAT WAT WAT 
WAT WAT WAT WAT WAT WAT WAT WAT WAT WAT WAT WAT WAT WAT WAT WAT WAT WAT WAT WAT 
WAT WAT WAT WAT WAT WAT WAT WAT WAT WAT WAT WAT WAT WAT WAT WAT WAT WAT WAT WAT 
WAT WAT WAT WAT WAT WAT WAT WAT WAT WAT WAT WAT WAT WAT WAT WAT WAT WAT WAT WAT 
WAT WAT WAT WAT WAT WAT WAT WAT WAT WAT WAT WAT WAT WAT WAT WAT WAT WAT WAT WAT 
WAT WAT WAT WAT WAT WAT WAT WAT WAT WAT WAT WAT WAT WAT WAT WAT WAT WAT WAT WAT 
WAT WAT WAT WAT WAT WAT WAT WAT WAT WAT WAT WAT WAT WAT WAT WAT WAT WAT WAT WAT 
WAT WAT WAT WAT WAT WAT WAT WAT WAT WAT WAT WAT WAT WAT WAT WAT WAT WAT WAT WAT 
WAT WAT WAT WAT WAT WAT WAT WAT WAT WAT WAT WAT WAT WAT WAT WAT WAT WAT WAT WAT 
WAT WAT WAT WAT WAT WAT WAT WAT WAT WAT WAT WAT WAT WAT WAT WAT WAT WAT WAT WAT 
WAT WAT WAT WAT WAT WAT WAT WAT WAT WAT WAT WAT WAT WAT WAT WAT WAT WAT WAT WAT 
WAT WAT WAT WAT WAT WAT WAT WAT WAT WAT WAT WAT WAT WAT WAT WAT WAT WAT WAT WAT 
WAT WAT WAT WAT WAT WAT WAT WAT WAT WAT WAT WAT WAT WAT WAT WAT WAT WAT WAT WAT 
WAT WAT WAT WAT WAT WAT WAT WAT WAT WAT WAT WAT WAT WAT WAT WAT WAT WAT WAT WAT 
WAT WAT WAT WAT WAT WAT WAT WAT WAT WAT WAT WAT WAT WAT WAT WAT WAT WAT WAT WAT 
WAT WAT WAT WAT WAT WAT WAT WAT WAT WAT WAT WAT WAT WAT WAT WAT WAT WAT WAT WAT 
WAT WAT WAT WAT WAT WAT WAT WAT WAT WAT WAT WAT WAT WAT WAT WAT WAT WAT WAT WAT 
WAT WAT WAT WAT WAT WAT WAT WAT WAT WAT WAT WAT WAT WAT WAT WAT WAT WAT WAT WAT 
WAT WAT WAT WAT WAT WAT WAT WAT WAT WAT WAT WAT WAT WAT WAT WAT WAT WAT WAT WAT 
WAT WAT WAT WAT WAT WAT WAT WAT WAT WAT WAT WAT WAT WAT WAT WAT WAT WAT WAT WAT 
WAT WAT WAT WAT WAT WAT WAT WAT WAT WAT WAT WAT WAT WAT WAT WAT WAT WAT WAT WAT 
WAT WAT WAT WAT WAT WAT WAT WAT WAT WAT WAT WAT WAT WAT WAT WAT WAT WAT WAT WAT 
WAT WAT WAT WAT WAT WAT WAT WAT WAT WAT WAT WAT WAT WAT WAT WAT WAT WAT WAT WAT 
WAT WAT WAT WAT WAT WAT WAT WAT WAT WAT WAT WAT WAT WAT WAT WAT WAT WAT WAT WAT 
WAT WAT WAT WAT WAT WAT WAT WAT WAT WAT WAT WAT WAT WAT WAT WAT WAT WAT WAT WAT 
WAT WAT WAT WAT WAT WAT WAT WAT WAT WAT WAT WAT WAT WAT WAT WAT WAT WAT WAT WAT 
WAT WAT WAT WAT WAT WAT WAT WAT WAT WAT WAT WAT WAT WAT WAT WAT WAT WAT WAT WAT 
WAT WAT WAT WAT WAT WAT WAT WAT WAT WAT WAT WAT WAT WAT WAT WAT WAT WAT WAT WAT 
WAT WAT WAT WAT WAT WAT WAT WAT WAT WAT WAT WAT WAT WAT WAT WAT WAT WAT WAT WAT 
WAT WAT WAT WAT WAT WAT WAT WAT WAT WAT WAT WAT WAT WAT WAT WAT WAT WAT WAT WAT 
WAT WAT WAT WAT WAT WAT WAT WAT WAT WAT WAT WAT WAT WAT WAT WAT WAT WAT WAT WAT 
WAT WAT WAT WAT WAT WAT WAT WAT WAT WAT WAT WAT WAT WAT WAT WAT WAT WAT WAT WAT 
WAT WAT WAT WAT WAT WAT WAT WAT WAT WAT WAT WAT WAT WAT WAT WAT WAT WAT WAT WAT 
WAT WAT WAT WAT WAT WAT WAT WAT WAT WAT WAT WAT WAT WAT WAT WAT WAT WAT WAT WAT 
WAT WAT WAT WAT WAT WAT WAT WAT WAT WAT WAT WAT WAT WAT WAT WAT WAT WAT WAT WAT 
WAT WAT WAT WAT WAT WAT WAT WAT WAT WAT WAT WAT WAT WAT WAT WAT WAT WAT WAT WAT 
WAT WAT WAT WAT WAT WAT WAT WAT WAT WAT WAT WAT WAT WAT WAT WAT WAT WAT WAT WAT 
WAT WAT WAT WAT WAT WAT WAT WAT WAT WAT WAT WAT WAT WAT WAT WAT WAT WAT WAT WAT 
WAT WAT WAT WAT WAT WAT WAT WAT WAT WAT WAT WAT WAT WAT WAT WAT WAT WAT WAT WAT 
WAT WAT WAT WAT WAT WAT WAT WAT WAT WAT WAT WAT WAT WAT WAT WAT WAT WAT WAT WAT 
WAT WAT WAT WAT WAT WAT WAT WAT WAT WAT WAT WAT WAT WAT WAT WAT WAT WAT WAT WAT 
WAT WAT WAT WAT WAT WAT WAT WAT WAT WAT WAT WAT WAT WAT WAT WAT WAT WAT WAT WAT 
WAT WAT WAT WAT WAT WAT WAT WAT WAT WAT WAT WAT WAT WAT WAT WAT WAT WAT WAT WAT 
WAT WAT WAT WAT WAT WAT WAT WAT WAT WAT WAT WAT WAT WAT WAT WAT WAT WAT WAT WAT 
WAT WAT WAT WAT WAT WAT WAT WAT WAT WAT WAT WAT WAT WAT WAT WAT WAT WAT WAT WAT 
WAT WAT WAT WAT WAT WAT WAT WAT WAT WAT WAT WAT WAT WAT WAT WAT WAT WAT WAT WAT 
WAT WAT WAT WAT WAT WAT WAT WAT WAT WAT WAT WAT WAT WAT WAT WAT WAT WAT WAT WAT 
WAT WAT WAT WAT WAT WAT WAT WAT WAT WAT WAT WAT WAT WAT WAT WAT WAT WAT WAT WAT 
WAT WAT WAT WAT WAT WAT WAT WAT WAT WAT WAT WAT WAT WAT WAT WAT WAT WAT WAT WAT 
WAT WAT WAT WAT WAT WAT WAT WAT WAT WAT WAT WAT WAT WAT WAT WAT WAT WAT WAT WAT 
WAT WAT WAT WAT WAT WAT WAT WAT WAT WAT WAT WAT WAT WAT WAT WAT WAT WAT WAT WAT 
WAT WAT WAT WAT WAT WAT WAT WAT WAT WAT WAT WAT WAT WAT WAT WAT WAT WAT WAT WAT 
WAT WAT WAT WAT WAT WAT WAT WAT WAT WAT WAT WAT WAT WAT WAT WAT WAT WAT WAT WAT 
WAT WAT WAT WAT WAT WAT WAT WAT WAT WAT WAT WAT WAT WAT WAT WAT WAT WAT WAT WAT 
WAT WAT WAT WAT WAT WAT WAT WAT WAT WAT WAT WAT WAT WAT WAT WAT WAT WAT WAT WAT 
WAT WAT WAT WAT WAT WAT WAT WAT WAT WAT WAT WAT WAT WAT WAT WAT WAT WAT WAT WAT 
WAT WAT WAT WAT WAT WAT WAT WAT WAT WAT WAT WAT WAT WAT WAT WAT WAT WAT WAT WAT 
WAT WAT WAT WAT WAT WAT WAT WAT WAT WAT WAT WAT WAT WAT WAT WAT WAT WAT WAT WAT 
WAT WAT WAT WAT WAT WAT WAT WAT WAT WAT WAT WAT WAT WAT WAT WAT WAT WAT WAT WAT 
WAT WAT WAT WAT WAT WAT WAT WAT WAT WAT WAT WAT WAT WAT WAT WAT WAT WAT WAT WAT 
WAT WAT WAT WAT WAT WAT WAT WAT WAT WAT WAT WAT WAT WAT WAT WAT WAT WAT WAT WAT 
WAT WAT WAT WAT WAT WAT WAT WAT WAT WAT WAT WAT WAT WAT WAT WAT WAT WAT WAT WAT 
WAT WAT WAT WAT WAT WAT WAT WAT WAT WAT WAT WAT WAT WAT WAT WAT WAT WAT WAT WAT 
WAT WAT WAT WAT WAT WAT WAT WAT WAT WAT WAT WAT WAT WAT WAT WAT WAT WAT WAT WAT 
WAT WAT WAT WAT WAT WAT WAT WAT WAT WAT WAT WAT WAT WAT WAT WAT WAT WAT WAT WAT 
WAT WAT WAT WAT WAT WAT WAT WAT WAT WAT WAT WAT WAT WAT WAT WAT WAT WAT WAT WAT 
WAT WAT WAT WAT WAT WAT WAT WAT WAT WAT WAT WAT WAT WAT WAT WAT WAT WAT WAT WAT 
WAT WAT WAT WAT WAT WAT WAT WAT WAT WAT WAT WAT WAT WAT WAT WAT WAT WAT WAT WAT 
WAT WAT WAT WAT WAT WAT WAT WAT WAT WAT WAT WAT WAT WAT WAT WAT WAT WAT WAT WAT 
WAT WAT WAT WAT WAT WAT WAT WAT WAT WAT WAT WAT WAT WAT WAT WAT WAT WAT WAT WAT 
WAT WAT WAT WAT WAT WAT WAT WAT WAT WAT WAT WAT WAT WAT WAT WAT WAT WAT WAT WAT 
WAT WAT WAT WAT WAT WAT WAT WAT WAT WAT WAT WAT WAT WAT WAT WAT WAT WAT WAT WAT 
WAT WAT WAT WAT WAT WAT WAT WAT WAT WAT WAT WAT WAT WAT WAT WAT WAT WAT WAT WAT 
WAT WAT WAT WAT WAT WAT WAT WAT WAT WAT WAT WAT WAT WAT WAT WAT WAT WAT WAT WAT 
WAT WAT WAT WAT WAT WAT WAT WAT WAT WAT WAT WAT WAT WAT WAT WAT WAT WAT WAT WAT 
WAT WAT WAT WAT WAT WAT WAT WAT WAT WAT WAT WAT WAT WAT WAT WAT WAT WAT WAT WAT 
WAT WAT WAT WAT WAT WAT WAT WAT WAT WAT WAT WAT WAT WAT WAT WAT WAT WAT WAT WAT 
WAT WAT WAT WAT WAT WAT WAT WAT WAT WAT WAT WAT WAT WAT WAT WAT WAT WAT WAT WAT 
WAT WAT WAT WAT WAT WAT WAT WAT WAT WAT WAT WAT WAT WAT WAT WAT WAT WAT WAT WAT 
WAT WAT WAT WAT WAT WAT WAT WAT WAT WAT WAT WAT WAT WAT WAT WAT WAT WAT WAT WAT 
WAT WAT WAT WAT WAT WAT WAT WAT WAT WAT WAT WAT WAT WAT WAT WAT WAT WAT WAT WAT 
WAT WAT WAT WAT WAT WAT WAT WAT WAT WAT WAT WAT WAT WAT WAT WAT WAT WAT WAT WAT 
WAT WAT WAT WAT WAT WAT WAT WAT WAT WAT WAT WAT WAT WAT WAT WAT WAT WAT WAT WAT 
WAT WAT WAT WAT WAT WAT WAT WAT WAT WAT WAT WAT WAT WAT WAT WAT WAT WAT WAT WAT 
WAT WAT WAT WAT WAT WAT WAT WAT WAT WAT WAT WAT WAT WAT WAT WAT WAT WAT WAT WAT 
WAT WAT WAT WAT WAT WAT WAT WAT WAT WAT WAT WAT WAT WAT WAT WAT WAT WAT WAT WAT 
WAT WAT WAT WAT WAT WAT WAT WAT WAT WAT WAT WAT WAT WAT WAT WAT WAT WAT WAT WAT 
WAT WAT WAT WAT WAT WAT WAT WAT WAT WAT WAT WAT WAT WAT WAT WAT WAT WAT WAT WAT 
WAT WAT WAT WAT WAT WAT WAT WAT WAT WAT WAT WAT WAT WAT WAT WAT WAT WAT WAT WAT 
WAT WAT WAT WAT WAT WAT WAT WAT WAT WAT WAT WAT WAT WAT WAT WAT WAT WAT WAT WAT 
WAT WAT WAT WAT WAT WAT WAT WAT WAT WAT WAT WAT WAT WAT WAT WAT WAT WAT WAT WAT 
WAT WAT WAT WAT WAT WAT WAT WAT WAT WAT WAT WAT WAT WAT WAT WAT WAT WAT WAT WAT 
WAT WAT WAT WAT WAT WAT WAT WAT WAT WAT WAT WAT WAT WAT WAT WAT WAT WAT WAT WAT 
WAT WAT WAT WAT WAT WAT WAT WAT WAT WAT WAT WAT WAT WAT WAT WAT WAT WAT WAT WAT 
WAT WAT WAT WAT WAT WAT WAT WAT WAT WAT WAT WAT WAT WAT WAT WAT WAT WAT WAT WAT 
WAT WAT WAT WAT WAT WAT WAT WAT WAT WAT WAT WAT WAT WAT WAT WAT WAT WAT WAT WAT 
WAT WAT WAT WAT WAT WAT WAT WAT WAT WAT WAT WAT WAT WAT WAT WAT WAT WAT WAT WAT 
WAT WAT WAT WAT WAT WAT WAT WAT WAT WAT WAT WAT WAT WAT WAT WAT WAT WAT WAT WAT 
WAT WAT WAT WAT WAT WAT WAT WAT WAT WAT WAT WAT WAT WAT WAT WAT WAT WAT WAT WAT 
WAT WAT WAT WAT WAT WAT WAT WAT WAT WAT WAT WAT WAT WAT WAT WAT WAT WAT WAT WAT 
WAT WAT WAT WAT WAT WAT WAT WAT WAT WAT WAT WAT WAT WAT WAT WAT WAT WAT WAT WAT 
WAT WAT WAT WAT WAT WAT WAT WAT WAT WAT WAT WAT WAT WAT WAT WAT WAT WAT WAT WAT 
WAT WAT WAT WAT WAT WAT WAT WAT WAT WAT WAT WAT WAT WAT WAT WAT WAT WAT WAT WAT 
WAT WAT WAT WAT WAT WAT WAT WAT WAT WAT WAT WAT WAT WAT WAT WAT WAT WAT WAT WAT 
WAT WAT WAT WAT WAT WAT WAT WAT WAT WAT WAT WAT WAT WAT WAT WAT WAT WAT WAT WAT 
WAT WAT WAT WAT WAT WAT WAT WAT WAT WAT WAT WAT WAT WAT WAT WAT WAT WAT WAT WAT 
WAT WAT WAT WAT WAT WAT WAT WAT WAT WAT WAT WAT WAT WAT WAT WAT WAT WAT WAT WAT 
WAT WAT WAT WAT WAT WAT WAT WAT WAT WAT WAT WAT WAT WAT WAT WAT WAT WAT WAT WAT 
WAT WAT WAT WAT WAT WAT WAT WAT WAT WAT WAT WAT WAT WAT WAT WAT WAT WAT WAT WAT 
WAT WAT WAT WAT WAT WAT WAT WAT WAT WAT WAT WAT WAT WAT WAT WAT WAT WAT WAT WAT 
WAT WAT WAT WAT WAT WAT WAT WAT WAT WAT WAT WAT WAT WAT WAT WAT WAT WAT WAT WAT 
WAT WAT WAT WAT WAT WAT WAT WAT WAT WAT WAT WAT WAT WAT WAT WAT WAT WAT WAT WAT 
WAT WAT WAT WAT WAT WAT WAT WAT WAT WAT WAT WAT WAT WAT WAT WAT WAT WAT WAT WAT 
WAT WAT WAT WAT WAT WAT WAT WAT WAT WAT WAT WAT WAT WAT WAT WAT WAT WAT WAT WAT 
WAT WAT WAT WAT WAT WAT WAT WAT WAT WAT WAT WAT WAT WAT WAT WAT WAT WAT WAT WAT 
WAT WAT WAT WAT WAT WAT WAT WAT WAT WAT WAT WAT WAT WAT WAT WAT WAT WAT WAT WAT 
WAT WAT WAT WAT WAT WAT WAT WAT WAT WAT WAT WAT WAT WAT WAT WAT WAT WAT WAT WAT 
WAT WAT WAT WAT WAT WAT WAT WAT WAT WAT WAT WAT WAT WAT WAT WAT WAT WAT WAT WAT 
WAT WAT WAT WAT WAT WAT WAT WAT WAT WAT WAT WAT WAT WAT WAT WAT WAT WAT WAT WAT 
WAT WAT WAT WAT WAT WAT WAT WAT WAT WAT WAT WAT WAT WAT WAT WAT WAT WAT WAT WAT 
WAT WAT WAT WAT WAT WAT WAT WAT WAT WAT WAT WAT WAT WAT WAT WAT WAT WAT WAT WAT 
WAT WAT WAT WAT WAT WAT WAT WAT WAT WAT WAT WAT WAT WAT WAT WAT WAT WAT WAT WAT 
WAT WAT WAT WAT WAT WAT WAT WAT WAT WAT WAT WAT WAT WAT WAT WAT WAT WAT WAT WAT 
WAT WAT WAT WAT WAT WAT WAT WAT WAT WAT WAT WAT WAT WAT WAT WAT WAT WAT WAT WAT 
WAT WAT WAT WAT WAT WAT WAT WAT WAT WAT WAT WAT WAT WAT WAT WAT WAT WAT WAT WAT 
WAT WAT WAT WAT WAT WAT WAT WAT WAT WAT WAT WAT WAT WAT WAT WAT WAT WAT WAT WAT 
WAT WAT WAT WAT WAT WAT WAT WAT WAT WAT WAT WAT WAT WAT WAT WAT WAT WAT WAT WAT 
WAT WAT WAT WAT WAT WAT WAT WAT WAT WAT WAT WAT WAT WAT WAT WAT WAT WAT WAT WAT 
WAT WAT WAT WAT WAT WAT WAT WAT WAT WAT WAT WAT WAT WAT WAT WAT WAT WAT WAT WAT 
WAT WAT WAT WAT WAT WAT WAT WAT WAT WAT WAT WAT WAT WAT WAT WAT WAT WAT WAT WAT 
WAT WAT WAT WAT WAT WAT WAT WAT WAT WAT WAT WAT WAT WAT WAT WAT WAT WAT WAT WAT 
WAT WAT WAT WAT WAT WAT WAT WAT WAT WAT WAT WAT WAT WAT WAT WAT WAT WAT WAT WAT 
WAT WAT WAT WAT WAT WAT WAT WAT WAT WAT WAT WAT WAT WAT WAT WAT WAT WAT WAT WAT 
WAT WAT WAT WAT WAT WAT WAT WAT WAT WAT WAT WAT WAT WAT WAT WAT WAT WAT WAT WAT 
WAT WAT WAT WAT WAT WAT WAT WAT WAT WAT WAT WAT WAT WAT WAT WAT WAT WAT WAT WAT 
WAT WAT WAT WAT WAT WAT WAT WAT WAT WAT WAT WAT WAT WAT WAT WAT WAT WAT WAT WAT 
WAT WAT WAT WAT WAT WAT WAT WAT WAT WAT WAT WAT WAT WAT WAT WAT WAT WAT WAT WAT 
WAT WAT WAT WAT WAT WAT WAT WAT WAT WAT WAT WAT WAT WAT WAT WAT WAT WAT WAT WAT 
WAT WAT WAT WAT WAT WAT WAT WAT WAT WAT WAT WAT WAT WAT WAT WAT WAT WAT WAT WAT 
WAT WAT WAT WAT WAT WAT WAT WAT WAT WAT WAT WAT WAT WAT WAT WAT WAT WAT WAT WAT 
WAT WAT WAT WAT WAT WAT WAT WAT WAT WAT WAT WAT WAT WAT WAT WAT WAT WAT WAT WAT 
WAT WAT WAT WAT WAT WAT WAT WAT WAT WAT WAT WAT WAT WAT WAT WAT WAT WAT WAT WAT 
WAT WAT WAT WAT WAT WAT WAT WAT WAT WAT WAT WAT WAT WAT WAT WAT WAT WAT WAT WAT 
WAT WAT WAT WAT WAT WAT WAT WAT WAT WAT WAT WAT WAT WAT WAT WAT WAT WAT WAT WAT 
WAT WAT WAT WAT WAT WAT WAT WAT WAT WAT WAT WAT WAT WAT WAT WAT WAT WAT WAT WAT 
WAT WAT WAT WAT WAT WAT WAT WAT WAT WAT WAT WAT WAT WAT WAT WAT WAT WAT WAT WAT 
WAT WAT WAT WAT WAT WAT WAT WAT WAT WAT WAT WAT WAT WAT WAT WAT WAT WAT WAT WAT 
WAT WAT WAT WAT WAT WAT WAT WAT WAT WAT WAT WAT WAT WAT WAT WAT WAT WAT WAT WAT 
WAT WAT WAT WAT WAT WAT WAT WAT WAT WAT WAT WAT WAT WAT WAT WAT WAT WAT WAT WAT 
WAT WAT WAT WAT WAT WAT WAT WAT WAT WAT WAT WAT WAT WAT WAT WAT WAT WAT WAT WAT 
WAT WAT WAT WAT WAT WAT WAT WAT WAT WAT WAT WAT WAT WAT WAT WAT WAT WAT WAT WAT 
WAT WAT WAT WAT WAT WAT WAT WAT WAT WAT WAT WAT WAT WAT WAT WAT WAT WAT WAT WAT 
WAT WAT WAT WAT WAT WAT WAT WAT WAT WAT WAT WAT WAT WAT WAT WAT WAT WAT WAT WAT 
WAT WAT WAT WAT WAT WAT WAT WAT WAT WAT WAT WAT WAT WAT WAT WAT WAT WAT WAT WAT 
WAT WAT WAT WAT WAT WAT WAT WAT WAT WAT WAT WAT WAT WAT WAT WAT WAT WAT WAT WAT 
WAT WAT WAT WAT WAT WAT WAT WAT WAT WAT WAT WAT WAT WAT WAT WAT WAT WAT WAT WAT 
WAT WAT WAT WAT WAT WAT WAT WAT WAT WAT WAT WAT WAT WAT WAT WAT WAT WAT WAT WAT 
WAT WAT WAT WAT WAT WAT WAT WAT WAT WAT WAT WAT WAT WAT WAT WAT WAT WAT WAT WAT 
WAT WAT WAT WAT WAT WAT WAT WAT WAT WAT WAT WAT WAT WAT WAT WAT WAT WAT WAT WAT 
WAT WAT WAT WAT WAT WAT WAT WAT WAT WAT WAT WAT WAT WAT WAT WAT WAT WAT WAT WAT 
WAT WAT WAT WAT WAT WAT WAT WAT WAT WAT WAT WAT WAT WAT WAT WAT WAT WAT WAT WAT 
WAT WAT WAT WAT WAT WAT WAT WAT WAT WAT WAT WAT WAT WAT WAT WAT WAT WAT WAT WAT 
WAT WAT WAT WAT WAT WAT WAT WAT WAT WAT WAT WAT WAT WAT WAT WAT WAT WAT WAT WAT 
WAT WAT WAT WAT WAT WAT WAT WAT WAT WAT WAT WAT WAT WAT WAT WAT WAT WAT WAT WAT 
WAT WAT WAT WAT WAT WAT WAT WAT WAT WAT WAT WAT WAT WAT WAT WAT WAT WAT WAT WAT 
WAT WAT WAT WAT WAT WAT WAT WAT WAT WAT WAT WAT WAT WAT WAT WAT WAT WAT WAT WAT 
WAT WAT WAT WAT WAT WAT WAT WAT WAT WAT WAT WAT WAT WAT WAT WAT WAT WAT WAT WAT 
WAT WAT WAT WAT WAT WAT WAT WAT WAT WAT WAT WAT WAT WAT WAT WAT WAT WAT WAT WAT 
WAT WAT WAT WAT WAT WAT WAT WAT WAT WAT WAT WAT WAT WAT WAT WAT WAT WAT WAT WAT 
WAT WAT WAT WAT WAT WAT WAT WAT WAT WAT WAT WAT WAT WAT WAT WAT WAT WAT WAT WAT 
WAT WAT WAT WAT WAT WAT WAT WAT WAT WAT WAT WAT WAT WAT WAT WAT WAT WAT WAT WAT 
WAT WAT WAT WAT WAT WAT WAT WAT WAT WAT WAT WAT WAT WAT WAT WAT WAT WAT WAT WAT 
WAT WAT WAT WAT WAT WAT WAT WAT WAT WAT WAT WAT WAT WAT WAT WAT WAT WAT WAT WAT 
WAT WAT WAT WAT WAT WAT WAT WAT WAT WAT WAT WAT WAT WAT WAT WAT WAT WAT WAT WAT 
WAT WAT WAT WAT WAT WAT WAT WAT WAT WAT WAT WAT WAT WAT WAT WAT WAT WAT WAT WAT 
WAT WAT WAT WAT WAT WAT WAT WAT WAT WAT WAT WAT WAT WAT WAT WAT WAT WAT WAT WAT 
WAT WAT WAT WAT WAT WAT WAT WAT WAT WAT WAT WAT WAT WAT WAT WAT WAT WAT WAT WAT 
WAT WAT WAT WAT WAT WAT WAT WAT WAT WAT WAT WAT WAT WAT WAT WAT WAT WAT WAT WAT 
WAT WAT WAT WAT WAT WAT WAT WAT WAT WAT WAT WAT WAT WAT WAT WAT WAT WAT WAT WAT 
WAT WAT WAT WAT WAT WAT WAT WAT WAT WAT WAT WAT WAT WAT WAT WAT WAT WAT WAT WAT 
WAT WAT WAT WAT WAT WAT WAT WAT WAT WAT WAT WAT WAT WAT WAT WAT WAT WAT WAT WAT 
WAT WAT WAT WAT WAT WAT WAT WAT WAT WAT WAT WAT WAT WAT WAT WAT WAT WAT WAT WAT 
WAT WAT WAT WAT WAT WAT WAT WAT WAT WAT WAT WAT WAT WAT WAT WAT WAT WAT WAT WAT 
WAT WAT WAT WAT WAT WAT WAT WAT WAT WAT WAT WAT WAT WAT WAT WAT WAT WAT WAT WAT 
WAT WAT WAT WAT WAT WAT WAT WAT WAT WAT WAT WAT WAT WAT WAT WAT WAT WAT WAT WAT 
WAT WAT WAT WAT WAT WAT WAT WAT WAT WAT WAT WAT WAT WAT WAT WAT WAT WAT WAT WAT 
WAT WAT WAT WAT WAT WAT WAT WAT WAT WAT WAT WAT WAT WAT WAT WAT WAT WAT WAT WAT 
WAT WAT WAT WAT WAT WAT WAT WAT WAT WAT WAT WAT WAT WAT WAT WAT WAT WAT WAT WAT 
WAT WAT WAT WAT WAT WAT WAT WAT WAT WAT WAT WAT WAT WAT WAT WAT WAT WAT WAT WAT 
WAT WAT WAT WAT WAT WAT WAT WAT WAT WAT WAT WAT WAT WAT WAT WAT WAT WAT WAT WAT 
WAT WAT WAT WAT WAT WAT WAT WAT WAT WAT WAT WAT WAT WAT WAT WAT WAT WAT WAT WAT 
WAT WAT WAT WAT WAT WAT WAT WAT WAT WAT WAT WAT WAT WAT WAT WAT WAT WAT WAT WAT 
WAT WAT WAT WAT WAT WAT WAT WAT WAT WAT WAT WAT WAT WAT WAT WAT WAT WAT WAT WAT 
WAT WAT WAT WAT WAT WAT WAT WAT WAT WAT WAT WAT WAT WAT WAT WAT WAT WAT WAT WAT 
WAT WAT WAT WAT WAT WAT WAT WAT WAT WAT WAT WAT WAT WAT WAT WAT WAT WAT WAT WAT 
WAT WAT WAT WAT WAT WAT WAT WAT WAT WAT WAT WAT WAT WAT WAT WAT WAT WAT WAT WAT 
WAT WAT WAT WAT WAT WAT WAT WAT WAT WAT WAT WAT WAT WAT WAT WAT WAT WAT WAT WAT 
WAT WAT WAT WAT WAT WAT WAT WAT WAT WAT WAT WAT WAT WAT WAT WAT WAT WAT WAT WAT 
WAT WAT WAT WAT WAT WAT WAT WAT WAT WAT WAT WAT WAT WAT WAT WAT WAT WAT WAT WAT 
WAT WAT WAT WAT WAT WAT WAT WAT WAT WAT WAT WAT WAT WAT WAT WAT WAT WAT WAT WAT 
WAT WAT WAT WAT WAT WAT WAT WAT WAT WAT WAT WAT WAT WAT WAT WAT WAT WAT WAT WAT 
WAT WAT WAT WAT WAT WAT WAT WAT WAT WAT WAT WAT WAT WAT WAT WAT WAT WAT WAT WAT 
WAT WAT WAT WAT WAT WAT WAT WAT WAT WAT WAT WAT WAT WAT WAT WAT WAT WAT WAT WAT 
WAT WAT WAT WAT WAT WAT WAT WAT WAT WAT WAT WAT WAT WAT WAT WAT WAT WAT WAT WAT 
WAT WAT WAT WAT WAT WAT WAT WAT WAT WAT WAT WAT WAT WAT WAT WAT WAT WAT WAT WAT 
WAT WAT WAT WAT WAT WAT WAT WAT WAT WAT WAT WAT WAT WAT WAT WAT WAT WAT WAT WAT 
WAT WAT WAT WAT WAT WAT WAT WAT WAT WAT WAT WAT WAT WAT WAT WAT WAT WAT WAT WAT 
WAT WAT WAT WAT WAT WAT WAT WAT WAT WAT WAT WAT WAT WAT WAT WAT WAT WAT WAT WAT 
WAT WAT WAT WAT WAT WAT WAT WAT WAT WAT WAT WAT WAT WAT WAT WAT WAT WAT WAT WAT 
WAT WAT WAT WAT WAT WAT WAT WAT WAT WAT WAT WAT WAT WAT WAT WAT WAT WAT WAT WAT 
WAT WAT WAT WAT WAT WAT WAT WAT WAT WAT WAT WAT WAT WAT WAT WAT WAT WAT WAT WAT 
WAT WAT WAT WAT WAT WAT WAT WAT WAT WAT WAT WAT WAT WAT WAT WAT WAT WAT WAT WAT 
WAT WAT WAT WAT WAT WAT WAT WAT WAT WAT WAT WAT WAT WAT WAT WAT WAT WAT WAT WAT 
WAT WAT WAT WAT WAT WAT WAT WAT WAT WAT WAT WAT WAT WAT WAT WAT WAT WAT WAT WAT 
WAT WAT WAT WAT WAT WAT WAT WAT WAT WAT WAT WAT WAT WAT WAT WAT WAT WAT WAT WAT 
WAT WAT WAT WAT WAT WAT WAT WAT WAT WAT WAT WAT WAT WAT WAT WAT WAT WAT WAT WAT 
WAT WAT WAT WAT WAT WAT WAT WAT WAT WAT WAT WAT WAT WAT WAT WAT WAT WAT WAT WAT 
WAT WAT WAT WAT WAT WAT WAT WAT WAT WAT WAT WAT WAT WAT WAT WAT WAT WAT WAT WAT 
WAT WAT WAT WAT WAT WAT WAT WAT WAT WAT WAT WAT WAT WAT WAT WAT WAT WAT WAT WAT 
WAT WAT WAT WAT WAT WAT WAT WAT WAT WAT WAT WAT WAT WAT WAT WAT WAT WAT WAT WAT 
WAT WAT WAT WAT WAT WAT WAT WAT WAT WAT WAT WAT WAT WAT WAT WAT WAT WAT WAT WAT 
WAT WAT WAT WAT WAT WAT WAT WAT WAT WAT WAT WAT WAT WAT WAT WAT WAT WAT WAT WAT 
WAT WAT WAT WAT WAT WAT WAT WAT WAT WAT WAT WAT WAT WAT WAT WAT WAT WAT WAT WAT 
WAT WAT WAT WAT WAT WAT WAT WAT WAT WAT WAT WAT WAT WAT WAT WAT WAT WAT WAT WAT 
WAT WAT WAT WAT WAT WAT WAT WAT WAT WAT WAT WAT WAT WAT WAT WAT WAT WAT WAT WAT 
WAT WAT WAT WAT WAT WAT WAT WAT WAT WAT WAT WAT WAT WAT WAT WAT WAT WAT WAT WAT 
WAT WAT WAT WAT WAT WAT WAT WAT WAT WAT WAT WAT WAT WAT WAT WAT WAT WAT WAT WAT 
WAT WAT WAT WAT WAT WAT WAT WAT WAT WAT WAT WAT WAT WAT WAT WAT WAT WAT WAT WAT 
WAT WAT WAT WAT WAT WAT WAT WAT WAT WAT WAT WAT WAT WAT WAT WAT WAT WAT WAT WAT 
WAT WAT WAT WAT WAT WAT WAT WAT WAT WAT WAT WAT WAT WAT WAT WAT WAT WAT WAT WAT 
WAT WAT WAT WAT WAT WAT WAT WAT WAT WAT WAT WAT WAT WAT WAT WAT WAT WAT WAT WAT 
WAT WAT WAT WAT WAT WAT WAT WAT WAT WAT WAT WAT WAT WAT WAT WAT WAT WAT WAT WAT 
WAT WAT WAT WAT WAT WAT WAT WAT WAT WAT WAT WAT WAT WAT WAT WAT WAT WAT WAT WAT 
WAT WAT WAT WAT WAT WAT WAT WAT WAT WAT WAT WAT WAT WAT WAT WAT WAT WAT WAT WAT 
WAT WAT WAT WAT WAT WAT WAT WAT WAT WAT WAT WAT WAT WAT WAT WAT WAT WAT WAT WAT 
WAT WAT WAT WAT WAT WAT WAT WAT WAT WAT WAT WAT WAT WAT WAT WAT WAT WAT WAT WAT 
WAT WAT WAT WAT WAT WAT WAT WAT WAT WAT WAT WAT WAT WAT WAT WAT WAT WAT WAT WAT 
WAT WAT WAT WAT WAT WAT WAT WAT WAT WAT WAT WAT WAT WAT WAT WAT WAT WAT WAT WAT 
WAT WAT WAT WAT WAT WAT WAT WAT WAT WAT WAT WAT WAT WAT WAT WAT WAT WAT WAT WAT 
WAT WAT WAT WAT WAT WAT WAT WAT WAT WAT WAT WAT WAT WAT WAT WAT WAT WAT WAT WAT 
WAT WAT WAT WAT WAT WAT WAT WAT WAT WAT WAT WAT WAT WAT WAT WAT WAT WAT WAT WAT 
WAT WAT WAT WAT WAT WAT WAT WAT WAT WAT WAT WAT WAT WAT WAT WAT WAT WAT WAT WAT 
WAT WAT WAT WAT WAT WAT WAT WAT WAT WAT WAT WAT WAT WAT WAT WAT WAT WAT WAT WAT 
WAT WAT WAT WAT WAT WAT WAT WAT WAT WAT WAT WAT WAT WAT WAT WAT WAT WAT WAT WAT 
WAT WAT WAT WAT WAT WAT WAT WAT WAT WAT WAT WAT WAT WAT WAT WAT WAT WAT WAT WAT 
WAT WAT WAT WAT WAT WAT WAT WAT WAT WAT WAT WAT WAT WAT WAT WAT WAT WAT WAT WAT 
WAT WAT WAT WAT WAT WAT WAT WAT WAT WAT WAT WAT WAT WAT WAT WAT WAT WAT WAT WAT 
WAT WAT WAT WAT WAT 
%FLAG RESIDUE_POINTER                                                           
%FORMAT(10I8)                                                                   
       1      40      41      42      45      48      51      54      57      60
      63      66      69      72      75      78      81      84      87      90
      93      96      99     102     105     108     111     114     117     120
     123     126     129     132     135     138     141     144     147     150
     153     156     159     162     165     168     171     174     177     180
     183     186     189     192     195     198     201     204     207     210
     213     216     219     222     225     228     231     234     237     240
     243     246     249     252     255     258     261     264     267     270
     273     276     279     282     285     288     291     294     297     300
     303     306     309     312     315     318     321     324     327     330
     333     336     339     342     345     348     351     354     357     360
     363     366     369     372     375     378     381     384     387     390
     393     396     399     402     405     408     411     414     417     420
     423     426     429     432     435     438     441     444     447     450
     453     456     459     462     465     468     471     474     477     480
     483     486     489     492     495     498     501     504     507     510
     513     516     519     522     525     528     531     534     537     540
     543     546     549     552     555     558     561     564     567     570
     573     576     579     582     585     588     591     594     597     600
     603     606     609     612     615     618     621     624     627     630
     633     636     639     642     645     648     651     654     657     660
     663     666     669     672     675     678     681     684     687     690
     693     696     699     702     705     708     711     714     717     720
     723     726     729     732     735     738     741     744     747     750
     753     756     759     762     765     768     771     774     777     780
     783     786     789     792     795     798     801     804     807     810
     813     816     819     822     825     828     831     834     837     840
     843     846     849     852     855     858     861     864     867     870
     873     876     879     882     885     888     891     894     897     900
     903     906     909     912     915     918     921     924     927     930
     933     936     939     942     945     948     951     954     957     960
     963     966     969     972     975     978     981     984     987     990
     993     996     999    1002    1005    1008    1011    1014    1017    1020
    1023    1026    1029    1032    1035    1038    1041    1044    1047    1050
    1053    1056    1059    1062    1065    1068    1071    1074    1077    1080
    1083    1086    1089    1092    1095    1098    1101    1104    1107    1110
    1113    1116    1119    1122    1125    1128    1131    1134    1137    1140
    1143    1146    1149    1152    1155    1158    1161    1164    1167    1170
    1173    1176    1179    1182    1185    1188    1191    1194    1197    1200
    1203    1206    1209    1212    1215    1218    1221    1224    1227    1230
    1233    1236    1239    1242    1245    1248    1251    1254    1257    1260
    1263    1266    1269    1272    1275    1278    1281    1284    1287    1290
    1293    1296    1299    1302    1305    1308    1311    1314    1317    1320
    1323    1326    1329    1332    1335    1338    1341    1344    1347    1350
    1353    1356    1359    1362    1365    1368    1371    1374    1377    1380
    1383    1386    1389    1392    1395    1398    1401    1404    1407    1410
    1413    1416    1419    1422    1425    1428    1431    1434    1437    1440
    1443    1446    1449    1452    1455    1458    1461    1464    1467    1470
    1473    1476    1479    1482    1485    1488    1491    1494    1497    1500
    1503    1506    1509    1512    1515    1518    1521    1524    1527    1530
    1533    1536    1539    1542    1545    1548    1551    1554    1557    1560
    1563    1566    1569    1572    1575    1578    1581    1584    1587    1590
    1593    1596    1599    1602    1605    1608    1611    1614    1617    1620
    1623    1626    1629    1632    1635    1638    1641    1644    1647    1650
    1653    1656    1659    1662    1665    1668    1671    1674    1677    1680
    1683    1686    1689    1692    1695    1698    1701    1704    1707    1710
    1713    1716    1719    1722    1725    1728    1731    1734    1737    1740
    1743    1746    1749    1752    1755    1758    1761    1764    1767    1770
    1773    1776    1779    1782    1785    1788    1791    1794    1797    1800
    1803    1806    1809    1812    1815    1818    1821    1824    1827    1830
    1833    1836    1839    1842    1845    1848    1851    1854    1857    1860
    1863    1866    1869    1872    1875    1878    1881    1884    1887    1890
    1893    1896    1899    1902    1905    1908    1911    1914    1917    1920
    1923    1926    1929    1932    1935    1938    1941    1944    1947    1950
    1953    1956    1959    1962    1965    1968    1971    1974    1977    1980
    1983    1986    1989    1992    1995    1998    2001    2004    2007    2010
    2013    2016    2019    2022    2025    2028    2031    2034    2037    2040
    2043    2046    2049    2052    2055    2058    2061    2064    2067    2070
    2073    2076    2079    2082    2085    2088    2091    2094    2097    2100
    2103    2106    2109    2112    2115    2118    2121    2124    2127    2130
    2133    2136    2139    2142    2145    2148    2151    2154    2157    2160
    2163    2166    2169    2172    2175    2178    2181    2184    2187    2190
    2193    2196    2199    2202    2205    2208    2211    2214    2217    2220
    2223    2226    2229    2232    2235    2238    2241    2244    2247    2250
    2253    2256    2259    2262    2265    2268    2271    2274    2277    2280
    2283    2286    2289    2292    2295    2298    2301    2304    2307    2310
    2313    2316    2319    2322    2325    2328    2331    2334    2337    2340
    2343    2346    2349    2352    2355    2358    2361    2364    2367    2370
    2373    2376    2379    2382    2385    2388    2391    2394    2397    2400
    2403    2406    2409    2412    2415    2418    2421    2424    2427    2430
    2433    2436    2439    2442    2445    2448    2451    2454    2457    2460
    2463    2466    2469    2472    2475    2478    2481    2484    2487    2490
    2493    2496    2499    2502    2505    2508    2511    2514    2517    2520
    2523    2526    2529    2532    2535    2538    2541    2544    2547    2550
    2553    2556    2559    2562    2565    2568    2571    2574    2577    2580
    2583    2586    2589    2592    2595    2598    2601    2604    2607    2610
    2613    2616    2619    2622    2625    2628    2631    2634    2637    2640
    2643    2646    2649    2652    2655    2658    2661    2664    2667    2670
    2673    2676    2679    2682    2685    2688    2691    2694    2697    2700
    2703    2706    2709    2712    2715    2718    2721    2724    2727    2730
    2733    2736    2739    2742    2745    2748    2751    2754    2757    2760
    2763    2766    2769    2772    2775    2778    2781    2784    2787    2790
    2793    2796    2799    2802    2805    2808    2811    2814    2817    2820
    2823    2826    2829    2832    2835    2838    2841    2844    2847    2850
    2853    2856    2859    2862    2865    2868    2871    2874    2877    2880
    2883    2886    2889    2892    2895    2898    2901    2904    2907    2910
    2913    2916    2919    2922    2925    2928    2931    2934    2937    2940
    2943    2946    2949    2952    2955    2958    2961    2964    2967    2970
    2973    2976    2979    2982    2985    2988    2991    2994    2997    3000
    3003    3006    3009    3012    3015    3018    3021    3024    3027    3030
    3033    3036    3039    3042    3045    3048    3051    3054    3057    3060
    3063    3066    3069    3072    3075    3078    3081    3084    3087    3090
    3093    3096    3099    3102    3105    3108    3111    3114    3117    3120
    3123    3126    3129    3132    3135    3138    3141    3144    3147    3150
    3153    3156    3159    3162    3165    3168    3171    3174    3177    3180
    3183    3186    3189    3192    3195    3198    3201    3204    3207    3210
    3213    3216    3219    3222    3225    3228    3231    3234    3237    3240
    3243    3246    3249    3252    3255    3258    3261    3264    3267    3270
    3273    3276    3279    3282    3285    3288    3291    3294    3297    3300
    3303    3306    3309    3312    3315    3318    3321    3324    3327    3330
    3333    3336    3339    3342    3345    3348    3351    3354    3357    3360
    3363    3366    3369    3372    3375    3378    3381    3384    3387    3390
    3393    3396    3399    3402    3405    3408    3411    3414    3417    3420
    3423    3426    3429    3432    3435    3438    3441    3444    3447    3450
    3453    3456    3459    3462    3465    3468    3471    3474    3477    3480
    3483    3486    3489    3492    3495    3498    3501    3504    3507    3510
    3513    3516    3519    3522    3525    3528    3531    3534    3537    3540
    3543    3546    3549    3552    3555    3558    3561    3564    3567    3570
    3573    3576    3579    3582    3585    3588    3591    3594    3597    3600
    3603    3606    3609    3612    3615    3618    3621    3624    3627    3630
    3633    3636    3639    3642    3645    3648    3651    3654    3657    3660
    3663    3666    3669    3672    3675    3678    3681    3684    3687    3690
    3693    3696    3699    3702    3705    3708    3711    3714    3717    3720
    3723    3726    3729    3732    3735    3738    3741    3744    3747    3750
    3753    3756    3759    3762    3765    3768    3771    3774    3777    3780
    3783    3786    3789    3792    3795    3798    3801    3804    3807    3810
    3813    3816    3819    3822    3825    3828    3831    3834    3837    3840
    3843    3846    3849    3852    3855    3858    3861    3864    3867    3870
    3873    3876    3879    3882    3885    3888    3891    3894    3897    3900
    3903    3906    3909    3912    3915    3918    3921    3924    3927    3930
    3933    3936    3939    3942    3945    3948    3951    3954    3957    3960
    3963    3966    3969    3972    3975    3978    3981    3984    3987    3990
    3993    3996    3999    4002    4005    4008    4011    4014    4017    4020
    4023    4026    4029    4032    4035    4038    4041    4044    4047    4050
    4053    4056    4059    4062    4065    4068    4071    4074    4077    4080
    4083    4086    4089    4092    4095    4098    4101    4104    4107    4110
    4113    4116    4119    4122    4125    4128    4131    4134    4137    4140
    4143    4146    4149    4152    4155    4158    4161    4164    4167    4170
    4173    4176    4179    4182    4185    4188    4191    4194    4197    4200
    4203    4206    4209    4212    4215    4218    4221    4224    4227    4230
    4233    4236    4239    4242    4245    4248    4251    4254    4257    4260
    4263    4266    4269    4272    4275    4278    4281    4284    4287    4290
    4293    4296    4299    4302    4305    4308    4311    4314    4317    4320
    4323    4326    4329    4332    4335    4338    4341    4344    4347    4350
    4353    4356    4359    4362    4365    4368    4371    4374    4377    4380
    4383    4386    4389    4392    4395    4398    4401    4404    4407    4410
    4413    4416    4419    4422    4425    4428    4431    4434    4437    4440
    4443    4446    4449    4452    4455    4458    4461    4464    4467    4470
    4473    4476    4479    4482    4485    4488    4491    4494    4497    4500
    4503    4506    4509    4512    4515    4518    4521    4524    4527    4530
    4533    4536    4539    4542    4545    4548    4551    4554    4557    4560
    4563    4566    4569    4572    4575    4578    4581    4584    4587    4590
    4593    4596    4599    4602    4605    4608    4611    4614    4617    4620
    4623    4626    4629    4632    4635    4638    4641    4644    4647    4650
    4653    4656    4659    4662    4665    4668    4671    4674    4677    4680
    4683    4686    4689    4692    4695    4698    4701    4704    4707    4710
    4713    4716    4719    4722    4725    4728    4731    4734    4737    4740
    4743    4746    4749    4752    4755    4758    4761    4764    4767    4770
    4773    4776    4779    4782    4785    4788    4791    4794    4797    4800
    4803    4806    4809    4812    4815    4818    4821    4824    4827    4830
    4833    4836    4839    4842    4845    4848    4851    4854    4857    4860
    4863    4866    4869    4872    4875    4878    4881    4884    4887    4890
    4893    4896    4899    4902    4905    4908    4911    4914    4917    4920
    4923    4926    4929    4932    4935    4938    4941    4944    4947    4950
    4953    4956    4959    4962    4965    4968    4971    4974    4977    4980
    4983    4986    4989    4992    4995    4998    5001    5004    5007    5010
    5013    5016    5019    5022    5025    5028    5031    5034    5037    5040
    5043    5046    5049    5052    5055    5058    5061    5064    5067    5070
    5073    5076    5079    5082    5085    5088    5091    5094    5097    5100
    5103    5106    5109    5112    5115    5118    5121    5124    5127    5130
    5133    5136    5139    5142    5145    5148    5151    5154    5157    5160
    5163    5166    5169    5172    5175    5178    5181    5184    5187    5190
    5193    5196    5199    5202    5205    5208    5211    5214    5217    5220
    5223    5226    5229    5232    5235    5238    5241    5244    5247    5250
    5253    5256    5259    5262    5265    5268    5271    5274    5277    5280
    5283    5286    5289    5292    5295    5298    5301    5304    5307    5310
    5313    5316    5319    5322    5325    5328    5331    5334    5337    5340
    5343    5346    5349    5352    5355    5358    5361    5364    5367    5370
    5373    5376    5379    5382    5385    5388    5391    5394    5397    5400
    5403    5406    5409    5412    5415    5418    5421    5424    5427    5430
    5433    5436    5439    5442    5445    5448    5451    5454    5457    5460
    5463    5466    5469    5472    5475    5478    5481    5484    5487    5490
    5493    5496    5499    5502    5505    5508    5511    5514    5517    5520
    5523    5526    5529    5532    5535    5538    5541    5544    5547    5550
    5553    5556    5559    5562    5565    5568    5571    5574    5577    5580
    5583    5586    5589    5592    5595    5598    5601    5604    5607    5610
    5613    5616    5619    5622    5625    5628    5631    5634    5637    5640
    5643    5646    5649    5652    5655    5658    5661    5664    5667    5670
    5673    5676    5679    5682    5685    5688    5691    5694    5697    5700
    5703    5706    5709    5712    5715    5718    5721    5724    5727    5730
    5733    5736    5739    5742    5745    5748    5751    5754    5757    5760
    5763    5766    5769    5772    5775    5778    5781    5784    5787    5790
    5793    5796    5799    5802    5805    5808    5811    5814    5817    5820
    5823    5826    5829    5832    5835    5838    5841    5844    5847    5850
    5853    5856    5859    5862    5865    5868    5871    5874    5877    5880
    5883    5886    5889    5892    5895    5898    5901    5904    5907    5910
    5913    5916    5919    5922    5925    5928    5931    5934    5937    5940
    5943    5946    5949    5952    5955    5958    5961    5964    5967    5970
    5973    5976    5979    5982    5985    5988    5991    5994    5997    6000
    6003    6006    6009    6012    6015    6018    6021    6024    6027    6030
    6033    6036    6039    6042    6045    6048    6051    6054    6057    6060
    6063    6066    6069    6072    6075    6078    6081    6084    6087    6090
    6093    6096    6099    6102    6105    6108    6111    6114    6117    6120
    6123    6126    6129    6132    6135    6138    6141    6144    6147    6150
    6153    6156    6159    6162    6165    6168    6171    6174    6177    6180
    6183    6186    6189    6192    6195    6198    6201    6204    6207    6210
    6213    6216    6219    6222    6225    6228    6231    6234    6237    6240
    6243    6246    6249    6252    6255    6258    6261    6264    6267    6270
    6273    6276    6279    6282    6285    6288    6291    6294    6297    6300
    6303    6306    6309    6312    6315    6318    6321    6324    6327    6330
    6333    6336    6339    6342    6345    6348    6351    6354    6357    6360
    6363    6366    6369    6372    6375    6378    6381    6384    6387    6390
    6393    6396    6399    6402    6405    6408    6411    6414    6417    6420
    6423    6426    6429    6432    6435    6438    6441    6444    6447    6450
    6453    6456    6459    6462    6465    6468    6471    6474    6477    6480
    6483    6486    6489    6492    6495    6498    6501    6504    6507    6510
    6513    6516    6519    6522    6525    6528    6531    6534    6537    6540
    6543    6546    6549    6552    6555    6558    6561    6564    6567    6570
    6573    6576    6579    6582    6585    6588    6591    6594    6597    6600
    6603    6606    6609    6612    6615    6618    6621    6624    6627    6630
    6633    6636    6639    6642    6645    6648    6651    6654    6657    6660
    6663    6666    6669    6672    6675    6678    6681    6684    6687    6690
    6693    6696    6699    6702    6705    6708    6711    6714    6717    6720
    6723    6726    6729    6732    6735    6738    6741    6744    6747    6750
    6753    6756    6759    6762    6765    6768    6771    6774    6777    6780
    6783    6786    6789    6792    6795    6798    6801    6804    6807    6810
    6813    6816    6819    6822    6825    6828    6831    6834    6837    6840
    6843    6846    6849    6852    6855    6858    6861    6864    6867    6870
    6873    6876    6879    6882    6885    6888    6891    6894    6897    6900
    6903    6906    6909    6912    6915    6918    6921    6924    6927    6930
    6933    6936    6939    6942    6945    6948    6951    6954    6957    6960
    6963    6966    6969    6972    6975    6978    6981    6984    6987    6990
    6993    6996    6999    7002    7005    7008    7011    7014    7017    7020
    7023    7026    7029    7032    7035    7038    7041    7044    7047    7050
    7053    7056    7059    7062    7065    7068    7071    7074    7077    7080
    7083    7086    7089    7092    7095    7098    7101    7104    7107    7110
    7113    7116    7119    7122    7125    7128    7131    7134    7137    7140
    7143    7146    7149    7152    7155    7158    7161    7164    7167    7170
    7173    7176    7179    7182    7185    7188    7191    7194    7197    7200
    7203    7206    7209    7212    7215    7218    7221    7224    7227    7230
    7233    7236    7239    7242    7245    7248    7251    7254    7257    7260
    7263    7266    7269    7272    7275    7278    7281    7284    7287    7290
    7293    7296    7299    7302    7305    7308    7311    7314    7317    7320
    7323    7326    7329    7332    7335    7338    7341    7344    7347    7350
    7353    7356    7359    7362    7365    7368    7371    7374    7377    7380
    7383    7386    7389    7392    7395    7398    7401    7404    7407    7410
    7413    7416    7419    7422    7425    7428    7431    7434    7437    7440
    7443    7446    7449    7452    7455    7458    7461    7464    7467    7470
    7473    7476    7479    7482    7485    7488    7491    7494    7497    7500
    7503    7506    7509    7512    7515    7518    7521    7524    7527    7530
    7533    7536    7539    7542    7545    7548    7551    7554    7557    7560
    7563    7566    7569    7572    7575    7578    7581    7584    7587    7590
    7593    7596    7599    7602    7605    7608    7611    7614    7617    7620
    7623    7626    7629    7632    7635    7638    7641    7644    7647    7650
    7653    7656    7659    7662    7665    7668    7671    7674    7677    7680
    7683    7686    7689    7692    7695    7698    7701    7704    7707    7710
    7713    7716    7719    7722    7725    7728    7731    7734    7737    7740
    7743    7746    7749    7752    7755    7758    7761    7764    7767    7770
    7773    7776    7779    7782    7785    7788    7791    7794    7797    7800
    7803    7806    7809    7812    7815    7818    7821    7824    7827    7830
    7833    7836    7839    7842    7845    7848    7851    7854    7857    7860
    7863    7866    7869    7872    7875    7878    7881    7884    7887    7890
    7893    7896    7899    7902    7905    7908    7911    7914    7917    7920
    7923    7926    7929    7932    7935    7938    7941    7944    7947    7950
    7953    7956    7959    7962    7965    7968    7971    7974    7977    7980
    7983    7986    7989    7992    7995    7998    8001    8004    8007    8010
    8013    8016    8019    8022    8025    8028    8031    8034    8037    8040
    8043    8046    8049    8052    8055    8058    8061    8064    8067    8070
    8073    8076    8079    8082    8085    8088    8091    8094    8097    8100
    8103    8106    8109    8112    8115    8118    8121    8124    8127    8130
    8133    8136    8139    8142    8145    8148    8151    8154    8157    8160
    8163    8166    8169    8172    8175    8178    8181    8184    8187    8190
    8193    8196    8199    8202    8205    8208    8211    8214    8217    8220
    8223    8226    8229    8232    8235    8238    8241    8244    8247    8250
    8253    8256    8259    8262    8265    8268    8271    8274    8277    8280
    8283    8286    8289    8292    8295    8298    8301    8304    8307    8310
    8313    8316    8319    8322    8325    8328    8331    8334    8337    8340
    8343    8346    8349    8352    8355    8358    8361    8364    8367    8370
    8373    8376    8379    8382    8385    8388    8391    8394    8397    8400
    8403    8406    8409    8412    8415    8418    8421    8424    8427    8430
    8433    8436    8439    8442    8445    8448    8451    8454    8457    8460
    8463    8466    8469    8472    8475    8478    8481    8484    8487    8490
    8493    8496    8499    8502    8505    8508    8511    8514    8517    8520
    8523    8526    8529    8532    8535    8538    8541    8544    8547    8550
    8553    8556    8559    8562    8565    8568    8571    8574    8577    8580
    8583    8586    8589    8592    8595    8598    8601    8604    8607    8610
    8613    8616    8619    8622    8625    8628    8631    8634    8637    8640
    8643    8646    8649    8652    8655    8658    8661    8664    8667    8670
    8673    8676    8679    8682    8685    8688    8691    8694    8697    8700
    8703    8706    8709    8712    8715    8718    8721    8724    8727    8730
    8733    8736    8739    8742    8745    8748    8751    8754    8757    8760
    8763    8766    8769    8772    8775    8778    8781    8784    8787    8790
    8793    8796    8799    8802    8805    8808    8811    8814    8817    8820
    8823    8826    8829    8832    8835    8838    8841    8844    8847    8850
    8853    8856    8859    8862    8865    8868    8871    8874    8877    8880
    8883    8886    8889    8892    8895    8898    8901    8904    8907    8910
    8913    8916    8919    8922    8925    8928    8931    8934    8937    8940
    8943    8946    8949    8952    8955    8958    8961    8964    8967    8970
    8973    8976    8979    8982    8985    8988    8991    8994    8997    9000
    9003    9006    9009    9012    9015    9018    9021    9024    9027    9030
    9033    9036    9039    9042    9045    9048    9051    9054    9057    9060
    9063    9066    9069    9072    9075    9078    9081    9084    9087    9090
    9093    9096    9099    9102    9105    9108    9111    9114    9117    9120
    9123    9126    9129    9132    9135    9138    9141    9144    9147    9150
    9153    9156    9159    9162    9165    9168    9171    9174    9177    9180
    9183    9186    9189    9192    9195    9198    9201    9204    9207    9210
    9213    9216    9219    9222    9225    9228    9231    9234    9237    9240
    9243    9246    9249    9252    9255    9258    9261    9264    9267    9270
    9273    9276    9279    9282    9285    9288    9291    9294    9297    9300
    9303    9306    9309    9312    9315    9318    9321    9324    9327    9330
    9333    9336    9339    9342    9345    9348    9351    9354    9357    9360
    9363    9366    9369    9372    9375    9378    9381    9384    9387    9390
    9393    9396    9399    9402    9405    9408    9411    9414    9417    9420
    9423    9426    9429    9432    9435    9438    9441    9444    9447    9450
    9453    9456    9459    9462    9465    9468    9471    9474    9477    9480
    9483    9486    9489    9492    9495    9498    9501    9504    9507    9510
    9513    9516    9519    9522    9525    9528    9531    9534    9537    9540
    9543    9546    9549    9552    9555    9558    9561    9564    9567    9570
    9573    9576    9579    9582    9585    9588    9591    9594    9597    9600
    9603    9606    9609    9612    9615    9618    9621    9624    9627    9630
    9633    9636    9639    9642    9645    9648    9651    9654    9657    9660
    9663    9666    9669    9672    9675    9678    9681    9684    9687    9690
    9693    9696    9699    9702    9705    9708    9711    9714    9717    9720
    9723    9726    9729    9732    9735    9738    9741    9744    9747    9750
    9753    9756    9759    9762    9765    9768    9771    9774    9777    9780
    9783    9786    9789    9792    9795    9798    9801    9804    9807    9810
    9813    9816    9819    9822    9825    9828    9831    9834    9837    9840
    9843    9846    9849    9852    9855    9858    9861    9864    9867    9870
    9873    9876    9879    9882    9885    9888    9891    9894    9897    9900
    9903    9906    9909    9912    9915    9918    9921    9924    9927    9930
    9933    9936    9939    9942    9945    9948    9951    9954    9957    9960
    9963    9966    9969    9972    9975    9978    9981    9984    9987    9990
    9993    9996    9999   10002   10005   10008   10011   10014   10017   10020
   10023   10026   10029   10032   10035   10038   10041   10044   10047   10050
   10053   10056   10059   10062   10065   10068   10071   10074   10077   10080
   10083   10086   10089   10092   10095   10098   10101   10104   10107   10110
   10113   10116   10119   10122   10125   10128   10131   10134   10137   10140
   10143   10146   10149   10152   10155   10158   10161   10164   10167   10170
   10173   10176   10179   10182   10185   10188   10191   10194   10197   10200
   10203   10206   10209   10212   10215   10218   10221   10224   10227   10230
   10233   10236   10239   10242   10245   10248   10251   10254   10257   10260
   10263   10266   10269   10272   10275   10278   10281   10284   10287   10290
   10293   10296   10299   10302   10305   10308   10311   10314   10317   10320
   10323   10326   10329   10332   10335   10338   10341   10344   10347   10350
   10353   10356   10359   10362   10365   10368   10371   10374   10377   10380
   10383   10386   10389   10392   10395   10398   10401   10404   10407   10410
   10413   10416   10419   10422   10425   10428   10431   10434   10437   10440
   10443   10446   10449   10452   10455   10458   10461   10464   10467   10470
   10473   10476   10479   10482   10485   10488   10491   10494   10497   10500
   10503   10506   10509   10512   10515   10518   10521   10524   10527   10530
   10533   10536   10539   10542   10545   10548   10551   10554   10557   10560
   10563   10566   10569   10572   10575   10578   10581   10584   10587   10590
   10593   10596   10599   10602   10605   10608   10611   10614   10617   10620
   10623   10626   10629   10632   10635   10638   10641   10644   10647   10650
   10653   10656   10659   10662   10665   10668   10671   10674   10677   10680
   10683   10686   10689   10692   10695   10698   10701   10704   10707   10710
   10713   10716   10719   10722   10725   10728   10731   10734   10737   10740
   10743   10746   10749   10752   10755   10758   10761   10764   10767   10770
   10773   10776   10779   10782   10785   10788   10791   10794   10797   10800
   10803   10806   10809   10812   10815   10818   10821   10824   10827   10830
   10833   10836   10839   10842   10845   10848   10851   10854   10857   10860
   10863   10866   10869   10872   10875   10878   10881   10884   10887   10890
   10893   10896   10899   10902   10905   10908   10911   10914   10917   10920
   10923   10926   10929   10932   10935   10938   10941   10944   10947   10950
   10953   10956   10959   10962   10965   10968   10971   10974   10977   10980
   10983   10986   10989   10992   10995   10998   11001   11004   11007   11010
   11013   11016   11019   11022   11025   11028   11031   11034   11037   11040
   11043   11046   11049   11052   11055   11058   11061   11064   11067   11070
   11073   11076   11079   11082   11085   11088   11091   11094   11097   11100
   11103   11106   11109   11112   11115   11118   11121   11124   11127   11130
   11133   11136   11139   11142   11145   11148   11151   11154   11157   11160
   11163   11166   11169   11172   11175   11178   11181   11184   11187   11190
   11193   11196   11199   11202   11205   11208   11211   11214   11217   11220
   11223   11226   11229   11232   11235   11238   11241   11244   11247   11250
   11253   11256   11259   11262   11265   11268   11271   11274   11277   11280
   11283   11286   11289   11292   11295   11298   11301   11304   11307   11310
   11313   11316   11319   11322   11325   11328   11331   11334   11337   11340
   11343   11346   11349   11352   11355   11358   11361   11364   11367   11370
   11373   11376   11379   11382   11385   11388   11391   11394   11397   11400
   11403   11406   11409   11412   11415   11418   11421   11424   11427   11430
   11433   11436   11439   11442   11445   11448   11451   11454   11457   11460
   11463   11466   11469   11472   11475   11478   11481   11484   11487   11490
   11493   11496   11499   11502   11505   11508   11511   11514   11517   11520
   11523   11526   11529   11532   11535   11538   11541   11544   11547   11550
   11553   11556   11559   11562   11565   11568   11571   11574   11577   11580
   11583   11586   11589   11592   11595   11598   11601   11604   11607   11610
   11613   11616   11619   11622   11625   11628   11631   11634   11637   11640
   11643   11646   11649   11652   11655   11658   11661   11664   11667   11670
   11673   11676   11679   11682   11685   11688   11691   11694   11697   11700
   11703   11706   11709   11712   11715   11718   11721   11724   11727   11730
   11733   11736   11739   11742   11745   11748   11751   11754   11757   11760
   11763   11766   11769   11772   11775   11778   11781   11784   11787   11790
   11793   11796   11799   11802   11805   11808   11811   11814   11817   11820
   11823   11826   11829   11832   11835   11838   11841   11844   11847   11850
   11853   11856   11859   11862   11865   11868   11871   11874   11877   11880
   11883   11886   11889   11892   11895   11898   11901   11904   11907   11910
   11913   11916   11919   11922   11925   11928   11931   11934   11937   11940
   11943   11946   11949   11952   11955   11958   11961   11964   11967   11970
   11973   11976   11979   11982   11985   11988   11991   11994   11997   12000
   12003   12006   12009   12012   12015   12018   12021   12024   12027   12030
   12033   12036   12039   12042   12045   12048   12051   12054   12057   12060
   12063   12066   12069   12072   12075   12078   12081   12084   12087   12090
   12093   12096   12099   12102   12105   12108   12111   12114   12117   12120
   12123   12126   12129   12132   12135   12138   12141   12144   12147   12150
   12153   12156   12159   12162   12165   12168   12171   12174   12177   12180
   12183   12186   12189   12192   12195   12198   12201   12204   12207   12210
   12213   12216   12219   12222   12225   12228   12231   12234   12237   12240
   12243   12246   12249   12252   12255   12258   12261   12264   12267   12270
   12273   12276   12279   12282   12285   12288   12291   12294   12297   12300
   12303   12306   12309   12312   12315   12318   12321   12324   12327   12330
   12333   12336   12339   12342   12345   12348   12351   12354   12357   12360
   12363   12366   12369   12372   12375   12378   12381   12384   12387   12390
   12393   12396   12399   12402   12405   12408   12411   12414   12417   12420
   12423   12426   12429   12432   12435   12438   12441   12444   12447   12450
   12453   12456   12459   12462   12465   12468   12471   12474   12477   12480
   12483   12486   12489   12492   12495   12498   12501   12504   12507   12510
   12513   12516   12519   12522   12525   12528   12531   12534   12537   12540
   12543   12546   12549   12552   12555   12558   12561   12564   12567   12570
   12573   12576   12579   12582   12585   12588   12591   12594   12597   12600
   12603   12606   12609   12612   12615   12618   12621   12624   12627   12630
   12633   12636   12639   12642   12645   12648   12651   12654   12657   12660
   12663   12666   12669   12672   12675   12678   12681   12684   12687   12690
   12693   12696   12699   12702   12705   12708   12711   12714   12717   12720
   12723   12726   12729   12732   12735   12738   12741   12744   12747   12750
   12753   12756   12759   12762   12765   12768   12771   12774   12777   12780
   12783   12786   12789   12792   12795   12798   12801   12804   12807   12810
   12813   12816   12819   12822   12825   12828   12831   12834   12837   12840
   12843   12846   12849   12852   12855   12858   12861   12864   12867   12870
   12873   12876   12879   12882   12885   12888   12891   12894   12897   12900
   12903   12906   12909   12912   12915   12918   12921   12924   12927   12930
   12933   12936   12939   12942   12945   12948   12951   12954   12957   12960
   12963   12966   12969   12972   12975   12978   12981   12984   12987   12990
   12993   12996   12999   13002   13005   13008   13011   13014   13017   13020
   13023   13026   13029   13032   13035   13038   13041   13044   13047   13050
   13053   13056   13059   13062   13065   13068   13071   13074   13077   13080
   13083   13086   13089   13092   13095   13098   13101   13104   13107   13110
   13113   13116   13119   13122   13125   13128   13131   13134   13137   13140
   13143   13146   13149   13152   13155   13158   13161   13164   13167   13170
   13173   13176   13179   13182   13185   13188   13191   13194   13197   13200
   13203   13206   13209   13212   13215   13218   13221   13224   13227   13230
   13233   13236   13239   13242   13245   13248   13251   13254   13257   13260
   13263   13266   13269   13272   13275   13278   13281   13284   13287   13290
   13293   13296   13299   13302   13305   13308   13311   13314   13317   13320
   13323   13326   13329   13332   13335   13338   13341   13344   13347   13350
   13353   13356   13359   13362   13365   13368   13371   13374   13377   13380
   13383   13386   13389   13392   13395   13398   13401   13404   13407   13410
   13413   13416   13419   13422   13425   13428   13431   13434   13437   13440
   13443   13446   13449   13452   13455   13458   13461   13464   13467   13470
   13473   13476   13479   13482   13485   13488   13491   13494   13497   13500
   13503   13506   13509   13512   13515   13518   13521   13524   13527   13530
   13533   13536   13539   13542   13545   13548   13551   13554   13557   13560
   13563   13566   13569   13572   13575   13578   13581   13584   13587   13590
   13593   13596   13599   13602   13605   13608   13611   13614   13617   13620
   13623   13626   13629   13632   13635   13638   13641   13644   13647   13650
   13653   13656   13659   13662   13665   13668   13671   13674   13677   13680
   13683   13686   13689   13692   13695   13698   13701   13704   13707   13710
   13713   13716   13719   13722   13725   13728   13731   13734   13737   13740
   13743   13746   13749   13752   13755   13758   13761   13764   13767   13770
   13773   13776   13779   13782   13785   13788   13791   13794   13797   13800
   13803   13806   13809   13812   13815   13818   13821   13824   13827   13830
   13833   13836   13839   13842   13845   13848   13851   13854   13857   13860
   13863   13866   13869   13872   13875   13878   13881   13884   13887   13890
   13893   13896   13899   13902   13905   13908   13911   13914   13917   13920
   13923   13926   13929   13932   13935   13938   13941   13944   13947   13950
   13953   13956   13959   13962   13965   13968   13971   13974   13977   13980
   13983   13986   13989   13992   13995   13998   14001   14004   14007   14010
   14013   14016   14019   14022   14025   14028   14031   14034   14037   14040
   14043   14046   14049   14052   14055   14058   14061   14064   14067   14070
   14073   14076   14079   14082   14085   14088   14091   14094   14097   14100
   14103   14106   14109   14112   14115   14118   14121   14124   14127   14130
   14133   14136   14139   14142   14145   14148   14151   14154   14157   14160
   14163   14166   14169   14172   14175   14178   14181   14184   14187   14190
   14193   14196   14199   14202   14205   14208   14211   14214   14217   14220
   14223   14226   14229   14232   14235   14238   14241   14244   14247   14250
   14253   14256   14259   14262   14265   14268   14271   14274   14277   14280
   14283   14286   14289   14292   14295   14298   14301   14304   14307   14310
   14313   14316   14319   14322   14325   14328   14331   14334   14337   14340
   14343   14346   14349   14352   14355   14358   14361   14364   14367   14370
   14373   14376   14379   14382   14385   14388   14391   14394   14397   14400
   14403   14406   14409   14412   14415   14418   14421   14424   14427   14430
   14433   14436   14439   14442   14445   14448   14451   14454   14457   14460
   14463   14466   14469   14472   14475   14478   14481   14484   14487   14490
   14493   14496   14499   14502   14505   14508   14511   14514   14517   14520
   14523   14526   14529   14532   14535   14538   14541   14544   14547   14550
   14553   14556   14559   14562   14565   14568   14571   14574   14577   14580
   14583   14586   14589   14592   14595   14598   14601   14604   14607   14610
   14613   14616   14619   14622   14625   14628   14631   14634   14637   14640
   14643   14646   14649   14652   14655   14658   14661   14664   14667   14670
   14673   14676   14679   14682   14685   14688   14691   14694   14697   14700
   14703   14706   14709   14712   14715   14718   14721   14724   14727   14730
   14733   14736   14739   14742   14745   14748   14751   14754   14757   14760
   14763   14766   14769   14772   14775   14778   14781   14784   14787   14790
   14793   14796   14799   14802   14805   14808   14811   14814   14817   14820
   14823   14826   14829   14832   14835   14838   14841   14844   14847   14850
   14853   14856   14859   14862   14865   14868   14871   14874   14877   14880
   14883   14886   14889   14892   14895   14898   14901   14904   14907   14910
   14913   14916   14919   14922   14925   14928   14931   14934   14937   14940
   14943   14946   14949   14952   14955   14958   14961   14964   14967   14970
   14973   14976   14979   14982   14985   14988   14991   14994   14997   15000
   15003   15006   15009   15012   15015   15018   15021   15024   15027   15030
   15033   15036   15039   15042   15045   15048   15051   15054   15057   15060
   15063   15066   15069   15072   15075   15078   15081   15084   15087   15090
   15093   15096   15099   15102   15105   15108   15111   15114   15117   15120
   15123   15126   15129   15132   15135   15138   15141   15144   15147   15150
   15153   15156   15159   15162   15165   15168   15171   15174   15177   15180
   15183   15186   15189   15192   15195   15198   15201   15204   15207   15210
   15213   15216   15219   15222   15225   15228   15231   15234   15237   15240
   15243   15246   15249   15252   15255   15258   15261   15264   15267   15270
   15273   15276   15279   15282   15285   15288   15291   15294   15297   15300
   15303   15306   15309   15312   15315   15318   15321   15324   15327   15330
   15333   15336   15339   15342   15345   15348   15351   15354   15357   15360
   15363   15366   15369   15372   15375   15378   15381   15384   15387   15390
   15393   15396   15399   15402   15405   15408   15411   15414   15417   15420
   15423   15426   15429   15432   15435   15438   15441   15444   15447   15450
   15453   15456   15459   15462   15465   15468   15471   15474   15477   15480
   15483   15486   15489   15492   15495   15498   15501   15504   15507   15510
   15513   15516   15519   15522   15525   15528   15531   15534   15537   15540
   15543   15546   15549   15552   15555   15558   15561   15564   15567   15570
   15573   15576   15579   15582   15585   15588   15591   15594   15597   15600
   15603   15606   15609   15612   15615   15618   15621   15624   15627   15630
   15633   15636   15639   15642   15645   15648   15651   15654   15657   15660
   15663   15666   15669   15672   15675   15678   15681   15684   15687   15690
   15693   15696   15699   15702   15705   15708   15711   15714   15717   15720
   15723   15726   15729   15732   15735   15738   15741   15744   15747   15750
   15753   15756   15759   15762   15765   15768   15771   15774   15777   15780
   15783   15786   15789   15792   15795   15798   15801   15804   15807   15810
   15813   15816   15819   15822   15825   15828   15831   15834   15837   15840
   15843   15846   15849   15852   15855   15858   15861   15864   15867   15870
   15873   15876   15879   15882   15885   15888   15891   15894   15897   15900
   15903   15906   15909   15912   15915   15918   15921   15924   15927   15930
   15933   15936   15939   15942   15945   15948   15951   15954   15957   15960
   15963   15966   15969   15972   15975   15978   15981   15984   15987   15990
   15993   15996   15999   16002   16005   16008   16011   16014   16017   16020
   16023   16026   16029   16032   16035   16038   16041   16044   16047   16050
   16053   16056   16059   16062   16065   16068   16071   16074   16077   16080
   16083   16086   16089   16092   16095   16098   16101   16104   16107   16110
   16113   16116   16119   16122   16125   16128   16131   16134   16137   16140
   16143   16146   16149   16152   16155   16158   16161   16164   16167   16170
   16173   16176   16179   16182   16185   16188   16191   16194   16197   16200
   16203   16206   16209   16212   16215   16218   16221   16224   16227   16230
   16233   16236   16239   16242   16245   16248   16251   16254   16257   16260
   16263   16266   16269   16272   16275   16278   16281   16284   16287   16290
   16293   16296   16299   16302   16305   16308   16311   16314   16317   16320
   16323   16326   16329   16332   16335   16338   16341   16344   16347   16350
   16353   16356   16359   16362   16365   16368   16371   16374   16377   16380
   16383   16386   16389   16392   16395   16398   16401   16404   16407   16410
   16413   16416   16419   16422   16425   16428   16431   16434   16437   16440
   16443   16446   16449   16452   16455   16458   16461   16464   16467   16470
   16473   16476   16479   16482   16485   16488   16491   16494   16497   16500
   16503   16506   16509   16512   16515   16518   16521   16524   16527   16530
   16533   16536   16539   16542   16545   16548   16551   16554   16557   16560
   16563   16566   16569   16572   16575   16578   16581   16584   16587   16590
   16593   16596   16599   16602   16605   16608   16611   16614   16617   16620
   16623   16626   16629   16632   16635   16638   16641   16644   16647   16650
   16653   16656   16659   16662   16665   16668   16671   16674   16677   16680
   16683   16686   16689   16692   16695   16698   16701   16704   16707   16710
   16713   16716   16719   16722   16725   16728   16731   16734   16737   16740
   16743   16746   16749   16752   16755   16758   16761   16764   16767   16770
   16773   16776   16779   16782   16785   16788   16791   16794   16797   16800
   16803   16806   16809   16812   16815   16818   16821   16824   16827   16830
   16833   16836   16839   16842   16845   16848   16851   16854   16857   16860
   16863   16866   16869   16872   16875   16878   16881   16884   16887   16890
   16893   16896   16899   16902   16905   16908   16911   16914   16917   16920
   16923   16926   16929   16932   16935   16938   16941   16944   16947   16950
   16953   16956   16959   16962   16965   16968   16971   16974   16977   16980
   16983   16986   16989   16992   16995   16998   17001   17004   17007   17010
   17013   17016   17019   17022   17025   17028   17031   17034   17037   17040
   17043   17046   17049   17052   17055   17058   17061   17064   17067   17070
   17073   17076   17079   17082   17085   17088   17091   17094   17097   17100
   17103   17106   17109   17112   17115   17118   17121   17124   17127   17130
   17133   17136   17139   17142   17145   17148   17151   17154   17157   17160
   17163   17166   17169   17172   17175   17178   17181   17184   17187   17190
   17193   17196   17199   17202   17205   17208   17211   17214   17217   17220
   17223   17226   17229   17232   17235   17238   17241   17244   17247   17250
   17253   17256   17259   17262   17265   17268   17271   17274   17277   17280
   17283   17286   17289   17292   17295   17298   17301   17304   17307   17310
   17313   17316   17319   17322   17325   17328   17331   17334   17337   17340
   17343   17346   17349   17352   17355   17358   17361   17364   17367   17370
   17373   17376   17379   17382   17385   17388   17391   17394   17397   17400
   17403   17406   17409   17412   17415   17418   17421   17424   17427   17430
   17433   17436   17439   17442   17445   17448   17451   17454   17457   17460
   17463   17466   17469   17472   17475   17478   17481   17484   17487   17490
   17493   17496   17499   17502   17505   17508   17511   17514   17517   17520
   17523   17526   17529   17532   17535   17538   17541   17544   17547   17550
   17553   17556   17559   17562   17565   17568   17571   17574   17577   17580
   17583   17586   17589   17592   17595   17598   17601   17604   17607   17610
   17613   17616   17619   17622   17625   17628   17631   17634   17637   17640
   17643   17646   17649   17652   17655   17658   17661   17664   17667   17670
   17673   17676   17679   17682   17685   17688   17691   17694   17697   17700
   17703   17706   17709   17712   17715   17718   17721   17724   17727   17730
   17733   17736   17739   17742   17745   17748   17751   17754   17757   17760
   17763   17766   17769   17772   17775   17778   17781   17784   17787   17790
   17793   17796   17799   17802   17805   17808   17811   17814   17817   17820
   17823   17826   17829   17832   17835   17838   17841   17844   17847   17850
   17853   17856   17859   17862   17865   17868   17871   17874   17877   17880
   17883   17886   17889   17892   17895   17898   17901   17904   17907   17910
   17913   17916   17919   17922   17925   17928   17931   17934   17937   17940
   17943   17946   17949   17952   17955   17958   17961   17964   17967   17970
   17973   17976   17979   17982   17985   17988   17991   17994   17997   18000
   18003   18006   18009   18012   18015   18018   18021   18024   18027   18030
   18033   18036   18039   18042   18045   18048   18051   18054   18057   18060
   18063   18066   18069   18072   18075   18078   18081   18084   18087   18090
   18093   18096   18099   18102   18105   18108   18111   18114   18117   18120
   18123   18126   18129   18132   18135   18138   18141   18144   18147   18150
   18153   18156   18159   18162   18165   18168   18171   18174   18177   18180
   18183   18186   18189   18192   18195   18198   18201   18204   18207   18210
   18213   18216   18219   18222   18225   18228   18231   18234   18237   18240
   18243   18246   18249   18252   18255   18258   18261   18264   18267   18270
   18273   18276   18279   18282   18285   18288   18291   18294   18297   18300
   18303   18306   18309   18312   18315   18318   18321   18324   18327   18330
   18333   18336   18339   18342   18345   18348   18351   18354   18357   18360
   18363   18366   18369   18372   18375   18378   18381   18384   18387   18390
   18393   18396   18399   18402   18405   18408   18411   18414   18417   18420
   18423   18426   18429   18432   18435   18438   18441   18444   18447   18450
   18453   18456   18459   18462   18465   18468   18471   18474   18477   18480
   18483   18486   18489   18492   18495   18498   18501   18504   18507   18510
   18513   18516   18519   18522   18525   18528   18531   18534   18537   18540
   18543   18546   18549   18552   18555   18558   18561   18564   18567   18570
   18573   18576   18579   18582   18585   18588   18591   18594   18597   18600
   18603   18606   18609   18612   18615   18618   18621   18624   18627   18630
   18633   18636   18639   18642   18645   18648   18651   18654   18657   18660
   18663   18666   18669   18672   18675   18678   18681   18684   18687   18690
   18693   18696   18699   18702   18705   18708   18711   18714   18717   18720
   18723   18726   18729   18732   18735   18738   18741   18744   18747   18750
   18753   18756   18759   18762   18765   18768   18771   18774   18777   18780
   18783   18786   18789   18792   18795   18798   18801   18804   18807   18810
   18813   18816   18819   18822   18825   18828   18831   18834   18837   18840
   18843   18846   18849   18852   18855   18858   18861   18864   18867   18870
   18873   18876   18879   18882   18885   18888   18891   18894   18897   18900
   18903   18906   18909   18912   18915   18918   18921   18924   18927   18930
   18933   18936   18939   18942   18945   18948   18951   18954   18957   18960
   18963   18966   18969   18972   18975   18978   18981   18984   18987   18990
   18993   18996   18999   19002   19005   19008   19011   19014   19017   19020
   19023   19026   19029   19032   19035   19038   19041   19044   19047   19050
   19053   19056   19059   19062   19065   19068   19071   19074   19077   19080
   19083   19086   19089   19092   19095   19098   19101   19104   19107   19110
   19113   19116   19119   19122   19125   19128   19131   19134   19137   19140
   19143   19146   19149   19152   19155   19158   19161   19164   19167   19170
   19173   19176   19179   19182   19185   19188   19191   19194   19197   19200
   19203   19206   19209   19212   19215   19218   19221   19224   19227   19230
   19233   19236   19239   19242   19245   19248   19251   19254   19257   19260
   19263   19266   19269   19272   19275   19278   19281   19284   19287   19290
   19293   19296   19299   19302   19305   19308   19311   19314   19317   19320
   19323   19326   19329   19332   19335   19338   19341   19344   19347   19350
   19353   19356   19359   19362   19365   19368   19371   19374   19377   19380
   19383   19386   19389   19392   19395   19398   19401   19404   19407   19410
   19413   19416   19419   19422   19425   19428   19431   19434   19437   19440
   19443   19446   19449   19452   19455   19458   19461   19464   19467   19470
   19473   19476   19479   19482   19485   19488   19491   19494   19497   19500
   19503   19506   19509   19512   19515   19518   19521   19524   19527   19530
   19533   19536   19539   19542   19545   19548   19551   19554   19557   19560
   19563   19566   19569   19572   19575   19578   19581   19584   19587   19590
   19593   19596   19599   19602   19605   19608   19611   19614   19617   19620
   19623   19626   19629   19632   19635   19638   19641   19644   19647   19650
   19653   19656   19659   19662   19665   19668   19671   19674   19677   19680
   19683   19686   19689   19692   19695   19698   19701   19704   19707   19710
   19713   19716   19719   19722   19725   19728   19731   19734   19737   19740
   19743   19746   19749   19752   19755   19758   19761   19764   19767   19770
   19773   19776   19779   19782   19785   19788   19791   19794   19797   19800
   19803   19806   19809   19812   19815   19818   19821   19824   19827   19830
   19833   19836   19839   19842   19845   19848   19851   19854   19857   19860
   19863   19866   19869   19872   19875   19878   19881   19884   19887   19890
   19893   19896   19899   19902   19905   19908   19911   19914   19917   19920
   19923   19926   19929   19932   19935   19938   19941   19944   19947   19950
   19953   19956   19959   19962   19965   19968   19971   19974   19977   19980
   19983   19986   19989   19992   19995   19998   20001   20004   20007   20010
   20013   20016   20019   20022   20025   20028   20031   20034   20037   20040
   20043   20046   20049   20052   20055   20058   20061   20064   20067   20070
   20073   20076   20079   20082   20085   20088   20091   20094   20097   20100
   20103   20106   20109   20112   20115   20118   20121   20124   20127   20130
   20133   20136   20139   20142   20145   20148   20151   20154   20157   20160
   20163   20166   20169   20172   20175   20178   20181   20184   20187   20190
   20193   20196   20199   20202   20205   20208   20211   20214   20217   20220
   20223   20226   20229   20232   20235   20238   20241   20244   20247   20250
   20253   20256   20259   20262   20265   20268   20271   20274   20277   20280
   20283   20286   20289   20292   20295   20298   20301   20304   20307   20310
   20313   20316   20319   20322   20325   20328   20331   20334   20337   20340
   20343   20346   20349   20352   20355   20358   20361   20364   20367   20370
   20373   20376   20379   20382   20385   20388   20391   20394   20397   20400
   20403   20406   20409   20412   20415   20418   20421   20424   20427   20430
   20433   20436   20439   20442   20445   20448   20451   20454   20457   20460
   20463   20466   20469   20472   20475   20478   20481   20484   20487   20490
   20493   20496   20499   20502   20505   20508   20511   20514   20517   20520
   20523   20526   20529   20532   20535   20538   20541   20544   20547   20550
   20553   20556   20559   20562   20565   20568   20571   20574   20577   20580
   20583   20586   20589   20592   20595   20598   20601   20604   20607   20610
   20613   20616   20619   20622   20625   20628   20631   20634   20637   20640
   20643   20646   20649   20652   20655   20658   20661   20664   20667   20670
   20673   20676   20679   20682   20685   20688   20691   20694   20697   20700
   20703   20706   20709   20712   20715   20718   20721   20724   20727   20730
   20733   20736   20739   20742   20745   20748   20751   20754   20757   20760
   20763   20766   20769   20772   20775   20778   20781   20784   20787   20790
   20793   20796   20799   20802   20805   20808   20811   20814   20817   20820
   20823   20826   20829   20832   20835   20838   20841   20844   20847   20850
   20853   20856   20859   20862   20865   20868   20871   20874   20877   20880
   20883   20886   20889   20892   20895   20898   20901   20904   20907   20910
   20913   20916   20919   20922   20925   20928   20931   20934   20937   20940
   20943   20946   20949   20952   20955   20958   20961   20964   20967   20970
   20973   20976   20979   20982   20985   20988   20991   20994   20997   21000
   21003   21006   21009   21012   21015   21018   21021   21024   21027   21030
   21033   21036   21039   21042   21045   21048   21051   21054   21057   21060
   21063   21066   21069   21072   21075   21078   21081   21084   21087   21090
   21093   21096   21099   21102   21105   21108   21111   21114   21117   21120
   21123   21126   21129   21132   21135   21138   21141   21144   21147   21150
   21153   21156   21159   21162   21165   21168   21171   21174   21177   21180
   21183   21186   21189   21192   21195   21198   21201   21204   21207   21210
   21213   21216   21219   21222   21225   21228   21231   21234   21237   21240
   21243   21246   21249   21252   21255   21258   21261   21264   21267   21270
   21273   21276   21279   21282   21285   21288   21291   21294   21297   21300
   21303   21306   21309   21312   21315   21318   21321   21324   21327   21330
   21333   21336   21339   21342   21345   21348   21351   21354   21357   21360
   21363   21366   21369   21372   21375   21378   21381   21384   21387   21390
   21393   21396   21399   21402   21405   21408   21411   21414   21417   21420
   21423   21426   21429   21432   21435   21438   21441   21444   21447   21450
   21453   21456   21459   21462   21465   21468   21471   21474   21477   21480
   21483   21486   21489   21492   21495   21498   21501   21504   21507   21510
   21513   21516   21519   21522   21525   21528   21531   21534   21537   21540
   21543   21546   21549   21552   21555   21558   21561   21564   21567   21570
   21573   21576   21579   21582   21585   21588   21591   21594   21597   21600
   21603   21606   21609   21612   21615   21618   21621   21624   21627   21630
   21633   21636   21639   21642   21645   21648   21651   21654   21657   21660
   21663   21666   21669   21672   21675   21678   21681   21684   21687   21690
   21693   21696   21699   21702   21705   21708   21711   21714   21717   21720
   21723   21726   21729   21732   21735   21738   21741   21744   21747   21750
   21753   21756   21759   21762   21765   21768   21771   21774   21777   21780
   21783   21786   21789   21792   21795   21798   21801   21804   21807   21810
   21813   21816   21819   21822   21825   21828   21831   21834   21837   21840
   21843   21846   21849   21852   21855   21858   21861   21864   21867   21870
   21873   21876   21879   21882   21885   21888   21891   21894   21897   21900
   21903   21906   21909   21912   21915   21918   21921   21924   21927   21930
   21933   21936   21939   21942   21945   21948   21951   21954   21957   21960
   21963   21966   21969   21972   21975   21978   21981   21984   21987   21990
   21993   21996   21999   22002   22005   22008   22011   22014   22017   22020
   22023   22026   22029   22032   22035   22038   22041   22044   22047   22050
   22053   22056   22059   22062   22065   22068   22071   22074   22077   22080
   22083   22086   22089   22092   22095   22098   22101   22104   22107   22110
   22113   22116   22119   22122   22125   22128   22131   22134   22137   22140
   22143   22146   22149   22152   22155   22158   22161   22164   22167   22170
   22173   22176   22179   22182   22185   22188   22191   22194   22197   22200
   22203   22206   22209   22212   22215   22218   22221   22224   22227   22230
   22233   22236   22239   22242   22245   22248   22251   22254   22257   22260
   22263   22266   22269   22272   22275   22278   22281   22284   22287   22290
   22293   22296   22299   22302   22305   22308   22311   22314   22317   22320
   22323   22326   22329   22332   22335   22338   22341   22344   22347   22350
   22353   22356   22359   22362   22365   22368   22371   22374   22377   22380
   22383   22386   22389   22392   22395   22398   22401   22404   22407   22410
   22413   22416   22419   22422   22425   22428   22431   22434   22437   22440
   22443   22446   22449   22452   22455   22458   22461   22464   22467   22470
   22473   22476   22479   22482   22485   22488   22491   22494   22497   22500
   22503   22506   22509   22512   22515   22518   22521   22524   22527   22530
   22533   22536   22539   22542   22545   22548   22551   22554   22557   22560
   22563   22566   22569   22572   22575   22578   22581   22584   22587   22590
   22593   22596   22599   22602   22605   22608   22611   22614   22617   22620
   22623   22626   22629   22632   22635   22638   22641   22644   22647   22650
   22653   22656   22659   22662   22665   22668   22671   22674   22677   22680
   22683   22686   22689   22692   22695   22698   22701   22704   22707   22710
   22713   22716   22719   22722   22725   22728   22731   22734   22737   22740
   22743   22746   22749   22752   22755   22758   22761   22764   22767   22770
   22773   22776   22779   22782   22785   22788   22791   22794   22797   22800
   22803   22806   22809   22812   22815   22818   22821   22824   22827   22830
   22833   22836   22839   22842   22845   22848   22851   22854   22857   22860
   22863   22866   22869   22872   22875   22878   22881   22884   22887   22890
   22893   22896   22899   22902   22905   22908   22911   22914   22917   22920
   22923   22926   22929   22932   22935   22938   22941   22944   22947   22950
   22953   22956   22959   22962   22965   22968   22971   22974   22977   22980
   22983   22986   22989   22992   22995   22998   23001   23004   23007   23010
   23013   23016   23019   23022   23025   23028   23031   23034   23037   23040
   23043   23046   23049   23052   23055   23058   23061   23064   23067   23070
   23073   23076   23079   23082   23085   23088   23091   23094   23097   23100
   23103   23106   23109   23112   23115   23118   23121   23124   23127   23130
   23133   23136   23139   23142   23145   23148   23151   23154   23157   23160
   23163   23166   23169   23172   23175   23178   23181   23184   23187   23190
   23193   23196   23199   23202   23205   23208   23211   23214   23217   23220
   23223   23226   23229   23232   23235   23238   23241   23244   23247   23250
   23253   23256   23259   23262   23265   23268   23271   23274   23277   23280
   23283   23286   23289   23292   23295   23298   23301   23304   23307   23310
   23313   23316   23319   23322   23325   23328   23331   23334   23337   23340
   23343   23346   23349   23352   23355   23358   23361   23364   23367   23370
   23373   23376   23379   23382   23385   23388   23391   23394   23397   23400
   23403   23406   23409   23412   23415   23418   23421   23424   23427   23430
   23433   23436   23439   23442   23445   23448   23451   23454   23457   23460
   23463   23466   23469   23472   23475   23478   23481   23484   23487   23490
   23493   23496   23499   23502   23505   23508   23511   23514   23517   23520
   23523   23526   23529   23532   23535   23538   23541   23544   23547   23550
   23553   23556   23559   23562   23565   23568   23571   23574   23577   23580
   23583   23586   23589   23592   23595   23598   23601   23604   23607   23610
   23613   23616   23619   23622   23625   23628   23631   23634   23637   23640
   23643   23646   23649   23652   23655   23658   23661   23664   23667   23670
   23673   23676   23679   23682   23685   23688   23691   23694   23697   23700
   23703   23706   23709   23712   23715   23718   23721   23724   23727   23730
   23733   23736   23739   23742   23745   23748   23751   23754   23757   23760
   23763   23766   23769   23772   23775   23778   23781   23784   23787   23790
   23793   23796   23799   23802   23805   23808   23811   23814   23817   23820
   23823   23826   23829   23832   23835   23838   23841   23844   23847   23850
   23853   23856   23859   23862   23865   23868   23871   23874   23877   23880
   23883   23886   23889   23892   23895   23898   23901   23904   23907   23910
   23913   23916   23919   23922   23925   23928   23931   23934   23937   23940
   23943   23946   23949   23952   23955   23958   23961   23964   23967   23970
   23973   23976   23979   23982   23985   23988   23991   23994   23997   24000
   24003   24006   24009   24012   24015   24018   24021   24024   24027   24030
   24033   24036   24039   24042   24045   24048   24051   24054   24057   24060
   24063   24066   24069   24072   24075   24078   24081   24084   24087   24090
   24093   24096   24099   24102   24105   24108   24111   24114   24117   24120
   24123   24126   24129   24132   24135   24138   24141   24144   24147   24150
   24153   24156   24159   24162   24165   24168   24171   24174   24177   24180
   24183   24186   24189   24192   24195   24198   24201   24204   24207   24210
   24213   24216   24219   24222   24225   24228   24231   24234   24237   24240
   24243   24246   24249   24252   24255   24258   24261   24264   24267   24270
   24273   24276   24279   24282   24285   24288   24291   24294   24297   24300
   24303   24306   24309   24312   24315   24318   24321   24324   24327   24330
   24333   24336   24339   24342   24345   24348   24351   24354   24357   24360
   24363   24366   24369   24372   24375   24378   24381   24384   24387   24390
   24393   24396   24399   24402   24405   24408   24411   24414   24417   24420
   24423   24426   24429   24432   24435   24438   24441   24444   24447   24450
   24453   24456   24459   24462   24465   24468   24471   24474   24477   24480
   24483   24486   24489   24492   24495   24498   24501   24504   24507   24510
   24513   24516   24519   24522   24525   24528   24531   24534   24537   24540
   24543   24546   24549   24552   24555   24558   24561   24564   24567   24570
   24573   24576   24579   24582   24585   24588   24591   24594   24597   24600
   24603   24606   24609   24612   24615   24618   24621   24624   24627   24630
   24633   24636   24639   24642   24645   24648   24651   24654   24657   24660
   24663   24666   24669   24672   24675   24678   24681   24684   24687   24690
   24693   24696   24699   24702   24705   24708   24711   24714   24717   24720
   24723   24726   24729   24732   24735   24738   24741   24744   24747   24750
   24753   24756   24759   24762   24765   24768   24771   24774   24777   24780
   24783   24786   24789   24792   24795   24798   24801   24804   24807   24810
   24813   24816   24819   24822   24825   24828   24831   24834   24837   24840
   24843   24846   24849   24852   24855   24858   24861   24864   24867   24870
   24873   24876   24879   24882   24885   24888   24891   24894   24897   24900
   24903   24906   24909   24912   24915   24918   24921   24924   24927   24930
   24933   24936   24939   24942   24945   24948   24951   24954   24957   24960
   24963   24966   24969   24972   24975   24978   24981   24984   24987   24990
   24993   24996   24999   25002   25005   25008   25011   25014   25017   25020
   25023   25026   25029   25032   25035   25038   25041   25044   25047   25050
   25053   25056   25059   25062   25065   25068   25071   25074   25077   25080
   25083   25086   25089   25092   25095   25098   25101   25104   25107   25110
   25113   25116   25119   25122   25125   25128   25131   25134   25137   25140
   25143   25146   25149   25152   25155   25158   25161   25164   25167   25170
   25173   25176   25179   25182   25185   25188   25191   25194   25197   25200
   25203   25206   25209   25212   25215   25218   25221   25224   25227   25230
   25233   25236   25239   25242   25245   25248   25251   25254   25257   25260
   25263   25266   25269   25272   25275   25278   25281   25284   25287   25290
   25293   25296   25299   25302   25305   25308   25311   25314   25317   25320
   25323   25326   25329   25332   25335   25338   25341   25344   25347   25350
   25353   25356   25359   25362   25365   25368   25371   25374   25377   25380
   25383   25386   25389   25392   25395   25398   25401   25404   25407   25410
   25413   25416   25419   25422   25425   25428   25431   25434   25437   25440
   25443   25446   25449   25452   25455   25458   25461   25464   25467   25470
   25473   25476   25479   25482   25485   25488   25491   25494   25497   25500
   25503   25506   25509   25512   25515   25518   25521   25524   25527   25530
   25533   25536   25539   25542   25545   25548   25551   25554   25557   25560
   25563   25566   25569   25572   25575   25578   25581   25584   25587   25590
   25593   25596   25599   25602   25605   25608   25611   25614   25617   25620
   25623   25626   25629   25632   25635   25638   25641   25644   25647   25650
   25653   25656   25659   25662   25665   25668   25671   25674   25677   25680
   25683   25686   25689   25692   25695   25698   25701   25704   25707   25710
   25713   25716   25719   25722   25725   25728   25731   25734   25737   25740
   25743   25746   25749   25752   25755   25758   25761   25764   25767   25770
   25773   25776   25779   25782   25785   25788   25791   25794   25797   25800
   25803   25806   25809   25812   25815   25818   25821   25824   25827   25830
   25833   25836   25839   25842   25845   25848   25851   25854   25857   25860
   25863   25866   25869   25872   25875   25878   25881   25884   25887   25890
   25893   25896   25899   25902   25905   25908   25911   25914   25917   25920
   25923   25926   25929   25932   25935   25938   25941   25944   25947   25950
   25953   25956   25959   25962   25965   25968   25971   25974   25977   25980
   25983   25986   25989   25992   25995   25998   26001   26004   26007   26010
   26013   26016   26019   26022   26025   26028   26031   26034   26037   26040
   26043   26046   26049   26052   26055   26058   26061   26064   26067   26070
   26073   26076   26079   26082   26085   26088   26091   26094   26097   26100
   26103   26106   26109   26112   26115   26118   26121   26124   26127   26130
   26133   26136   26139   26142   26145   26148   26151   26154   26157   26160
   26163   26166   26169   26172   26175   26178   26181   26184   26187   26190
   26193   26196   26199   26202   26205   26208   26211   26214   26217   26220
   26223   26226   26229   26232   26235   26238   26241   26244   26247   26250
   26253   26256   26259   26262   26265   26268   26271   26274   26277   26280
   26283   26286   26289   26292   26295   26298   26301   26304   26307   26310
   26313   26316   26319   26322   26325   26328   26331   26334   26337   26340
   26343   26346   26349   26352   26355   26358   26361   26364   26367   26370
   26373   26376   26379   26382   26385   26388   26391   26394   26397   26400
   26403   26406   26409   26412   26415   26418   26421   26424   26427   26430
   26433   26436   26439   26442   26445   26448   26451   26454   26457   26460
   26463   26466   26469   26472   26475   26478   26481   26484   26487   26490
   26493   26496   26499   26502   26505   26508   26511   26514   26517   26520
   26523   26526   26529   26532   26535   26538   26541   26544   26547   26550
   26553   26556   26559   26562   26565   26568   26571   26574   26577   26580
   26583   26586   26589   26592   26595   26598   26601   26604   26607   26610
   26613   26616   26619   26622   26625   26628   26631   26634   26637   26640
   26643   26646   26649   26652   26655   26658   26661   26664   26667   26670
   26673   26676   26679   26682   26685   26688   26691   26694   26697   26700
   26703   26706   26709   26712   26715   26718   26721   26724   26727   26730
   26733   26736   26739   26742   26745   26748   26751   26754   26757   26760
   26763   26766   26769   26772   26775   26778   26781   26784   26787   26790
   26793   26796   26799   26802   26805   26808   26811   26814   26817   26820
   26823   26826   26829   26832   26835   26838   26841   26844   26847   26850
   26853   26856   26859   26862   26865   26868   26871   26874   26877   26880
   26883   26886   26889   26892   26895   26898   26901   26904   26907   26910
   26913   26916   26919   26922   26925   26928   26931   26934   26937   26940
   26943   26946   26949   26952   26955   26958   26961   26964   26967   26970
   26973   26976   26979   26982   26985   26988   26991   26994   26997   27000
   27003   27006   27009   27012   27015   27018   27021   27024   27027   27030
   27033   27036   27039   27042   27045   27048   27051   27054   27057   27060
   27063   27066   27069   27072   27075   27078   27081   27084   27087   27090
   27093   27096   27099   27102   27105   27108   27111   27114   27117   27120
   27123   27126   27129   27132   27135   27138   27141   27144   27147   27150
   27153   27156   27159   27162   27165   27168   27171   27174   27177   27180
   27183   27186   27189   27192   27195   27198   27201   27204   27207   27210
   27213   27216   27219   27222   27225   27228   27231   27234   27237   27240
   27243   27246   27249   27252   27255   27258   27261   27264   27267   27270
   27273   27276   27279   27282   27285   27288   27291   27294   27297   27300
   27303   27306   27309   27312   27315   27318   27321   27324   27327   27330
   27333   27336   27339   27342   27345   27348   27351   27354   27357   27360
   27363   27366   27369   27372   27375   27378   27381   27384   27387   27390
   27393   27396   27399   27402   27405   27408   27411   27414   27417   27420
   27423   27426   27429   27432   27435   27438   27441   27444   27447   27450
   27453   27456   27459   27462   27465   27468   27471   27474   27477   27480
   27483   27486   27489   27492   27495   27498   27501   27504   27507   27510
   27513   27516   27519   27522   27525   27528   27531   27534   27537   27540
   27543   27546   27549   27552   27555   27558   27561   27564   27567   27570
   27573   27576   27579   27582   27585   27588   27591   27594   27597   27600
   27603   27606   27609   27612   27615   27618   27621   27624   27627   27630
   27633   27636   27639   27642   27645   27648   27651   27654   27657   27660
   27663   27666   27669   27672   27675   27678   27681   27684   27687   27690
   27693   27696   27699   27702   27705   27708   27711   27714   27717   27720
   27723   27726   27729   27732   27735   27738   27741   27744   27747   27750
   27753   27756   27759   27762   27765   27768   27771   27774   27777   27780
   27783   27786   27789   27792   27795   27798   27801   27804   27807   27810
   27813   27816   27819   27822   27825   27828   27831   27834   27837   27840
   27843   27846   27849   27852   27855   27858   27861   27864   27867   27870
   27873   27876   27879   27882   27885   27888   27891   27894   27897   27900
   27903   27906   27909   27912   27915   27918   27921   27924   27927   27930
   27933   27936   27939   27942   27945   27948   27951   27954   27957   27960
   27963   27966   27969   27972   27975   27978   27981   27984   27987   27990
   27993   27996   27999   28002   28005   28008   28011   28014   28017   28020
   28023   28026   28029   28032   28035   28038   28041   28044   28047   28050
   28053   28056   28059   28062   28065   28068   28071   28074   28077   28080
   28083   28086   28089   28092   28095   28098   28101   28104   28107   28110
   28113   28116   28119   28122   28125   28128   28131   28134   28137   28140
   28143   28146   28149   28152   28155   28158   28161   28164   28167   28170
   28173   28176   28179   28182   28185   28188   28191   28194   28197   28200
   28203   28206   28209   28212   28215   28218   28221   28224   28227   28230
   28233   28236   28239   28242   28245   28248   28251   28254   28257   28260
   28263   28266   28269   28272   28275   28278   28281   28284   28287   28290
   28293   28296   28299   28302   28305   28308   28311   28314   28317   28320
   28323   28326   28329   28332   28335   28338   28341   28344   28347   28350
   28353   28356   28359   28362   28365   28368   28371   28374   28377   28380
   28383   28386   28389   28392   28395   28398   28401   28404   28407   28410
   28413   28416   28419   28422   28425   28428   28431   28434   28437   28440
   28443   28446   28449   28452   28455   28458   28461   28464   28467   28470
   28473   28476   28479   28482   28485   28488   28491   28494   28497   28500
   28503   28506   28509   28512   28515   28518   28521   28524   28527   28530
   28533   28536   28539   28542   28545   28548   28551   28554   28557   28560
   28563   28566   28569   28572   28575   28578   28581   28584   28587   28590
   28593   28596   28599   28602   28605   28608   28611   28614   28617   28620
   28623   28626   28629   28632   28635   28638   28641   28644   28647   28650
   28653   28656   28659   28662   28665   28668   28671   28674   28677   28680
   28683   28686   28689   28692   28695   28698   28701   28704   28707   28710
   28713   28716   28719   28722   28725   28728   28731   28734   28737   28740
   28743   28746   28749   28752   28755   28758   28761   28764   28767   28770
   28773   28776   28779   28782   28785   28788   28791   28794   28797   28800
   28803   28806   28809   28812   28815   28818   28821   28824   28827   28830
   28833   28836   28839   28842   28845   28848   28851   28854   28857   28860
   28863   28866   28869   28872   28875   28878   28881   28884   28887   28890
   28893   28896   28899   28902   28905   28908   28911   28914   28917   28920
   28923   28926   28929   28932   28935   28938   28941   28944   28947   28950
   28953   28956   28959   28962   28965   28968   28971   28974   28977   28980
   28983   28986   28989   28992   28995   28998   29001   29004   29007   29010
   29013   29016   29019   29022   29025   29028   29031   29034   29037   29040
   29043   29046   29049   29052   29055   29058   29061   29064   29067   29070
   29073   29076   29079   29082   29085   29088   29091   29094   29097   29100
   29103   29106   29109   29112   29115   29118   29121   29124   29127   29130
   29133   29136   29139   29142   29145   29148   29151   29154   29157   29160
   29163   29166   29169   29172   29175   29178   29181   29184   29187   29190
   29193   29196   29199   29202   29205   29208   29211   29214   29217   29220
   29223   29226   29229   29232   29235   29238   29241   29244   29247   29250
   29253   29256   29259   29262   29265   29268   29271   29274   29277   29280
   29283   29286   29289   29292   29295   29298   29301   29304   29307   29310
   29313   29316   29319   29322   29325   29328   29331   29334   29337   29340
   29343   29346   29349   29352   29355   29358   29361   29364   29367   29370
   29373   29376   29379   29382   29385   29388   29391   29394   29397   29400
   29403   29406   29409   29412   29415   29418   29421   29424   29427   29430
   29433   29436   29439   29442   29445   29448   29451   29454   29457   29460
   29463   29466   29469   29472   29475   29478   29481   29484   29487   29490
   29493   29496   29499   29502   29505   29508   29511   29514   29517   29520
   29523   29526   29529   29532   29535   29538   29541   29544   29547   29550
   29553   29556   29559   29562   29565   29568   29571   29574   29577   29580
   29583   29586   29589   29592   29595   29598   29601   29604   29607   29610
   29613   29616   29619   29622   29625   29628   29631   29634   29637   29640
   29643   29646   29649   29652   29655   29658   29661   29664   29667   29670
   29673   29676   29679   29682   29685   29688   29691   29694   29697   29700
   29703   29706   29709   29712   29715   29718   29721   29724   29727   29730
   29733   29736   29739   29742   29745   29748   29751   29754   29757   29760
   29763   29766   29769   29772   29775   29778   29781   29784   29787   29790
   29793   29796   29799   29802   29805   29808   29811   29814   29817   29820
   29823   29826   29829   29832   29835   29838   29841   29844   29847   29850
   29853   29856   29859   29862   29865   29868   29871   29874   29877   29880
   29883   29886   29889   29892   29895   29898   29901   29904   29907   29910
   29913   29916   29919   29922   29925   29928   29931   29934   29937   29940
   29943   29946   29949   29952   29955   29958   29961   29964   29967   29970
   29973   29976   29979   29982   29985   29988   29991   29994   29997   30000
   30003   30006   30009   30012   30015   30018   30021   30024   30027   30030
   30033   30036   30039   30042   30045   30048   30051   30054   30057   30060
   30063   30066   30069   30072   30075   30078   30081   30084   30087   30090
   30093   30096   30099   30102   30105   30108   30111   30114   30117   30120
   30123   30126   30129   30132   30135   30138   30141   30144   30147   30150
   30153   30156   30159   30162   30165   30168   30171   30174   30177   30180
   30183   30186   30189   30192   30195   30198   30201   30204   30207   30210
   30213   30216   30219   30222   30225   30228   30231   30234   30237   30240
   30243   30246   30249   30252   30255   30258   30261   30264   30267   30270
   30273   30276   30279   30282   30285   30288   30291   30294   30297   30300
   30303   30306   30309   30312   30315   30318   30321   30324   30327   30330
   30333   30336   30339   30342   30345   30348   30351   30354   30357   30360
   30363   30366   30369   30372   30375   30378   30381   30384   30387   30390
   30393   30396   30399   30402   30405   30408   30411   30414   30417   30420
   30423   30426   30429   30432   30435   30438   30441   30444   30447   30450
   30453   30456   30459   30462   30465   30468   30471   30474   30477   30480
   30483   30486   30489   30492   30495   30498   30501   30504   30507   30510
   30513   30516   30519   30522   30525   30528   30531   30534   30537   30540
   30543   30546   30549   30552   30555   30558   30561   30564   30567   30570
   30573   30576   30579   30582   30585   30588   30591   30594   30597   30600
   30603   30606   30609   30612   30615   30618   30621   30624   30627   30630
   30633   30636   30639   30642   30645   30648   30651   30654   30657   30660
   30663   30666   30669   30672   30675   30678   30681   30684   30687   30690
   30693   30696   30699   30702   30705   30708   30711   30714   30717   30720
   30723   30726   30729   30732   30735   30738   30741   30744   30747   30750
   30753   30756   30759   30762   30765   30768   30771   30774   30777   30780
   30783   30786   30789   30792   30795   30798   30801   30804   30807   30810
   30813   30816   30819   30822   30825   30828   30831   30834   30837   30840
   30843   30846   30849   30852   30855   30858   30861   30864   30867   30870
   30873   30876   30879   30882   30885   30888   30891   30894   30897   30900
   30903   30906   30909   30912   30915   30918   30921   30924   30927   30930
   30933   30936   30939   30942   30945   30948   30951   30954   30957   30960
   30963   30966   30969   30972   30975   30978   30981   30984   30987   30990
   30993   30996   30999   31002   31005   31008   31011   31014   31017   31020
   31023   31026   31029   31032   31035   31038   31041   31044   31047   31050
   31053   31056   31059   31062   31065   31068   31071   31074   31077   31080
   31083   31086   31089   31092   31095   31098   31101   31104   31107   31110
   31113   31116   31119   31122   31125
%FLAG BOND_FORCE_CONSTANT                                                       
%FORMAT(5E16.8)                                                                 
  2.34850000E+02  3.44220000E+02  5.90600000E+02  2.28890000E+02  2.55850000E+02
  5.53000000E+02  5.53000000E+02
%FLAG BOND_EQUIL_VALUE                                                          
%FORMAT(5E16.8)                                                                 
  1.52700000E+00  1.09690000E+00  1.21900000E+00  1.53540000E+00  1.46260000E+00
  1.00000000E+00  1.63300000E+00
%FLAG ANGLE_FORCE_CONSTANT                                                      
%FORMAT(5E16.8)                                                                 
  3.56400000E+01  4.37400000E+01  7.64500000E+01  7.77500000E+01  4.32800000E+01
  1.04940000E+02  4.78400000E+01  6.49000000E+01  6.50100000E+01
%FLAG ANGLE_EQUIL_VALUE                                                         
%FORMAT(5E16.8)                                                                 
  1.89455572E+00  1.89141412E+00  2.14501057E+00  1.96209999E+00  1.91270715E+00
  2.27172153E+00  1.92143380E+00  1.97361916E+00  1.97850609E+00
%FLAG DIHEDRAL_FORCE_CONSTANT                                                   
%FORMAT(5E16.8)                                                                 
  1.55555556E-01  2.25000000E-01  8.00000000E-01  8.00000000E-02  3.00000000E-01
  7.30000000E-01  0.00000000E+00  1.10000000E+00
%FLAG DIHEDRAL_PERIODICITY                                                      
%FORMAT(5E16.8)                                                                 
  3.00000000E+00  3.00000000E+00  1.00000000E+00  3.00000000E+00  3.00000000E+00
  3.00000000E+00  2.00000000E+00  2.00000000E+00
%FLAG DIHEDRAL_PHASE                                                            
%FORMAT(5E16.8)                                                                 
  0.00000000E+00  0.00000000E+00  0.00000000E+00  3.14159400E+00  0.00000000E+00
  0.00000000E+00  3.14159400E+00  3.14159400E+00
%FLAG SCEE_SCALE_FACTOR                                                         
%FORMAT(5E16.8)                                                                 
  1.20000000E+00  1.20000000E+00  1.20000000E+00  1.20000000E+00  1.20000000E+00
  1.20000000E+00  1.20000000E+00  0.00000000E+00
%FLAG SCNB_SCALE_FACTOR                                                         
%FORMAT(5E16.8)                                                                 
  2.00000000E+00  2.00000000E+00  2.00000000E+00  2.00000000E+00  2.00000000E+00
  2.00000000E+00  2.00000000E+00  0.00000000E+00
%FLAG SOLTY                                                                     
%FORMAT(5E16.8)                                                                 
  0.00000000E+00  0.00000000E+00  0.00000000E+00  0.00000000E+00  0.00000000E+00
  0.00000000E+00  0.00000000E+00  0.00000000E+00  0.00000000E+00
%FLAG LENNARD_JONES_ACOEF                                                       
%FORMAT(5E16.8)                                                                 
  7.23647490E+05  8.59569453E+05  1.02073671E+06  5.29641935E+05  6.30925504E+05
  3.76435470E+05  7.10207765E+05  8.43969952E+05  5.17507491E+05  6.96551276E+05
  5.82112737E+04  6.97998263E+04  3.86646725E+04  5.63013422E+04  3.39005767E+03
  9.25713100E+04  1.10788920E+05  6.27093916E+04  8.97990711E+04  5.75896026E+03
  9.65100511E+03  1.37328113E+05  1.65193776E+05  8.82469964E+04  1.32165372E+05
  7.15371378E+03  1.24367956E+04  1.45119300E+04  6.78646626E+05  8.07541183E+05
  4.87785683E+05  6.64222635E+05  5.14197598E+04  8.27685158E+04  1.18861308E+05
  6.29362166E+05  0.00000000E+00  0.00000000E+00  0.00000000E+00  0.00000000E+00
  0.00000000E+00  0.00000000E+00  0.00000000E+00  0.00000000E+00  0.00000000E+00
%FLAG LENNARD_JONES_BCOEF                                                       
%FORMAT(5E16.8)                                                                 
  4.98353106E+02  5.75038595E+02  6.63431737E+02  4.87196412E+02  5.62969425E+02
  4.69350655E+02  5.11427129E+02  5.90251928E+02  4.98871431E+02  5.24668528E+02
  9.91793374E+01  1.14981426E+02  9.23664132E+01  1.01040256E+02  1.67944276E+01
  1.32739431E+02  1.53742090E+02  1.24843892E+02  1.35430064E+02  2.32315293E+01
  3.19180336E+01  3.09111378E+02  3.58934309E+02  2.83155167E+02  3.14131523E+02
  4.95045431E+01  6.92751733E+01  1.43073591E+02  5.59778906E+02  6.46487139E+02
  5.42311065E+02  5.73678972E+02  1.08119422E+02  1.45584578E+02  3.33561993E+02
  6.25267765E+02  0.00000000E+00  0.00000000E+00  0.00000000E+00  0.00000000E+00
  0.00000000E+00  0.00000000E+00  0.00000000E+00  0.00000000E+00  0.00000000E+00
%FLAG BONDS_INC_HYDROGEN                                                        
%FORMAT(10I8)                                                                   
      57      87       2      57      90       2      51      81       2      51
      84       2      45      75       2      45      78       2      39      69
       2      39      72       2      33      63       2      33      66       2
      27     111       2      27     114       2      18     105       2      18
     108       2       9      99       2       9     102       2       3      93
       2       3      96       2     126     123       6     129     123       6
     129     126       7     135     132       6     138     132       6     138
     135       7     144     141       6     147     141       6     147     144
       7     153     150       6     156     150       6     156     153       7
     162     159       6     165     159       6     165     162       7     171
     168       6     174     168       6     174     171       7     180     177
       6     183     177       6     183     180       7     189     186       6
     192     186       6     192     189       7     198     195       6     201
     195       6     201     198       7     207     204       6     210     204
       6     210     207       7     216     213       6     219     213       6
     219     216       7     225     222       6     228     222       6     228
     225       7     234     231       6     237     231       6     237     234
       7     243     240       6     246     240       6     246     243       7
     252     249       6     255     249       6     255     252       7     261
     258       6     264     258       6     264     261       7     270     267
       6     273     267       6     273     270       7     279     276       6
     282     276       6     282     279       7     288     285       6     291
     285       6     291     288       7     297     294       6     300     294
       6     300     297       7     306     303       6     309     303       6
     309     306       7     315     312       6     318     312       6     318
     315       7     324     321       6     327     321       6     327     324
       7     333     330       6     336     330       6     336     333       7
     342     339       6     345     339       6     345     342       7     351
     348       6     354     348       6     354     351       7     360     357
       6     363     357       6     363     360       7     369     366       6
     372     366       6     372     369       7     378     375       6     381
     375       6     381     378       7     387     384       6     390     384
       6     390     387       7     396     393       6     399     393       6
     399     396       7     405     402       6     408     402       6     408
     405       7     414     411       6     417     411       6     417     414
       7     423     420       6     426     420       6     426     423       7
     432     429       6     435     429       6     435     432       7     441
     438       6     444     438       6     444     441       7     450     447
       6     453     447       6     453     450       7     459     456       6
     462     456       6     462     459       7     468     465       6     471
     465       6     471     468       7     477     474       6     480     474
       6     480     477       7     486     483       6     489     483       6
     489     486       7     495     492       6     498     492       6     498
     495       7     504     501       6     507     501       6     507     504
       7     513     510       6     516     510       6     516     513       7
     522     519       6     525     519       6     525     522       7     531
     528       6     534     528       6     534     531       7     540     537
       6     543     537       6     543     540       7     549     546       6
     552     546       6     552     549       7     558     555       6     561
     555       6     561     558       7     567     564       6     570     564
       6     570     567       7     576     573       6     579     573       6
     579     576       7     585     582       6     588     582       6     588
     585       7     594     591       6     597     591       6     597     594
       7     603     600       6     606     600       6     606     603       7
     612     609       6     615     609       6     615     612       7     621
     618       6     624     618       6     624     621       7     630     627
       6     633     627       6     633     630       7     639     636       6
     642     636       6     642     639       7     648     645       6     651
     645       6     651     648       7     657     654       6     660     654
       6     660     657       7     666     663       6     669     663       6
     669     666       7     675     672       6     678     672       6     678
     675       7     684     681       6     687     681       6     687     684
       7     693     690       6     696     690       6     696     693       7
     702     699       6     705     699       6     705     702       7     711
     708       6     714     708       6     714     711       7     720     717
       6     723     717       6     723     720       7     729     726       6
     732     726       6     732     729       7     738     735       6     741
     735       6     741     738       7     747     744       6     750     744
       6     750     747       7     756     753       6     759     753       6
     759     756       7     765     762       6     768     762       6     768
     765       7     774     771       6     777     771       6     777     774
       7     783     780       6     786     780       6     786     783       7
     792     789       6     795     789       6     795     792       7     801
     798       6     804     798       6     804     801       7     810     807
       6     813     807       6     813     810       7     819     816       6
     822     816       6     822     819       7     828     825       6     831
     825       6     831     828       7     837     834       6     840     834
       6     840     837       7     846     843       6     849     843       6
     849     846       7     855     852       6     858     852       6     858
     855       7     864     861       6     867     861       6     867     864
       7     873     870       6     876     870       6     876     873       7
     882     879       6     885     879       6     885     882       7     891
     888       6     894     888       6     894     891       7     900     897
       6     903     897       6     903     900       7     909     906       6
     912     906       6     912     909       7     918     915       6     921
     915       6     921     918       7     927     924       6     930     924
       6     930     927       7     936     933       6     939     933       6
     939     936       7     945     942       6     948     942       6     948
     945       7     954     951       6     957     951       6     957     954
       7     963     960       6     966     960       6     966     963       7
     972     969       6     975     969       6     975     972       7     981
     978       6     984     978       6     984     981       7     990     987
       6     993     987       6     993     990       7     999     996       6
    1002     996       6    1002     999       7    1008    1005       6    1011
    1005       6    1011    1008       7    1017    1014       6    1020    1014
       6    1020    1017       7    1026    1023       6    1029    1023       6
    1029    1026       7    1035    1032       6    1038    1032       6    1038
    1035       7    1044    1041       6    1047    1041       6    1047    1044
       7    1053    1050       6    1056    1050       6    1056    1053       7
    1062    1059       6    1065    1059       6    1065    1062       7    1071
    1068       6    1074    1068       6    1074    1071       7    1080    1077
       6    1083    1077       6    1083    1080       7    1089    1086       6
    1092    1086       6    1092    1089       7    1098    1095       6    1101
    1095       6    1101    1098       7    1107    1104       6    1110    1104
       6    1110    1107       7    1116    1113       6    1119    1113       6
    1119    1116       7    1125    1122       6    1128    1122       6    1128
    1125       7    1134    1131       6    1137    1131       6    1137    1134
       7    1143    1140       6    1146    1140       6    1146    1143       7
    1152    1149       6    1155    1149       6    1155    1152       7    1161
    1158       6    1164    1158       6    1164    1161       7    1170    1167
       6    1173    1167       6    1173    1170       7    1179    1176       6
    1182    1176       6    1182    1179       7    1188    1185       6    1191
    1185       6    1191    1188       7    1197    1194       6    1200    1194
       6    1200    1197       7    1206    1203       6    1209    1203       6
    1209    1206       7    1215    1212       6    1218    1212       6    1218
    1215       7    1224    1221       6    1227    1221       6    1227    1224
       7    1233    1230       6    1236    1230       6    1236    1233       7
    1242    1239       6    1245    1239       6    1245    1242       7    1251
    1248       6    1254    1248       6    1254    1251       7    1260    1257
       6    1263    1257       6    1263    1260       7    1269    1266       6
    1272    1266       6    1272    1269       7    1278    1275       6    1281
    1275       6    1281    1278       7    1287    1284       6    1290    1284
       6    1290    1287       7    1296    1293       6    1299    1293       6
    1299    1296       7    1305    1302       6    1308    1302       6    1308
    1305       7    1314    1311       6    1317    1311       6    1317    1314
       7    1323    1320       6    1326    1320       6    1326    1323       7
    1332    1329       6    1335    1329       6    1335    1332       7    1341
    1338       6    1344    1338       6    1344    1341       7    1350    1347
       6    1353    1347       6    1353    1350       7    1359    1356       6
    1362    1356       6    1362    1359       7    1368    1365       6    1371
    1365       6    1371    1368       7    1377    1374       6    1380    1374
       6    1380    1377       7    1386    1383       6    1389    1383       6
    1389    1386       7    1395    1392       6    1398    1392       6    1398
    1395       7    1404    1401       6    1407    1401       6    1407    1404
       7    1413    1410       6    1416    1410       6    1416    1413       7
    1422    1419       6    1425    1419       6    1425    1422       7    1431
    1428       6    1434    1428       6    1434    1431       7    1440    1437
       6    1443    1437       6    1443    1440       7    1449    1446       6
    1452    1446       6    1452    1449       7    1458    1455       6    1461
    1455       6    1461    1458       7    1467    1464       6    1470    1464
       6    1470    1467       7    1476    1473       6    1479    1473       6
    1479    1476       7    1485    1482       6    1488    1482       6    1488
    1485       7    1494    1491       6    1497    1491       6    1497    1494
       7    1503    1500       6    1506    1500       6    1506    1503       7
    1512    1509       6    1515    1509       6    1515    1512       7    1521
    1518       6    1524    1518       6    1524    1521       7    1530    1527
       6    1533    1527       6    1533    1530       7    1539    1536       6
    1542    1536       6    1542    1539       7    1548    1545       6    1551
    1545       6    1551    1548       7    1557    1554       6    1560    1554
       6    1560    1557       7    1566    1563       6    1569    1563       6
    1569    1566       7    1575    1572       6    1578    1572       6    1578
    1575       7    1584    1581       6    1587    1581       6    1587    1584
       7    1593    1590       6    1596    1590       6    1596    1593       7
    1602    1599       6    1605    1599       6    1605    1602       7    1611
    1608       6    1614    1608       6    1614    1611       7    1620    1617
       6    1623    1617       6    1623    1620       7    1629    1626       6
    1632    1626       6    1632    1629       7    1638    1635       6    1641
    1635       6    1641    1638       7    1647    1644       6    1650    1644
       6    1650    1647       7    1656    1653       6    1659    1653       6
    1659    1656       7    1665    1662       6    1668    1662       6    1668
    1665       7    1674    1671       6    1677    1671       6    1677    1674
       7    1683    1680       6    1686    1680       6    1686    1683       7
    1692    1689       6    1695    1689       6    1695    1692       7    1701
    1698       6    1704    1698       6    1704    1701       7    1710    1707
       6    1713    1707       6    1713    1710       7    1719    1716       6
    1722    1716       6    1722    1719       7    1728    1725       6    1731
    1725       6    1731    1728       7    1737    1734       6    1740    1734
       6    1740    1737       7    1746    1743       6    1749    1743       6
    1749    1746       7    1755    1752       6    1758    1752       6    1758
    1755       7    1764    1761       6    1767    1761       6    1767    1764
       7    1773    1770       6    1776    1770       6    1776    1773       7
    1782    1779       6    1785    1779       6    1785    1782       7    1791
    1788       6    1794    1788       6    1794    1791       7    1800    1797
       6    1803    1797       6    1803    1800       7    1809    1806       6
    1812    1806       6    1812    1809       7    1818    1815       6    1821
    1815       6    1821    1818       7    1827    1824       6    1830    1824
       6    1830    1827       7    1836    1833       6    1839    1833       6
    1839    1836       7    1845    1842       6    1848    1842       6    1848
    1845       7    1854    1851       6    1857    1851       6    1857    1854
       7    1863    1860       6    1866    1860       6    1866    1863       7
    1872    1869       6    1875    1869       6    1875    1872       7    1881
    1878       6    1884    1878       6    1884    1881       7    1890    1887
       6    1893    1887       6    1893    1890       7    1899    1896       6
    1902    1896       6    1902    1899       7    1908    1905       6    1911
    1905       6    1911    1908       7    1917    1914       6    1920    1914
       6    1920    1917       7    1926    1923       6    1929    1923       6
    1929    1926       7    1935    1932       6    1938    1932       6    1938
    1935       7    1944    1941       6    1947    1941       6    1947    1944
       7    1953    1950       6    1956    1950       6    1956    1953       7
    1962    1959       6    1965    1959       6    1965    1962       7    1971
    1968       6    1974    1968       6    1974    1971       7    1980    1977
       6    1983    1977       6    1983    1980       7    1989    1986       6
    1992    1986       6    1992    1989       7    1998    1995       6    2001
    1995       6    2001    1998       7    2007    2004       6    2010    2004
       6    2010    2007       7    2016    2013       6    2019    2013       6
    2019    2016       7    2025    2022       6    2028    2022       6    2028
    2025       7    2034    2031       6    2037    2031       6    2037    2034
       7    2043    2040       6    2046    2040       6    2046    2043       7
    2052    2049       6    2055    2049       6    2055    2052       7    2061
    2058       6    2064    2058       6    2064    2061       7    2070    2067
       6    2073    2067       6    2073    2070       7    2079    2076       6
    2082    2076       6    2082    2079       7    2088    2085       6    2091
    2085       6    2091    2088       7    2097    2094       6    2100    2094
       6    2100    2097       7    2106    2103       6    2109    2103       6
    2109    2106       7    2115    2112       6    2118    2112       6    2118
    2115       7    2124    2121       6    2127    2121       6    2127    2124
       7    2133    2130       6    2136    2130       6    2136    2133       7
    2142    2139       6    2145    2139       6    2145    2142       7    2151
    2148       6    2154    2148       6    2154    2151       7    2160    2157
       6    2163    2157       6    2163    2160       7    2169    2166       6
    2172    2166       6    2172    2169       7    2178    2175       6    2181
    2175       6    2181    2178       7    2187    2184       6    2190    2184
       6    2190    2187       7    2196    2193       6    2199    2193       6
    2199    2196       7    2205    2202       6    2208    2202       6    2208
    2205       7    2214    2211       6    2217    2211       6    2217    2214
       7    2223    2220       6    2226    2220       6    2226    2223       7
    2232    2229       6    2235    2229       6    2235    2232       7    2241
    2238       6    2244    2238       6    2244    2241       7    2250    2247
       6    2253    2247       6    2253    2250       7    2259    2256       6
    2262    2256       6    2262    2259       7    2268    2265       6    2271
    2265       6    2271    2268       7    2277    2274       6    2280    2274
       6    2280    2277       7    2286    2283       6    2289    2283       6
    2289    2286       7    2295    2292       6    2298    2292       6    2298
    2295       7    2304    2301       6    2307    2301       6    2307    2304
       7    2313    2310       6    2316    2310       6    2316    2313       7
    2322    2319       6    2325    2319       6    2325    2322       7    2331
    2328       6    2334    2328       6    2334    2331       7    2340    2337
       6    2343    2337       6    2343    2340       7    2349    2346       6
    2352    2346       6    2352    2349       7    2358    2355       6    2361
    2355       6    2361    2358       7    2367    2364       6    2370    2364
       6    2370    2367       7    2376    2373       6    2379    2373       6
    2379    2376       7    2385    2382       6    2388    2382       6    2388
    2385       7    2394    2391       6    2397    2391       6    2397    2394
       7    2403    2400       6    2406    2400       6    2406    2403       7
    2412    2409       6    2415    2409       6    2415    2412       7    2421
    2418       6    2424    2418       6    2424    2421       7    2430    2427
       6    2433    2427       6    2433    2430       7    2439    2436       6
    2442    2436       6    2442    2439       7    2448    2445       6    2451
    2445       6    2451    2448       7    2457    2454       6    2460    2454
       6    2460    2457       7    2466    2463       6    2469    2463       6
    2469    2466       7    2475    2472       6    2478    2472       6    2478
    2475       7    2484    2481       6    2487    2481       6    2487    2484
       7    2493    2490       6    2496    2490       6    2496    2493       7
    2502    2499       6    2505    2499       6    2505    2502       7    2511
    2508       6    2514    2508       6    2514    2511       7    2520    2517
       6    2523    2517       6    2523    2520       7    2529    2526       6
    2532    2526       6    2532    2529       7    2538    2535       6    2541
    2535       6    2541    2538       7    2547    2544       6    2550    2544
       6    2550    2547       7    2556    2553       6    2559    2553       6
    2559    2556       7    2565    2562       6    2568    2562       6    2568
    2565       7    2574    2571       6    2577    2571       6    2577    2574
       7    2583    2580       6    2586    2580       6    2586    2583       7
    2592    2589       6    2595    2589       6    2595    2592       7    2601
    2598       6    2604    2598       6    2604    2601       7    2610    2607
       6    2613    2607       6    2613    2610       7    2619    2616       6
    2622    2616       6    2622    2619       7    2628    2625       6    2631
    2625       6    2631    2628       7    2637    2634       6    2640    2634
       6    2640    2637       7    2646    2643       6    2649    2643       6
    2649    2646       7    2655    2652       6    2658    2652       6    2658
    2655       7    2664    2661       6    2667    2661       6    2667    2664
       7    2673    2670       6    2676    2670       6    2676    2673       7
    2682    2679       6    2685    2679       6    2685    2682       7    2691
    2688       6    2694    2688       6    2694    2691       7    2700    2697
       6    2703    2697       6    2703    2700       7    2709    2706       6
    2712    2706       6    2712    2709       7    2718    2715       6    2721
    2715       6    2721    2718       7    2727    2724       6    2730    2724
       6    2730    2727       7    2736    2733       6    2739    2733       6
    2739    2736       7    2745    2742       6    2748    2742       6    2748
    2745       7    2754    2751       6    2757    2751       6    2757    2754
       7    2763    2760       6    2766    2760       6    2766    2763       7
    2772    2769       6    2775    2769       6    2775    2772       7    2781
    2778       6    2784    2778       6    2784    2781       7    2790    2787
       6    2793    2787       6    2793    2790       7    2799    2796       6
    2802    2796       6    2802    2799       7    2808    2805       6    2811
    2805       6    2811    2808       7    2817    2814       6    2820    2814
       6    2820    2817       7    2826    2823       6    2829    2823       6
    2829    2826       7    2835    2832       6    2838    2832       6    2838
    2835       7    2844    2841       6    2847    2841       6    2847    2844
       7    2853    2850       6    2856    2850       6    2856    2853       7
    2862    2859       6    2865    2859       6    2865    2862       7    2871
    2868       6    2874    2868       6    2874    2871       7    2880    2877
       6    2883    2877       6    2883    2880       7    2889    2886       6
    2892    2886       6    2892    2889       7    2898    2895       6    2901
    2895       6    2901    2898       7    2907    2904       6    2910    2904
       6    2910    2907       7    2916    2913       6    2919    2913       6
    2919    2916       7    2925    2922       6    2928    2922       6    2928
    2925       7    2934    2931       6    2937    2931       6    2937    2934
       7    2943    2940       6    2946    2940       6    2946    2943       7
    2952    2949       6    2955    2949       6    2955    2952       7    2961
    2958       6    2964    2958       6    2964    2961       7    2970    2967
       6    2973    2967       6    2973    2970       7    2979    2976       6
    2982    2976       6    2982    2979       7    2988    2985       6    2991
    2985       6    2991    2988       7    2997    2994       6    3000    2994
       6    3000    2997       7    3006    3003       6    3009    3003       6
    3009    3006       7    3015    3012       6    3018    3012       6    3018
    3015       7    3024    3021       6    3027    3021       6    3027    3024
       7    3033    3030       6    3036    3030       6    3036    3033       7
    3042    3039       6    3045    3039       6    3045    3042       7    3051
    3048       6    3054    3048       6    3054    3051       7    3060    3057
       6    3063    3057       6    3063    3060       7    3069    3066       6
    3072    3066       6    3072    3069       7    3078    3075       6    3081
    3075       6    3081    3078       7    3087    3084       6    3090    3084
       6    3090    3087       7    3096    3093       6    3099    3093       6
    3099    3096       7    3105    3102       6    3108    3102       6    3108
    3105       7    3114    3111       6    3117    3111       6    3117    3114
       7    3123    3120       6    3126    3120       6    3126    3123       7
    3132    3129       6    3135    3129       6    3135    3132       7    3141
    3138       6    3144    3138       6    3144    3141       7    3150    3147
       6    3153    3147       6    3153    3150       7    3159    3156       6
    3162    3156       6    3162    3159       7    3168    3165       6    3171
    3165       6    3171    3168       7    3177    3174       6    3180    3174
       6    3180    3177       7    3186    3183       6    3189    3183       6
    3189    3186       7    3195    3192       6    3198    3192       6    3198
    3195       7    3204    3201       6    3207    3201       6    3207    3204
       7    3213    3210       6    3216    3210       6    3216    3213       7
    3222    3219       6    3225    3219       6    3225    3222       7    3231
    3228       6    3234    3228       6    3234    3231       7    3240    3237
       6    3243    3237       6    3243    3240       7    3249    3246       6
    3252    3246       6    3252    3249       7    3258    3255       6    3261
    3255       6    3261    3258       7    3267    3264       6    3270    3264
       6    3270    3267       7    3276    3273       6    3279    3273       6
    3279    3276       7    3285    3282       6    3288    3282       6    3288
    3285       7    3294    3291       6    3297    3291       6    3297    3294
       7    3303    3300       6    3306    3300       6    3306    3303       7
    3312    3309       6    3315    3309       6    3315    3312       7    3321
    3318       6    3324    3318       6    3324    3321       7    3330    3327
       6    3333    3327       6    3333    3330       7    3339    3336       6
    3342    3336       6    3342    3339       7    3348    3345       6    3351
    3345       6    3351    3348       7    3357    3354       6    3360    3354
       6    3360    3357       7    3366    3363       6    3369    3363       6
    3369    3366       7    3375    3372       6    3378    3372       6    3378
    3375       7    3384    3381       6    3387    3381       6    3387    3384
       7    3393    3390       6    3396    3390       6    3396    3393       7
    3402    3399       6    3405    3399       6    3405    3402       7    3411
    3408       6    3414    3408       6    3414    3411       7    3420    3417
       6    3423    3417       6    3423    3420       7    3429    3426       6
    3432    3426       6    3432    3429       7    3438    3435       6    3441
    3435       6    3441    3438       7    3447    3444       6    3450    3444
       6    3450    3447       7    3456    3453       6    3459    3453       6
    3459    3456       7    3465    3462       6    3468    3462       6    3468
    3465       7    3474    3471       6    3477    3471       6    3477    3474
       7    3483    3480       6    3486    3480       6    3486    3483       7
    3492    3489       6    3495    3489       6    3495    3492       7    3501
    3498       6    3504    3498       6    3504    3501       7    3510    3507
       6    3513    3507       6    3513    3510       7    3519    3516       6
    3522    3516       6    3522    3519       7    3528    3525       6    3531
    3525       6    3531    3528       7    3537    3534       6    3540    3534
       6    3540    3537       7    3546    3543       6    3549    3543       6
    3549    3546       7    3555    3552       6    3558    3552       6    3558
    3555       7    3564    3561       6    3567    3561       6    3567    3564
       7    3573    3570       6    3576    3570       6    3576    3573       7
    3582    3579       6    3585    3579       6    3585    3582       7    3591
    3588       6    3594    3588       6    3594    3591       7    3600    3597
       6    3603    3597       6    3603    3600       7    3609    3606       6
    3612    3606       6    3612    3609       7    3618    3615       6    3621
    3615       6    3621    3618       7    3627    3624       6    3630    3624
       6    3630    3627       7    3636    3633       6    3639    3633       6
    3639    3636       7    3645    3642       6    3648    3642       6    3648
    3645       7    3654    3651       6    3657    3651       6    3657    3654
       7    3663    3660       6    3666    3660       6    3666    3663       7
    3672    3669       6    3675    3669       6    3675    3672       7    3681
    3678       6    3684    3678       6    3684    3681       7    3690    3687
       6    3693    3687       6    3693    3690       7    3699    3696       6
    3702    3696       6    3702    3699       7    3708    3705       6    3711
    3705       6    3711    3708       7    3717    3714       6    3720    3714
       6    3720    3717       7    3726    3723       6    3729    3723       6
    3729    3726       7    3735    3732       6    3738    3732       6    3738
    3735       7    3744    3741       6    3747    3741       6    3747    3744
       7    3753    3750       6    3756    3750       6    3756    3753       7
    3762    3759       6    3765    3759       6    3765    3762       7    3771
    3768       6    3774    3768       6    3774    3771       7    3780    3777
       6    3783    3777       6    3783    3780       7    3789    3786       6
    3792    3786       6    3792    3789       7    3798    3795       6    3801
    3795       6    3801    3798       7    3807    3804       6    3810    3804
       6    3810    3807       7    3816    3813       6    3819    3813       6
    3819    3816       7    3825    3822       6    3828    3822       6    3828
    3825       7    3834    3831       6    3837    3831       6    3837    3834
       7    3843    3840       6    3846    3840       6    3846    3843       7
    3852    3849       6    3855    3849       6    3855    3852       7    3861
    3858       6    3864    3858       6    3864    3861       7    3870    3867
       6    3873    3867       6    3873    3870       7    3879    3876       6
    3882    3876       6    3882    3879       7    3888    3885       6    3891
    3885       6    3891    3888       7    3897    3894       6    3900    3894
       6    3900    3897       7    3906    3903       6    3909    3903       6
    3909    3906       7    3915    3912       6    3918    3912       6    3918
    3915       7    3924    3921       6    3927    3921       6    3927    3924
       7    3933    3930       6    3936    3930       6    3936    3933       7
    3942    3939       6    3945    3939       6    3945    3942       7    3951
    3948       6    3954    3948       6    3954    3951       7    3960    3957
       6    3963    3957       6    3963    3960       7    3969    3966       6
    3972    3966       6    3972    3969       7    3978    3975       6    3981
    3975       6    3981    3978       7    3987    3984       6    3990    3984
       6    3990    3987       7    3996    3993       6    3999    3993       6
    3999    3996       7    4005    4002       6    4008    4002       6    4008
    4005       7    4014    4011       6    4017    4011       6    4017    4014
       7    4023    4020       6    4026    4020       6    4026    4023       7
    4032    4029       6    4035    4029       6    4035    4032       7    4041
    4038       6    4044    4038       6    4044    4041       7    4050    4047
       6    4053    4047       6    4053    4050       7    4059    4056       6
    4062    4056       6    4062    4059       7    4068    4065       6    4071
    4065       6    4071    4068       7    4077    4074       6    4080    4074
       6    4080    4077       7    4086    4083       6    4089    4083       6
    4089    4086       7    4095    4092       6    4098    4092       6    4098
    4095       7    4104    4101       6    4107    4101       6    4107    4104
       7    4113    4110       6    4116    4110       6    4116    4113       7
    4122    4119       6    4125    4119       6    4125    4122       7    4131
    4128       6    4134    4128       6    4134    4131       7    4140    4137
       6    4143    4137       6    4143    4140       7    4149    4146       6
    4152    4146       6    4152    4149       7    4158    4155       6    4161
    4155       6    4161    4158       7    4167    4164       6    4170    4164
       6    4170    4167       7    4176    4173       6    4179    4173       6
    4179    4176       7    4185    4182       6    4188    4182       6    4188
    4185       7    4194    4191       6    4197    4191       6    4197    4194
       7    4203    4200       6    4206    4200       6    4206    4203       7
    4212    4209       6    4215    4209       6    4215    4212       7    4221
    4218       6    4224    4218       6    4224    4221       7    4230    4227
       6    4233    4227       6    4233    4230       7    4239    4236       6
    4242    4236       6    4242    4239       7    4248    4245       6    4251
    4245       6    4251    4248       7    4257    4254       6    4260    4254
       6    4260    4257       7    4266    4263       6    4269    4263       6
    4269    4266       7    4275    4272       6    4278    4272       6    4278
    4275       7    4284    4281       6    4287    4281       6    4287    4284
       7    4293    4290       6    4296    4290       6    4296    4293       7
    4302    4299       6    4305    4299       6    4305    4302       7    4311
    4308       6    4314    4308       6    4314    4311       7    4320    4317
       6    4323    4317       6    4323    4320       7    4329    4326       6
    4332    4326       6    4332    4329       7    4338    4335       6    4341
    4335       6    4341    4338       7    4347    4344       6    4350    4344
       6    4350    4347       7    4356    4353       6    4359    4353       6
    4359    4356       7    4365    4362       6    4368    4362       6    4368
    4365       7    4374    4371       6    4377    4371       6    4377    4374
       7    4383    4380       6    4386    4380       6    4386    4383       7
    4392    4389       6    4395    4389       6    4395    4392       7    4401
    4398       6    4404    4398       6    4404    4401       7    4410    4407
       6    4413    4407       6    4413    4410       7    4419    4416       6
    4422    4416       6    4422    4419       7    4428    4425       6    4431
    4425       6    4431    4428       7    4437    4434       6    4440    4434
       6    4440    4437       7    4446    4443       6    4449    4443       6
    4449    4446       7    4455    4452       6    4458    4452       6    4458
    4455       7    4464    4461       6    4467    4461       6    4467    4464
       7    4473    4470       6    4476    4470       6    4476    4473       7
    4482    4479       6    4485    4479       6    4485    4482       7    4491
    4488       6    4494    4488       6    4494    4491       7    4500    4497
       6    4503    4497       6    4503    4500       7    4509    4506       6
    4512    4506       6    4512    4509       7    4518    4515       6    4521
    4515       6    4521    4518       7    4527    4524       6    4530    4524
       6    4530    4527       7    4536    4533       6    4539    4533       6
    4539    4536       7    4545    4542       6    4548    4542       6    4548
    4545       7    4554    4551       6    4557    4551       6    4557    4554
       7    4563    4560       6    4566    4560       6    4566    4563       7
    4572    4569       6    4575    4569       6    4575    4572       7    4581
    4578       6    4584    4578       6    4584    4581       7    4590    4587
       6    4593    4587       6    4593    4590       7    4599    4596       6
    4602    4596       6    4602    4599       7    4608    4605       6    4611
    4605       6    4611    4608       7    4617    4614       6    4620    4614
       6    4620    4617       7    4626    4623       6    4629    4623       6
    4629    4626       7    4635    4632       6    4638    4632       6    4638
    4635       7    4644    4641       6    4647    4641       6    4647    4644
       7    4653    4650       6    4656    4650       6    4656    4653       7
    4662    4659       6    4665    4659       6    4665    4662       7    4671
    4668       6    4674    4668       6    4674    4671       7    4680    4677
       6    4683    4677       6    4683    4680       7    4689    4686       6
    4692    4686       6    4692    4689       7    4698    4695       6    4701
    4695       6    4701    4698       7    4707    4704       6    4710    4704
       6    4710    4707       7    4716    4713       6    4719    4713       6
    4719    4716       7    4725    4722       6    4728    4722       6    4728
    4725       7    4734    4731       6    4737    4731       6    4737    4734
       7    4743    4740       6    4746    4740       6    4746    4743       7
    4752    4749       6    4755    4749       6    4755    4752       7    4761
    4758       6    4764    4758       6    4764    4761       7    4770    4767
       6    4773    4767       6    4773    4770       7    4779    4776       6
    4782    4776       6    4782    4779       7    4788    4785       6    4791
    4785       6    4791    4788       7    4797    4794       6    4800    4794
       6    4800    4797       7    4806    4803       6    4809    4803       6
    4809    4806       7    4815    4812       6    4818    4812       6    4818
    4815       7    4824    4821       6    4827    4821       6    4827    4824
       7    4833    4830       6    4836    4830       6    4836    4833       7
    4842    4839       6    4845    4839       6    4845    4842       7    4851
    4848       6    4854    4848       6    4854    4851       7    4860    4857
       6    4863    4857       6    4863    4860       7    4869    4866       6
    4872    4866       6    4872    4869       7    4878    4875       6    4881
    4875       6    4881    4878       7    4887    4884       6    4890    4884
       6    4890    4887       7    4896    4893       6    4899    4893       6
    4899    4896       7    4905    4902       6    4908    4902       6    4908
    4905       7    4914    4911       6    4917    4911       6    4917    4914
       7    4923    4920       6    4926    4920       6    4926    4923       7
    4932    4929       6    4935    4929       6    4935    4932       7    4941
    4938       6    4944    4938       6    4944    4941       7    4950    4947
       6    4953    4947       6    4953    4950       7    4959    4956       6
    4962    4956       6    4962    4959       7    4968    4965       6    4971
    4965       6    4971    4968       7    4977    4974       6    4980    4974
       6    4980    4977       7    4986    4983       6    4989    4983       6
    4989    4986       7    4995    4992       6    4998    4992       6    4998
    4995       7    5004    5001       6    5007    5001       6    5007    5004
       7    5013    5010       6    5016    5010       6    5016    5013       7
    5022    5019       6    5025    5019       6    5025    5022       7    5031
    5028       6    5034    5028       6    5034    5031       7    5040    5037
       6    5043    5037       6    5043    5040       7    5049    5046       6
    5052    5046       6    5052    5049       7    5058    5055       6    5061
    5055       6    5061    5058       7    5067    5064       6    5070    5064
       6    5070    5067       7    5076    5073       6    5079    5073       6
    5079    5076       7    5085    5082       6    5088    5082       6    5088
    5085       7    5094    5091       6    5097    5091       6    5097    5094
       7    5103    5100       6    5106    5100       6    5106    5103       7
    5112    5109       6    5115    5109       6    5115    5112       7    5121
    5118       6    5124    5118       6    5124    5121       7    5130    5127
       6    5133    5127       6    5133    5130       7    5139    5136       6
    5142    5136       6    5142    5139       7    5148    5145       6    5151
    5145       6    5151    5148       7    5157    5154       6    5160    5154
       6    5160    5157       7    5166    5163       6    5169    5163       6
    5169    5166       7    5175    5172       6    5178    5172       6    5178
    5175       7    5184    5181       6    5187    5181       6    5187    5184
       7    5193    5190       6    5196    5190       6    5196    5193       7
    5202    5199       6    5205    5199       6    5205    5202       7    5211
    5208       6    5214    5208       6    5214    5211       7    5220    5217
       6    5223    5217       6    5223    5220       7    5229    5226       6
    5232    5226       6    5232    5229       7    5238    5235       6    5241
    5235       6    5241    5238       7    5247    5244       6    5250    5244
       6    5250    5247       7    5256    5253       6    5259    5253       6
    5259    5256       7    5265    5262       6    5268    5262       6    5268
    5265       7    5274    5271       6    5277    5271       6    5277    5274
       7    5283    5280       6    5286    5280       6    5286    5283       7
    5292    5289       6    5295    5289       6    5295    5292       7    5301
    5298       6    5304    5298       6    5304    5301       7    5310    5307
       6    5313    5307       6    5313    5310       7    5319    5316       6
    5322    5316       6    5322    5319       7    5328    5325       6    5331
    5325       6    5331    5328       7    5337    5334       6    5340    5334
       6    5340    5337       7    5346    5343       6    5349    5343       6
    5349    5346       7    5355    5352       6    5358    5352       6    5358
    5355       7    5364    5361       6    5367    5361       6    5367    5364
       7    5373    5370       6    5376    5370       6    5376    5373       7
    5382    5379       6    5385    5379       6    5385    5382       7    5391
    5388       6    5394    5388       6    5394    5391       7    5400    5397
       6    5403    5397       6    5403    5400       7    5409    5406       6
    5412    5406       6    5412    5409       7    5418    5415       6    5421
    5415       6    5421    5418       7    5427    5424       6    5430    5424
       6    5430    5427       7    5436    5433       6    5439    5433       6
    5439    5436       7    5445    5442       6    5448    5442       6    5448
    5445       7    5454    5451       6    5457    5451       6    5457    5454
       7    5463    5460       6    5466    5460       6    5466    5463       7
    5472    5469       6    5475    5469       6    5475    5472       7    5481
    5478       6    5484    5478       6    5484    5481       7    5490    5487
       6    5493    5487       6    5493    5490       7    5499    5496       6
    5502    5496       6    5502    5499       7    5508    5505       6    5511
    5505       6    5511    5508       7    5517    5514       6    5520    5514
       6    5520    5517       7    5526    5523       6    5529    5523       6
    5529    5526       7    5535    5532       6    5538    5532       6    5538
    5535       7    5544    5541       6    5547    5541       6    5547    5544
       7    5553    5550       6    5556    5550       6    5556    5553       7
    5562    5559       6    5565    5559       6    5565    5562       7    5571
    5568       6    5574    5568       6    5574    5571       7    5580    5577
       6    5583    5577       6    5583    5580       7    5589    5586       6
    5592    5586       6    5592    5589       7    5598    5595       6    5601
    5595       6    5601    5598       7    5607    5604       6    5610    5604
       6    5610    5607       7    5616    5613       6    5619    5613       6
    5619    5616       7    5625    5622       6    5628    5622       6    5628
    5625       7    5634    5631       6    5637    5631       6    5637    5634
       7    5643    5640       6    5646    5640       6    5646    5643       7
    5652    5649       6    5655    5649       6    5655    5652       7    5661
    5658       6    5664    5658       6    5664    5661       7    5670    5667
       6    5673    5667       6    5673    5670       7    5679    5676       6
    5682    5676       6    5682    5679       7    5688    5685       6    5691
    5685       6    5691    5688       7    5697    5694       6    5700    5694
       6    5700    5697       7    5706    5703       6    5709    5703       6
    5709    5706       7    5715    5712       6    5718    5712       6    5718
    5715       7    5724    5721       6    5727    5721       6    5727    5724
       7    5733    5730       6    5736    5730       6    5736    5733       7
    5742    5739       6    5745    5739       6    5745    5742       7    5751
    5748       6    5754    5748       6    5754    5751       7    5760    5757
       6    5763    5757       6    5763    5760       7    5769    5766       6
    5772    5766       6    5772    5769       7    5778    5775       6    5781
    5775       6    5781    5778       7    5787    5784       6    5790    5784
       6    5790    5787       7    5796    5793       6    5799    5793       6
    5799    5796       7    5805    5802       6    5808    5802       6    5808
    5805       7    5814    5811       6    5817    5811       6    5817    5814
       7    5823    5820       6    5826    5820       6    5826    5823       7
    5832    5829       6    5835    5829       6    5835    5832       7    5841
    5838       6    5844    5838       6    5844    5841       7    5850    5847
       6    5853    5847       6    5853    5850       7    5859    5856       6
    5862    5856       6    5862    5859       7    5868    5865       6    5871
    5865       6    5871    5868       7    5877    5874       6    5880    5874
       6    5880    5877       7    5886    5883       6    5889    5883       6
    5889    5886       7    5895    5892       6    5898    5892       6    5898
    5895       7    5904    5901       6    5907    5901       6    5907    5904
       7    5913    5910       6    5916    5910       6    5916    5913       7
    5922    5919       6    5925    5919       6    5925    5922       7    5931
    5928       6    5934    5928       6    5934    5931       7    5940    5937
       6    5943    5937       6    5943    5940       7    5949    5946       6
    5952    5946       6    5952    5949       7    5958    5955       6    5961
    5955       6    5961    5958       7    5967    5964       6    5970    5964
       6    5970    5967       7    5976    5973       6    5979    5973       6
    5979    5976       7    5985    5982       6    5988    5982       6    5988
    5985       7    5994    5991       6    5997    5991       6    5997    5994
       7    6003    6000       6    6006    6000       6    6006    6003       7
    6012    6009       6    6015    6009       6    6015    6012       7    6021
    6018       6    6024    6018       6    6024    6021       7    6030    6027
       6    6033    6027       6    6033    6030       7    6039    6036       6
    6042    6036       6    6042    6039       7    6048    6045       6    6051
    6045       6    6051    6048       7    6057    6054       6    6060    6054
       6    6060    6057       7    6066    6063       6    6069    6063       6
    6069    6066       7    6075    6072       6    6078    6072       6    6078
    6075       7    6084    6081       6    6087    6081       6    6087    6084
       7    6093    6090       6    6096    6090       6    6096    6093       7
    6102    6099       6    6105    6099       6    6105    6102       7    6111
    6108       6    6114    6108       6    6114    6111       7    6120    6117
       6    6123    6117       6    6123    6120       7    6129    6126       6
    6132    6126       6    6132    6129       7    6138    6135       6    6141
    6135       6    6141    6138       7    6147    6144       6    6150    6144
       6    6150    6147       7    6156    6153       6    6159    6153       6
    6159    6156       7    6165    6162       6    6168    6162       6    6168
    6165       7    6174    6171       6    6177    6171       6    6177    6174
       7    6183    6180       6    6186    6180       6    6186    6183       7
    6192    6189       6    6195    6189       6    6195    6192       7    6201
    6198       6    6204    6198       6    6204    6201       7    6210    6207
       6    6213    6207       6    6213    6210       7    6219    6216       6
    6222    6216       6    6222    6219       7    6228    6225       6    6231
    6225       6    6231    6228       7    6237    6234       6    6240    6234
       6    6240    6237       7    6246    6243       6    6249    6243       6
    6249    6246       7    6255    6252       6    6258    6252       6    6258
    6255       7    6264    6261       6    6267    6261       6    6267    6264
       7    6273    6270       6    6276    6270       6    6276    6273       7
    6282    6279       6    6285    6279       6    6285    6282       7    6291
    6288       6    6294    6288       6    6294    6291       7    6300    6297
       6    6303    6297       6    6303    6300       7    6309    6306       6
    6312    6306       6    6312    6309       7    6318    6315       6    6321
    6315       6    6321    6318       7    6327    6324       6    6330    6324
       6    6330    6327       7    6336    6333       6    6339    6333       6
    6339    6336       7    6345    6342       6    6348    6342       6    6348
    6345       7    6354    6351       6    6357    6351       6    6357    6354
       7    6363    6360       6    6366    6360       6    6366    6363       7
    6372    6369       6    6375    6369       6    6375    6372       7    6381
    6378       6    6384    6378       6    6384    6381       7    6390    6387
       6    6393    6387       6    6393    6390       7    6399    6396       6
    6402    6396       6    6402    6399       7    6408    6405       6    6411
    6405       6    6411    6408       7    6417    6414       6    6420    6414
       6    6420    6417       7    6426    6423       6    6429    6423       6
    6429    6426       7    6435    6432       6    6438    6432       6    6438
    6435       7    6444    6441       6    6447    6441       6    6447    6444
       7    6453    6450       6    6456    6450       6    6456    6453       7
    6462    6459       6    6465    6459       6    6465    6462       7    6471
    6468       6    6474    6468       6    6474    6471       7    6480    6477
       6    6483    6477       6    6483    6480       7    6489    6486       6
    6492    6486       6    6492    6489       7    6498    6495       6    6501
    6495       6    6501    6498       7    6507    6504       6    6510    6504
       6    6510    6507       7    6516    6513       6    6519    6513       6
    6519    6516       7    6525    6522       6    6528    6522       6    6528
    6525       7    6534    6531       6    6537    6531       6    6537    6534
       7    6543    6540       6    6546    6540       6    6546    6543       7
    6552    6549       6    6555    6549       6    6555    6552       7    6561
    6558       6    6564    6558       6    6564    6561       7    6570    6567
       6    6573    6567       6    6573    6570       7    6579    6576       6
    6582    6576       6    6582    6579       7    6588    6585       6    6591
    6585       6    6591    6588       7    6597    6594       6    6600    6594
       6    6600    6597       7    6606    6603       6    6609    6603       6
    6609    6606       7    6615    6612       6    6618    6612       6    6618
    6615       7    6624    6621       6    6627    6621       6    6627    6624
       7    6633    6630       6    6636    6630       6    6636    6633       7
    6642    6639       6    6645    6639       6    6645    6642       7    6651
    6648       6    6654    6648       6    6654    6651       7    6660    6657
       6    6663    6657       6    6663    6660       7    6669    6666       6
    6672    6666       6    6672    6669       7    6678    6675       6    6681
    6675       6    6681    6678       7    6687    6684       6    6690    6684
       6    6690    6687       7    6696    6693       6    6699    6693       6
    6699    6696       7    6705    6702       6    6708    6702       6    6708
    6705       7    6714    6711       6    6717    6711       6    6717    6714
       7    6723    6720       6    6726    6720       6    6726    6723       7
    6732    6729       6    6735    6729       6    6735    6732       7    6741
    6738       6    6744    6738       6    6744    6741       7    6750    6747
       6    6753    6747       6    6753    6750       7    6759    6756       6
    6762    6756       6    6762    6759       7    6768    6765       6    6771
    6765       6    6771    6768       7    6777    6774       6    6780    6774
       6    6780    6777       7    6786    6783       6    6789    6783       6
    6789    6786       7    6795    6792       6    6798    6792       6    6798
    6795       7    6804    6801       6    6807    6801       6    6807    6804
       7    6813    6810       6    6816    6810       6    6816    6813       7
    6822    6819       6    6825    6819       6    6825    6822       7    6831
    6828       6    6834    6828       6    6834    6831       7    6840    6837
       6    6843    6837       6    6843    6840       7    6849    6846       6
    6852    6846       6    6852    6849       7    6858    6855       6    6861
    6855       6    6861    6858       7    6867    6864       6    6870    6864
       6    6870    6867       7    6876    6873       6    6879    6873       6
    6879    6876       7    6885    6882       6    6888    6882       6    6888
    6885       7    6894    6891       6    6897    6891       6    6897    6894
       7    6903    6900       6    6906    6900       6    6906    6903       7
    6912    6909       6    6915    6909       6    6915    6912       7    6921
    6918       6    6924    6918       6    6924    6921       7    6930    6927
       6    6933    6927       6    6933    6930       7    6939    6936       6
    6942    6936       6    6942    6939       7    6948    6945       6    6951
    6945       6    6951    6948       7    6957    6954       6    6960    6954
       6    6960    6957       7    6966    6963       6    6969    6963       6
    6969    6966       7    6975    6972       6    6978    6972       6    6978
    6975       7    6984    6981       6    6987    6981       6    6987    6984
       7    6993    6990       6    6996    6990       6    6996    6993       7
    7002    6999       6    7005    6999       6    7005    7002       7    7011
    7008       6    7014    7008       6    7014    7011       7    7020    7017
       6    7023    7017       6    7023    7020       7    7029    7026       6
    7032    7026       6    7032    7029       7    7038    7035       6    7041
    7035       6    7041    7038       7    7047    7044       6    7050    7044
       6    7050    7047       7    7056    7053       6    7059    7053       6
    7059    7056       7    7065    7062       6    7068    7062       6    7068
    7065       7    7074    7071       6    7077    7071       6    7077    7074
       7    7083    7080       6    7086    7080       6    7086    7083       7
    7092    7089       6    7095    7089       6    7095    7092       7    7101
    7098       6    7104    7098       6    7104    7101       7    7110    7107
       6    7113    7107       6    7113    7110       7    7119    7116       6
    7122    7116       6    7122    7119       7    7128    7125       6    7131
    7125       6    7131    7128       7    7137    7134       6    7140    7134
       6    7140    7137       7    7146    7143       6    7149    7143       6
    7149    7146       7    7155    7152       6    7158    7152       6    7158
    7155       7    7164    7161       6    7167    7161       6    7167    7164
       7    7173    7170       6    7176    7170       6    7176    7173       7
    7182    7179       6    7185    7179       6    7185    7182       7    7191
    7188       6    7194    7188       6    7194    7191       7    7200    7197
       6    7203    7197       6    7203    7200       7    7209    7206       6
    7212    7206       6    7212    7209       7    7218    7215       6    7221
    7215       6    7221    7218       7    7227    7224       6    7230    7224
       6    7230    7227       7    7236    7233       6    7239    7233       6
    7239    7236       7    7245    7242       6    7248    7242       6    7248
    7245       7    7254    7251       6    7257    7251       6    7257    7254
       7    7263    7260       6    7266    7260       6    7266    7263       7
    7272    7269       6    7275    7269       6    7275    7272       7    7281
    7278       6    7284    7278       6    7284    7281       7    7290    7287
       6    7293    7287       6    7293    7290       7    7299    7296       6
    7302    7296       6    7302    7299       7    7308    7305       6    7311
    7305       6    7311    7308       7    7317    7314       6    7320    7314
       6    7320    7317       7    7326    7323       6    7329    7323       6
    7329    7326       7    7335    7332       6    7338    7332       6    7338
    7335       7    7344    7341       6    7347    7341       6    7347    7344
       7    7353    7350       6    7356    7350       6    7356    7353       7
    7362    7359       6    7365    7359       6    7365    7362       7    7371
    7368       6    7374    7368       6    7374    7371       7    7380    7377
       6    7383    7377       6    7383    7380       7    7389    7386       6
    7392    7386       6    7392    7389       7    7398    7395       6    7401
    7395       6    7401    7398       7    7407    7404       6    7410    7404
       6    7410    7407       7    7416    7413       6    7419    7413       6
    7419    7416       7    7425    7422       6    7428    7422       6    7428
    7425       7    7434    7431       6    7437    7431       6    7437    7434
       7    7443    7440       6    7446    7440       6    7446    7443       7
    7452    7449       6    7455    7449       6    7455    7452       7    7461
    7458       6    7464    7458       6    7464    7461       7    7470    7467
       6    7473    7467       6    7473    7470       7    7479    7476       6
    7482    7476       6    7482    7479       7    7488    7485       6    7491
    7485       6    7491    7488       7    7497    7494       6    7500    7494
       6    7500    7497       7    7506    7503       6    7509    7503       6
    7509    7506       7    7515    7512       6    7518    7512       6    7518
    7515       7    7524    7521       6    7527    7521       6    7527    7524
       7    7533    7530       6    7536    7530       6    7536    7533       7
    7542    7539       6    7545    7539       6    7545    7542       7    7551
    7548       6    7554    7548       6    7554    7551       7    7560    7557
       6    7563    7557       6    7563    7560       7    7569    7566       6
    7572    7566       6    7572    7569       7    7578    7575       6    7581
    7575       6    7581    7578       7    7587    7584       6    7590    7584
       6    7590    7587       7    7596    7593       6    7599    7593       6
    7599    7596       7    7605    7602       6    7608    7602       6    7608
    7605       7    7614    7611       6    7617    7611       6    7617    7614
       7    7623    7620       6    7626    7620       6    7626    7623       7
    7632    7629       6    7635    7629       6    7635    7632       7    7641
    7638       6    7644    7638       6    7644    7641       7    7650    7647
       6    7653    7647       6    7653    7650       7    7659    7656       6
    7662    7656       6    7662    7659       7    7668    7665       6    7671
    7665       6    7671    7668       7    7677    7674       6    7680    7674
       6    7680    7677       7    7686    7683       6    7689    7683       6
    7689    7686       7    7695    7692       6    7698    7692       6    7698
    7695       7    7704    7701       6    7707    7701       6    7707    7704
       7    7713    7710       6    7716    7710       6    7716    7713       7
    7722    7719       6    7725    7719       6    7725    7722       7    7731
    7728       6    7734    7728       6    7734    7731       7    7740    7737
       6    7743    7737       6    7743    7740       7    7749    7746       6
    7752    7746       6    7752    7749       7    7758    7755       6    7761
    7755       6    7761    7758       7    7767    7764       6    7770    7764
       6    7770    7767       7    7776    7773       6    7779    7773       6
    7779    7776       7    7785    7782       6    7788    7782       6    7788
    7785       7    7794    7791       6    7797    7791       6    7797    7794
       7    7803    7800       6    7806    7800       6    7806    7803       7
    7812    7809       6    7815    7809       6    7815    7812       7    7821
    7818       6    7824    7818       6    7824    7821       7    7830    7827
       6    7833    7827       6    7833    7830       7    7839    7836       6
    7842    7836       6    7842    7839       7    7848    7845       6    7851
    7845       6    7851    7848       7    7857    7854       6    7860    7854
       6    7860    7857       7    7866    7863       6    7869    7863       6
    7869    7866       7    7875    7872       6    7878    7872       6    7878
    7875       7    7884    7881       6    7887    7881       6    7887    7884
       7    7893    7890       6    7896    7890       6    7896    7893       7
    7902    7899       6    7905    7899       6    7905    7902       7    7911
    7908       6    7914    7908       6    7914    7911       7    7920    7917
       6    7923    7917       6    7923    7920       7    7929    7926       6
    7932    7926       6    7932    7929       7    7938    7935       6    7941
    7935       6    7941    7938       7    7947    7944       6    7950    7944
       6    7950    7947       7    7956    7953       6    7959    7953       6
    7959    7956       7    7965    7962       6    7968    7962       6    7968
    7965       7    7974    7971       6    7977    7971       6    7977    7974
       7    7983    7980       6    7986    7980       6    7986    7983       7
    7992    7989       6    7995    7989       6    7995    7992       7    8001
    7998       6    8004    7998       6    8004    8001       7    8010    8007
       6    8013    8007       6    8013    8010       7    8019    8016       6
    8022    8016       6    8022    8019       7    8028    8025       6    8031
    8025       6    8031    8028       7    8037    8034       6    8040    8034
       6    8040    8037       7    8046    8043       6    8049    8043       6
    8049    8046       7    8055    8052       6    8058    8052       6    8058
    8055       7    8064    8061       6    8067    8061       6    8067    8064
       7    8073    8070       6    8076    8070       6    8076    8073       7
    8082    8079       6    8085    8079       6    8085    8082       7    8091
    8088       6    8094    8088       6    8094    8091       7    8100    8097
       6    8103    8097       6    8103    8100       7    8109    8106       6
    8112    8106       6    8112    8109       7    8118    8115       6    8121
    8115       6    8121    8118       7    8127    8124       6    8130    8124
       6    8130    8127       7    8136    8133       6    8139    8133       6
    8139    8136       7    8145    8142       6    8148    8142       6    8148
    8145       7    8154    8151       6    8157    8151       6    8157    8154
       7    8163    8160       6    8166    8160       6    8166    8163       7
    8172    8169       6    8175    8169       6    8175    8172       7    8181
    8178       6    8184    8178       6    8184    8181       7    8190    8187
       6    8193    8187       6    8193    8190       7    8199    8196       6
    8202    8196       6    8202    8199       7    8208    8205       6    8211
    8205       6    8211    8208       7    8217    8214       6    8220    8214
       6    8220    8217       7    8226    8223       6    8229    8223       6
    8229    8226       7    8235    8232       6    8238    8232       6    8238
    8235       7    8244    8241       6    8247    8241       6    8247    8244
       7    8253    8250       6    8256    8250       6    8256    8253       7
    8262    8259       6    8265    8259       6    8265    8262       7    8271
    8268       6    8274    8268       6    8274    8271       7    8280    8277
       6    8283    8277       6    8283    8280       7    8289    8286       6
    8292    8286       6    8292    8289       7    8298    8295       6    8301
    8295       6    8301    8298       7    8307    8304       6    8310    8304
       6    8310    8307       7    8316    8313       6    8319    8313       6
    8319    8316       7    8325    8322       6    8328    8322       6    8328
    8325       7    8334    8331       6    8337    8331       6    8337    8334
       7    8343    8340       6    8346    8340       6    8346    8343       7
    8352    8349       6    8355    8349       6    8355    8352       7    8361
    8358       6    8364    8358       6    8364    8361       7    8370    8367
       6    8373    8367       6    8373    8370       7    8379    8376       6
    8382    8376       6    8382    8379       7    8388    8385       6    8391
    8385       6    8391    8388       7    8397    8394       6    8400    8394
       6    8400    8397       7    8406    8403       6    8409    8403       6
    8409    8406       7    8415    8412       6    8418    8412       6    8418
    8415       7    8424    8421       6    8427    8421       6    8427    8424
       7    8433    8430       6    8436    8430       6    8436    8433       7
    8442    8439       6    8445    8439       6    8445    8442       7    8451
    8448       6    8454    8448       6    8454    8451       7    8460    8457
       6    8463    8457       6    8463    8460       7    8469    8466       6
    8472    8466       6    8472    8469       7    8478    8475       6    8481
    8475       6    8481    8478       7    8487    8484       6    8490    8484
       6    8490    8487       7    8496    8493       6    8499    8493       6
    8499    8496       7    8505    8502       6    8508    8502       6    8508
    8505       7    8514    8511       6    8517    8511       6    8517    8514
       7    8523    8520       6    8526    8520       6    8526    8523       7
    8532    8529       6    8535    8529       6    8535    8532       7    8541
    8538       6    8544    8538       6    8544    8541       7    8550    8547
       6    8553    8547       6    8553    8550       7    8559    8556       6
    8562    8556       6    8562    8559       7    8568    8565       6    8571
    8565       6    8571    8568       7    8577    8574       6    8580    8574
       6    8580    8577       7    8586    8583       6    8589    8583       6
    8589    8586       7    8595    8592       6    8598    8592       6    8598
    8595       7    8604    8601       6    8607    8601       6    8607    8604
       7    8613    8610       6    8616    8610       6    8616    8613       7
    8622    8619       6    8625    8619       6    8625    8622       7    8631
    8628       6    8634    8628       6    8634    8631       7    8640    8637
       6    8643    8637       6    8643    8640       7    8649    8646       6
    8652    8646       6    8652    8649       7    8658    8655       6    8661
    8655       6    8661    8658       7    8667    8664       6    8670    8664
       6    8670    8667       7    8676    8673       6    8679    8673       6
    8679    8676       7    8685    8682       6    8688    8682       6    8688
    8685       7    8694    8691       6    8697    8691       6    8697    8694
       7    8703    8700       6    8706    8700       6    8706    8703       7
    8712    8709       6    8715    8709       6    8715    8712       7    8721
    8718       6    8724    8718       6    8724    8721       7    8730    8727
       6    8733    8727       6    8733    8730       7    8739    8736       6
    8742    8736       6    8742    8739       7    8748    8745       6    8751
    8745       6    8751    8748       7    8757    8754       6    8760    8754
       6    8760    8757       7    8766    8763       6    8769    8763       6
    8769    8766       7    8775    8772       6    8778    8772       6    8778
    8775       7    8784    8781       6    8787    8781       6    8787    8784
       7    8793    8790       6    8796    8790       6    8796    8793       7
    8802    8799       6    8805    8799       6    8805    8802       7    8811
    8808       6    8814    8808       6    8814    8811       7    8820    8817
       6    8823    8817       6    8823    8820       7    8829    8826       6
    8832    8826       6    8832    8829       7    8838    8835       6    8841
    8835       6    8841    8838       7    8847    8844       6    8850    8844
       6    8850    8847       7    8856    8853       6    8859    8853       6
    8859    8856       7    8865    8862       6    8868    8862       6    8868
    8865       7    8874    8871       6    8877    8871       6    8877    8874
       7    8883    8880       6    8886    8880       6    8886    8883       7
    8892    8889       6    8895    8889       6    8895    8892       7    8901
    8898       6    8904    8898       6    8904    8901       7    8910    8907
       6    8913    8907       6    8913    8910       7    8919    8916       6
    8922    8916       6    8922    8919       7    8928    8925       6    8931
    8925       6    8931    8928       7    8937    8934       6    8940    8934
       6    8940    8937       7    8946    8943       6    8949    8943       6
    8949    8946       7    8955    8952       6    8958    8952       6    8958
    8955       7    8964    8961       6    8967    8961       6    8967    8964
       7    8973    8970       6    8976    8970       6    8976    8973       7
    8982    8979       6    8985    8979       6    8985    8982       7    8991
    8988       6    8994    8988       6    8994    8991       7    9000    8997
       6    9003    8997       6    9003    9000       7    9009    9006       6
    9012    9006       6    9012    9009       7    9018    9015       6    9021
    9015       6    9021    9018       7    9027    9024       6    9030    9024
       6    9030    9027       7    9036    9033       6    9039    9033       6
    9039    9036       7    9045    9042       6    9048    9042       6    9048
    9045       7    9054    9051       6    9057    9051       6    9057    9054
       7    9063    9060       6    9066    9060       6    9066    9063       7
    9072    9069       6    9075    9069       6    9075    9072       7    9081
    9078       6    9084    9078       6    9084    9081       7    9090    9087
       6    9093    9087       6    9093    9090       7    9099    9096       6
    9102    9096       6    9102    9099       7    9108    9105       6    9111
    9105       6    9111    9108       7    9117    9114       6    9120    9114
       6    9120    9117       7    9126    9123       6    9129    9123       6
    9129    9126       7    9135    9132       6    9138    9132       6    9138
    9135       7    9144    9141       6    9147    9141       6    9147    9144
       7    9153    9150       6    9156    9150       6    9156    9153       7
    9162    9159       6    9165    9159       6    9165    9162       7    9171
    9168       6    9174    9168       6    9174    9171       7    9180    9177
       6    9183    9177       6    9183    9180       7    9189    9186       6
    9192    9186       6    9192    9189       7    9198    9195       6    9201
    9195       6    9201    9198       7    9207    9204       6    9210    9204
       6    9210    9207       7    9216    9213       6    9219    9213       6
    9219    9216       7    9225    9222       6    9228    9222       6    9228
    9225       7    9234    9231       6    9237    9231       6    9237    9234
       7    9243    9240       6    9246    9240       6    9246    9243       7
    9252    9249       6    9255    9249       6    9255    9252       7    9261
    9258       6    9264    9258       6    9264    9261       7    9270    9267
       6    9273    9267       6    9273    9270       7    9279    9276       6
    9282    9276       6    9282    9279       7    9288    9285       6    9291
    9285       6    9291    9288       7    9297    9294       6    9300    9294
       6    9300    9297       7    9306    9303       6    9309    9303       6
    9309    9306       7    9315    9312       6    9318    9312       6    9318
    9315       7    9324    9321       6    9327    9321       6    9327    9324
       7    9333    9330       6    9336    9330       6    9336    9333       7
    9342    9339       6    9345    9339       6    9345    9342       7    9351
    9348       6    9354    9348       6    9354    9351       7    9360    9357
       6    9363    9357       6    9363    9360       7    9369    9366       6
    9372    9366       6    9372    9369       7    9378    9375       6    9381
    9375       6    9381    9378       7    9387    9384       6    9390    9384
       6    9390    9387       7    9396    9393       6    9399    9393       6
    9399    9396       7    9405    9402       6    9408    9402       6    9408
    9405       7    9414    9411       6    9417    9411       6    9417    9414
       7    9423    9420       6    9426    9420       6    9426    9423       7
    9432    9429       6    9435    9429       6    9435    9432       7    9441
    9438       6    9444    9438       6    9444    9441       7    9450    9447
       6    9453    9447       6    9453    9450       7    9459    9456       6
    9462    9456       6    9462    9459       7    9468    9465       6    9471
    9465       6    9471    9468       7    9477    9474       6    9480    9474
       6    9480    9477       7    9486    9483       6    9489    9483       6
    9489    9486       7    9495    9492       6    9498    9492       6    9498
    9495       7    9504    9501       6    9507    9501       6    9507    9504
       7    9513    9510       6    9516    9510       6    9516    9513       7
    9522    9519       6    9525    9519       6    9525    9522       7    9531
    9528       6    9534    9528       6    9534    9531       7    9540    9537
       6    9543    9537       6    9543    9540       7    9549    9546       6
    9552    9546       6    9552    9549       7    9558    9555       6    9561
    9555       6    9561    9558       7    9567    9564       6    9570    9564
       6    9570    9567       7    9576    9573       6    9579    9573       6
    9579    9576       7    9585    9582       6    9588    9582       6    9588
    9585       7    9594    9591       6    9597    9591       6    9597    9594
       7    9603    9600       6    9606    9600       6    9606    9603       7
    9612    9609       6    9615    9609       6    9615    9612       7    9621
    9618       6    9624    9618       6    9624    9621       7    9630    9627
       6    9633    9627       6    9633    9630       7    9639    9636       6
    9642    9636       6    9642    9639       7    9648    9645       6    9651
    9645       6    9651    9648       7    9657    9654       6    9660    9654
       6    9660    9657       7    9666    9663       6    9669    9663       6
    9669    9666       7    9675    9672       6    9678    9672       6    9678
    9675       7    9684    9681       6    9687    9681       6    9687    9684
       7    9693    9690       6    9696    9690       6    9696    9693       7
    9702    9699       6    9705    9699       6    9705    9702       7    9711
    9708       6    9714    9708       6    9714    9711       7    9720    9717
       6    9723    9717       6    9723    9720       7    9729    9726       6
    9732    9726       6    9732    9729       7    9738    9735       6    9741
    9735       6    9741    9738       7    9747    9744       6    9750    9744
       6    9750    9747       7    9756    9753       6    9759    9753       6
    9759    9756       7    9765    9762       6    9768    9762       6    9768
    9765       7    9774    9771       6    9777    9771       6    9777    9774
       7    9783    9780       6    9786    9780       6    9786    9783       7
    9792    9789       6    9795    9789       6    9795    9792       7    9801
    9798       6    9804    9798       6    9804    9801       7    9810    9807
       6    9813    9807       6    9813    9810       7    9819    9816       6
    9822    9816       6    9822    9819       7    9828    9825       6    9831
    9825       6    9831    9828       7    9837    9834       6    9840    9834
       6    9840    9837       7    9846    9843       6    9849    9843       6
    9849    9846       7    9855    9852       6    9858    9852       6    9858
    9855       7    9864    9861       6    9867    9861       6    9867    9864
       7    9873    9870       6    9876    9870       6    9876    9873       7
    9882    9879       6    9885    9879       6    9885    9882       7    9891
    9888       6    9894    9888       6    9894    9891       7    9900    9897
       6    9903    9897       6    9903    9900       7    9909    9906       6
    9912    9906       6    9912    9909       7    9918    9915       6    9921
    9915       6    9921    9918       7    9927    9924       6    9930    9924
       6    9930    9927       7    9936    9933       6    9939    9933       6
    9939    9936       7    9945    9942       6    9948    9942       6    9948
    9945       7    9954    9951       6    9957    9951       6    9957    9954
       7    9963    9960       6    9966    9960       6    9966    9963       7
    9972    9969       6    9975    9969       6    9975    9972       7    9981
    9978       6    9984    9978       6    9984    9981       7    9990    9987
       6    9993    9987       6    9993    9990       7    9999    9996       6
   10002    9996       6   10002    9999       7   10008   10005       6   10011
   10005       6   10011   10008       7   10017   10014       6   10020   10014
       6   10020   10017       7   10026   10023       6   10029   10023       6
   10029   10026       7   10035   10032       6   10038   10032       6   10038
   10035       7   10044   10041       6   10047   10041       6   10047   10044
       7   10053   10050       6   10056   10050       6   10056   10053       7
   10062   10059       6   10065   10059       6   10065   10062       7   10071
   10068       6   10074   10068       6   10074   10071       7   10080   10077
       6   10083   10077       6   10083   10080       7   10089   10086       6
   10092   10086       6   10092   10089       7   10098   10095       6   10101
   10095       6   10101   10098       7   10107   10104       6   10110   10104
       6   10110   10107       7   10116   10113       6   10119   10113       6
   10119   10116       7   10125   10122       6   10128   10122       6   10128
   10125       7   10134   10131       6   10137   10131       6   10137   10134
       7   10143   10140       6   10146   10140       6   10146   10143       7
   10152   10149       6   10155   10149       6   10155   10152       7   10161
   10158       6   10164   10158       6   10164   10161       7   10170   10167
       6   10173   10167       6   10173   10170       7   10179   10176       6
   10182   10176       6   10182   10179       7   10188   10185       6   10191
   10185       6   10191   10188       7   10197   10194       6   10200   10194
       6   10200   10197       7   10206   10203       6   10209   10203       6
   10209   10206       7   10215   10212       6   10218   10212       6   10218
   10215       7   10224   10221       6   10227   10221       6   10227   10224
       7   10233   10230       6   10236   10230       6   10236   10233       7
   10242   10239       6   10245   10239       6   10245   10242       7   10251
   10248       6   10254   10248       6   10254   10251       7   10260   10257
       6   10263   10257       6   10263   10260       7   10269   10266       6
   10272   10266       6   10272   10269       7   10278   10275       6   10281
   10275       6   10281   10278       7   10287   10284       6   10290   10284
       6   10290   10287       7   10296   10293       6   10299   10293       6
   10299   10296       7   10305   10302       6   10308   10302       6   10308
   10305       7   10314   10311       6   10317   10311       6   10317   10314
       7   10323   10320       6   10326   10320       6   10326   10323       7
   10332   10329       6   10335   10329       6   10335   10332       7   10341
   10338       6   10344   10338       6   10344   10341       7   10350   10347
       6   10353   10347       6   10353   10350       7   10359   10356       6
   10362   10356       6   10362   10359       7   10368   10365       6   10371
   10365       6   10371   10368       7   10377   10374       6   10380   10374
       6   10380   10377       7   10386   10383       6   10389   10383       6
   10389   10386       7   10395   10392       6   10398   10392       6   10398
   10395       7   10404   10401       6   10407   10401       6   10407   10404
       7   10413   10410       6   10416   10410       6   10416   10413       7
   10422   10419       6   10425   10419       6   10425   10422       7   10431
   10428       6   10434   10428       6   10434   10431       7   10440   10437
       6   10443   10437       6   10443   10440       7   10449   10446       6
   10452   10446       6   10452   10449       7   10458   10455       6   10461
   10455       6   10461   10458       7   10467   10464       6   10470   10464
       6   10470   10467       7   10476   10473       6   10479   10473       6
   10479   10476       7   10485   10482       6   10488   10482       6   10488
   10485       7   10494   10491       6   10497   10491       6   10497   10494
       7   10503   10500       6   10506   10500       6   10506   10503       7
   10512   10509       6   10515   10509       6   10515   10512       7   10521
   10518       6   10524   10518       6   10524   10521       7   10530   10527
       6   10533   10527       6   10533   10530       7   10539   10536       6
   10542   10536       6   10542   10539       7   10548   10545       6   10551
   10545       6   10551   10548       7   10557   10554       6   10560   10554
       6   10560   10557       7   10566   10563       6   10569   10563       6
   10569   10566       7   10575   10572       6   10578   10572       6   10578
   10575       7   10584   10581       6   10587   10581       6   10587   10584
       7   10593   10590       6   10596   10590       6   10596   10593       7
   10602   10599       6   10605   10599       6   10605   10602       7   10611
   10608       6   10614   10608       6   10614   10611       7   10620   10617
       6   10623   10617       6   10623   10620       7   10629   10626       6
   10632   10626       6   10632   10629       7   10638   10635       6   10641
   10635       6   10641   10638       7   10647   10644       6   10650   10644
       6   10650   10647       7   10656   10653       6   10659   10653       6
   10659   10656       7   10665   10662       6   10668   10662       6   10668
   10665       7   10674   10671       6   10677   10671       6   10677   10674
       7   10683   10680       6   10686   10680       6   10686   10683       7
   10692   10689       6   10695   10689       6   10695   10692       7   10701
   10698       6   10704   10698       6   10704   10701       7   10710   10707
       6   10713   10707       6   10713   10710       7   10719   10716       6
   10722   10716       6   10722   10719       7   10728   10725       6   10731
   10725       6   10731   10728       7   10737   10734       6   10740   10734
       6   10740   10737       7   10746   10743       6   10749   10743       6
   10749   10746       7   10755   10752       6   10758   10752       6   10758
   10755       7   10764   10761       6   10767   10761       6   10767   10764
       7   10773   10770       6   10776   10770       6   10776   10773       7
   10782   10779       6   10785   10779       6   10785   10782       7   10791
   10788       6   10794   10788       6   10794   10791       7   10800   10797
       6   10803   10797       6   10803   10800       7   10809   10806       6
   10812   10806       6   10812   10809       7   10818   10815       6   10821
   10815       6   10821   10818       7   10827   10824       6   10830   10824
       6   10830   10827       7   10836   10833       6   10839   10833       6
   10839   10836       7   10845   10842       6   10848   10842       6   10848
   10845       7   10854   10851       6   10857   10851       6   10857   10854
       7   10863   10860       6   10866   10860       6   10866   10863       7
   10872   10869       6   10875   10869       6   10875   10872       7   10881
   10878       6   10884   10878       6   10884   10881       7   10890   10887
       6   10893   10887       6   10893   10890       7   10899   10896       6
   10902   10896       6   10902   10899       7   10908   10905       6   10911
   10905       6   10911   10908       7   10917   10914       6   10920   10914
       6   10920   10917       7   10926   10923       6   10929   10923       6
   10929   10926       7   10935   10932       6   10938   10932       6   10938
   10935       7   10944   10941       6   10947   10941       6   10947   10944
       7   10953   10950       6   10956   10950       6   10956   10953       7
   10962   10959       6   10965   10959       6   10965   10962       7   10971
   10968       6   10974   10968       6   10974   10971       7   10980   10977
       6   10983   10977       6   10983   10980       7   10989   10986       6
   10992   10986       6   10992   10989       7   10998   10995       6   11001
   10995       6   11001   10998       7   11007   11004       6   11010   11004
       6   11010   11007       7   11016   11013       6   11019   11013       6
   11019   11016       7   11025   11022       6   11028   11022       6   11028
   11025       7   11034   11031       6   11037   11031       6   11037   11034
       7   11043   11040       6   11046   11040       6   11046   11043       7
   11052   11049       6   11055   11049       6   11055   11052       7   11061
   11058       6   11064   11058       6   11064   11061       7   11070   11067
       6   11073   11067       6   11073   11070       7   11079   11076       6
   11082   11076       6   11082   11079       7   11088   11085       6   11091
   11085       6   11091   11088       7   11097   11094       6   11100   11094
       6   11100   11097       7   11106   11103       6   11109   11103       6
   11109   11106       7   11115   11112       6   11118   11112       6   11118
   11115       7   11124   11121       6   11127   11121       6   11127   11124
       7   11133   11130       6   11136   11130       6   11136   11133       7
   11142   11139       6   11145   11139       6   11145   11142       7   11151
   11148       6   11154   11148       6   11154   11151       7   11160   11157
       6   11163   11157       6   11163   11160       7   11169   11166       6
   11172   11166       6   11172   11169       7   11178   11175       6   11181
   11175       6   11181   11178       7   11187   11184       6   11190   11184
       6   11190   11187       7   11196   11193       6   11199   11193       6
   11199   11196       7   11205   11202       6   11208   11202       6   11208
   11205       7   11214   11211       6   11217   11211       6   11217   11214
       7   11223   11220       6   11226   11220       6   11226   11223       7
   11232   11229       6   11235   11229       6   11235   11232       7   11241
   11238       6   11244   11238       6   11244   11241       7   11250   11247
       6   11253   11247       6   11253   11250       7   11259   11256       6
   11262   11256       6   11262   11259       7   11268   11265       6   11271
   11265       6   11271   11268       7   11277   11274       6   11280   11274
       6   11280   11277       7   11286   11283       6   11289   11283       6
   11289   11286       7   11295   11292       6   11298   11292       6   11298
   11295       7   11304   11301       6   11307   11301       6   11307   11304
       7   11313   11310       6   11316   11310       6   11316   11313       7
   11322   11319       6   11325   11319       6   11325   11322       7   11331
   11328       6   11334   11328       6   11334   11331       7   11340   11337
       6   11343   11337       6   11343   11340       7   11349   11346       6
   11352   11346       6   11352   11349       7   11358   11355       6   11361
   11355       6   11361   11358       7   11367   11364       6   11370   11364
       6   11370   11367       7   11376   11373       6   11379   11373       6
   11379   11376       7   11385   11382       6   11388   11382       6   11388
   11385       7   11394   11391       6   11397   11391       6   11397   11394
       7   11403   11400       6   11406   11400       6   11406   11403       7
   11412   11409       6   11415   11409       6   11415   11412       7   11421
   11418       6   11424   11418       6   11424   11421       7   11430   11427
       6   11433   11427       6   11433   11430       7   11439   11436       6
   11442   11436       6   11442   11439       7   11448   11445       6   11451
   11445       6   11451   11448       7   11457   11454       6   11460   11454
       6   11460   11457       7   11466   11463       6   11469   11463       6
   11469   11466       7   11475   11472       6   11478   11472       6   11478
   11475       7   11484   11481       6   11487   11481       6   11487   11484
       7   11493   11490       6   11496   11490       6   11496   11493       7
   11502   11499       6   11505   11499       6   11505   11502       7   11511
   11508       6   11514   11508       6   11514   11511       7   11520   11517
       6   11523   11517       6   11523   11520       7   11529   11526       6
   11532   11526       6   11532   11529       7   11538   11535       6   11541
   11535       6   11541   11538       7   11547   11544       6   11550   11544
       6   11550   11547       7   11556   11553       6   11559   11553       6
   11559   11556       7   11565   11562       6   11568   11562       6   11568
   11565       7   11574   11571       6   11577   11571       6   11577   11574
       7   11583   11580       6   11586   11580       6   11586   11583       7
   11592   11589       6   11595   11589       6   11595   11592       7   11601
   11598       6   11604   11598       6   11604   11601       7   11610   11607
       6   11613   11607       6   11613   11610       7   11619   11616       6
   11622   11616       6   11622   11619       7   11628   11625       6   11631
   11625       6   11631   11628       7   11637   11634       6   11640   11634
       6   11640   11637       7   11646   11643       6   11649   11643       6
   11649   11646       7   11655   11652       6   11658   11652       6   11658
   11655       7   11664   11661       6   11667   11661       6   11667   11664
       7   11673   11670       6   11676   11670       6   11676   11673       7
   11682   11679       6   11685   11679       6   11685   11682       7   11691
   11688       6   11694   11688       6   11694   11691       7   11700   11697
       6   11703   11697       6   11703   11700       7   11709   11706       6
   11712   11706       6   11712   11709       7   11718   11715       6   11721
   11715       6   11721   11718       7   11727   11724       6   11730   11724
       6   11730   11727       7   11736   11733       6   11739   11733       6
   11739   11736       7   11745   11742       6   11748   11742       6   11748
   11745       7   11754   11751       6   11757   11751       6   11757   11754
       7   11763   11760       6   11766   11760       6   11766   11763       7
   11772   11769       6   11775   11769       6   11775   11772       7   11781
   11778       6   11784   11778       6   11784   11781       7   11790   11787
       6   11793   11787       6   11793   11790       7   11799   11796       6
   11802   11796       6   11802   11799       7   11808   11805       6   11811
   11805       6   11811   11808       7   11817   11814       6   11820   11814
       6   11820   11817       7   11826   11823       6   11829   11823       6
   11829   11826       7   11835   11832       6   11838   11832       6   11838
   11835       7   11844   11841       6   11847   11841       6   11847   11844
       7   11853   11850       6   11856   11850       6   11856   11853       7
   11862   11859       6   11865   11859       6   11865   11862       7   11871
   11868       6   11874   11868       6   11874   11871       7   11880   11877
       6   11883   11877       6   11883   11880       7   11889   11886       6
   11892   11886       6   11892   11889       7   11898   11895       6   11901
   11895       6   11901   11898       7   11907   11904       6   11910   11904
       6   11910   11907       7   11916   11913       6   11919   11913       6
   11919   11916       7   11925   11922       6   11928   11922       6   11928
   11925       7   11934   11931       6   11937   11931       6   11937   11934
       7   11943   11940       6   11946   11940       6   11946   11943       7
   11952   11949       6   11955   11949       6   11955   11952       7   11961
   11958       6   11964   11958       6   11964   11961       7   11970   11967
       6   11973   11967       6   11973   11970       7   11979   11976       6
   11982   11976       6   11982   11979       7   11988   11985       6   11991
   11985       6   11991   11988       7   11997   11994       6   12000   11994
       6   12000   11997       7   12006   12003       6   12009   12003       6
   12009   12006       7   12015   12012       6   12018   12012       6   12018
   12015       7   12024   12021       6   12027   12021       6   12027   12024
       7   12033   12030       6   12036   12030       6   12036   12033       7
   12042   12039       6   12045   12039       6   12045   12042       7   12051
   12048       6   12054   12048       6   12054   12051       7   12060   12057
       6   12063   12057       6   12063   12060       7   12069   12066       6
   12072   12066       6   12072   12069       7   12078   12075       6   12081
   12075       6   12081   12078       7   12087   12084       6   12090   12084
       6   12090   12087       7   12096   12093       6   12099   12093       6
   12099   12096       7   12105   12102       6   12108   12102       6   12108
   12105       7   12114   12111       6   12117   12111       6   12117   12114
       7   12123   12120       6   12126   12120       6   12126   12123       7
   12132   12129       6   12135   12129       6   12135   12132       7   12141
   12138       6   12144   12138       6   12144   12141       7   12150   12147
       6   12153   12147       6   12153   12150       7   12159   12156       6
   12162   12156       6   12162   12159       7   12168   12165       6   12171
   12165       6   12171   12168       7   12177   12174       6   12180   12174
       6   12180   12177       7   12186   12183       6   12189   12183       6
   12189   12186       7   12195   12192       6   12198   12192       6   12198
   12195       7   12204   12201       6   12207   12201       6   12207   12204
       7   12213   12210       6   12216   12210       6   12216   12213       7
   12222   12219       6   12225   12219       6   12225   12222       7   12231
   12228       6   12234   12228       6   12234   12231       7   12240   12237
       6   12243   12237       6   12243   12240       7   12249   12246       6
   12252   12246       6   12252   12249       7   12258   12255       6   12261
   12255       6   12261   12258       7   12267   12264       6   12270   12264
       6   12270   12267       7   12276   12273       6   12279   12273       6
   12279   12276       7   12285   12282       6   12288   12282       6   12288
   12285       7   12294   12291       6   12297   12291       6   12297   12294
       7   12303   12300       6   12306   12300       6   12306   12303       7
   12312   12309       6   12315   12309       6   12315   12312       7   12321
   12318       6   12324   12318       6   12324   12321       7   12330   12327
       6   12333   12327       6   12333   12330       7   12339   12336       6
   12342   12336       6   12342   12339       7   12348   12345       6   12351
   12345       6   12351   12348       7   12357   12354       6   12360   12354
       6   12360   12357       7   12366   12363       6   12369   12363       6
   12369   12366       7   12375   12372       6   12378   12372       6   12378
   12375       7   12384   12381       6   12387   12381       6   12387   12384
       7   12393   12390       6   12396   12390       6   12396   12393       7
   12402   12399       6   12405   12399       6   12405   12402       7   12411
   12408       6   12414   12408       6   12414   12411       7   12420   12417
       6   12423   12417       6   12423   12420       7   12429   12426       6
   12432   12426       6   12432   12429       7   12438   12435       6   12441
   12435       6   12441   12438       7   12447   12444       6   12450   12444
       6   12450   12447       7   12456   12453       6   12459   12453       6
   12459   12456       7   12465   12462       6   12468   12462       6   12468
   12465       7   12474   12471       6   12477   12471       6   12477   12474
       7   12483   12480       6   12486   12480       6   12486   12483       7
   12492   12489       6   12495   12489       6   12495   12492       7   12501
   12498       6   12504   12498       6   12504   12501       7   12510   12507
       6   12513   12507       6   12513   12510       7   12519   12516       6
   12522   12516       6   12522   12519       7   12528   12525       6   12531
   12525       6   12531   12528       7   12537   12534       6   12540   12534
       6   12540   12537       7   12546   12543       6   12549   12543       6
   12549   12546       7   12555   12552       6   12558   12552       6   12558
   12555       7   12564   12561       6   12567   12561       6   12567   12564
       7   12573   12570       6   12576   12570       6   12576   12573       7
   12582   12579       6   12585   12579       6   12585   12582       7   12591
   12588       6   12594   12588       6   12594   12591       7   12600   12597
       6   12603   12597       6   12603   12600       7   12609   12606       6
   12612   12606       6   12612   12609       7   12618   12615       6   12621
   12615       6   12621   12618       7   12627   12624       6   12630   12624
       6   12630   12627       7   12636   12633       6   12639   12633       6
   12639   12636       7   12645   12642       6   12648   12642       6   12648
   12645       7   12654   12651       6   12657   12651       6   12657   12654
       7   12663   12660       6   12666   12660       6   12666   12663       7
   12672   12669       6   12675   12669       6   12675   12672       7   12681
   12678       6   12684   12678       6   12684   12681       7   12690   12687
       6   12693   12687       6   12693   12690       7   12699   12696       6
   12702   12696       6   12702   12699       7   12708   12705       6   12711
   12705       6   12711   12708       7   12717   12714       6   12720   12714
       6   12720   12717       7   12726   12723       6   12729   12723       6
   12729   12726       7   12735   12732       6   12738   12732       6   12738
   12735       7   12744   12741       6   12747   12741       6   12747   12744
       7   12753   12750       6   12756   12750       6   12756   12753       7
   12762   12759       6   12765   12759       6   12765   12762       7   12771
   12768       6   12774   12768       6   12774   12771       7   12780   12777
       6   12783   12777       6   12783   12780       7   12789   12786       6
   12792   12786       6   12792   12789       7   12798   12795       6   12801
   12795       6   12801   12798       7   12807   12804       6   12810   12804
       6   12810   12807       7   12816   12813       6   12819   12813       6
   12819   12816       7   12825   12822       6   12828   12822       6   12828
   12825       7   12834   12831       6   12837   12831       6   12837   12834
       7   12843   12840       6   12846   12840       6   12846   12843       7
   12852   12849       6   12855   12849       6   12855   12852       7   12861
   12858       6   12864   12858       6   12864   12861       7   12870   12867
       6   12873   12867       6   12873   12870       7   12879   12876       6
   12882   12876       6   12882   12879       7   12888   12885       6   12891
   12885       6   12891   12888       7   12897   12894       6   12900   12894
       6   12900   12897       7   12906   12903       6   12909   12903       6
   12909   12906       7   12915   12912       6   12918   12912       6   12918
   12915       7   12924   12921       6   12927   12921       6   12927   12924
       7   12933   12930       6   12936   12930       6   12936   12933       7
   12942   12939       6   12945   12939       6   12945   12942       7   12951
   12948       6   12954   12948       6   12954   12951       7   12960   12957
       6   12963   12957       6   12963   12960       7   12969   12966       6
   12972   12966       6   12972   12969       7   12978   12975       6   12981
   12975       6   12981   12978       7   12987   12984       6   12990   12984
       6   12990   12987       7   12996   12993       6   12999   12993       6
   12999   12996       7   13005   13002       6   13008   13002       6   13008
   13005       7   13014   13011       6   13017   13011       6   13017   13014
       7   13023   13020       6   13026   13020       6   13026   13023       7
   13032   13029       6   13035   13029       6   13035   13032       7   13041
   13038       6   13044   13038       6   13044   13041       7   13050   13047
       6   13053   13047       6   13053   13050       7   13059   13056       6
   13062   13056       6   13062   13059       7   13068   13065       6   13071
   13065       6   13071   13068       7   13077   13074       6   13080   13074
       6   13080   13077       7   13086   13083       6   13089   13083       6
   13089   13086       7   13095   13092       6   13098   13092       6   13098
   13095       7   13104   13101       6   13107   13101       6   13107   13104
       7   13113   13110       6   13116   13110       6   13116   13113       7
   13122   13119       6   13125   13119       6   13125   13122       7   13131
   13128       6   13134   13128       6   13134   13131       7   13140   13137
       6   13143   13137       6   13143   13140       7   13149   13146       6
   13152   13146       6   13152   13149       7   13158   13155       6   13161
   13155       6   13161   13158       7   13167   13164       6   13170   13164
       6   13170   13167       7   13176   13173       6   13179   13173       6
   13179   13176       7   13185   13182       6   13188   13182       6   13188
   13185       7   13194   13191       6   13197   13191       6   13197   13194
       7   13203   13200       6   13206   13200       6   13206   13203       7
   13212   13209       6   13215   13209       6   13215   13212       7   13221
   13218       6   13224   13218       6   13224   13221       7   13230   13227
       6   13233   13227       6   13233   13230       7   13239   13236       6
   13242   13236       6   13242   13239       7   13248   13245       6   13251
   13245       6   13251   13248       7   13257   13254       6   13260   13254
       6   13260   13257       7   13266   13263       6   13269   13263       6
   13269   13266       7   13275   13272       6   13278   13272       6   13278
   13275       7   13284   13281       6   13287   13281       6   13287   13284
       7   13293   13290       6   13296   13290       6   13296   13293       7
   13302   13299       6   13305   13299       6   13305   13302       7   13311
   13308       6   13314   13308       6   13314   13311       7   13320   13317
       6   13323   13317       6   13323   13320       7   13329   13326       6
   13332   13326       6   13332   13329       7   13338   13335       6   13341
   13335       6   13341   13338       7   13347   13344       6   13350   13344
       6   13350   13347       7   13356   13353       6   13359   13353       6
   13359   13356       7   13365   13362       6   13368   13362       6   13368
   13365       7   13374   13371       6   13377   13371       6   13377   13374
       7   13383   13380       6   13386   13380       6   13386   13383       7
   13392   13389       6   13395   13389       6   13395   13392       7   13401
   13398       6   13404   13398       6   13404   13401       7   13410   13407
       6   13413   13407       6   13413   13410       7   13419   13416       6
   13422   13416       6   13422   13419       7   13428   13425       6   13431
   13425       6   13431   13428       7   13437   13434       6   13440   13434
       6   13440   13437       7   13446   13443       6   13449   13443       6
   13449   13446       7   13455   13452       6   13458   13452       6   13458
   13455       7   13464   13461       6   13467   13461       6   13467   13464
       7   13473   13470       6   13476   13470       6   13476   13473       7
   13482   13479       6   13485   13479       6   13485   13482       7   13491
   13488       6   13494   13488       6   13494   13491       7   13500   13497
       6   13503   13497       6   13503   13500       7   13509   13506       6
   13512   13506       6   13512   13509       7   13518   13515       6   13521
   13515       6   13521   13518       7   13527   13524       6   13530   13524
       6   13530   13527       7   13536   13533       6   13539   13533       6
   13539   13536       7   13545   13542       6   13548   13542       6   13548
   13545       7   13554   13551       6   13557   13551       6   13557   13554
       7   13563   13560       6   13566   13560       6   13566   13563       7
   13572   13569       6   13575   13569       6   13575   13572       7   13581
   13578       6   13584   13578       6   13584   13581       7   13590   13587
       6   13593   13587       6   13593   13590       7   13599   13596       6
   13602   13596       6   13602   13599       7   13608   13605       6   13611
   13605       6   13611   13608       7   13617   13614       6   13620   13614
       6   13620   13617       7   13626   13623       6   13629   13623       6
   13629   13626       7   13635   13632       6   13638   13632       6   13638
   13635       7   13644   13641       6   13647   13641       6   13647   13644
       7   13653   13650       6   13656   13650       6   13656   13653       7
   13662   13659       6   13665   13659       6   13665   13662       7   13671
   13668       6   13674   13668       6   13674   13671       7   13680   13677
       6   13683   13677       6   13683   13680       7   13689   13686       6
   13692   13686       6   13692   13689       7   13698   13695       6   13701
   13695       6   13701   13698       7   13707   13704       6   13710   13704
       6   13710   13707       7   13716   13713       6   13719   13713       6
   13719   13716       7   13725   13722       6   13728   13722       6   13728
   13725       7   13734   13731       6   13737   13731       6   13737   13734
       7   13743   13740       6   13746   13740       6   13746   13743       7
   13752   13749       6   13755   13749       6   13755   13752       7   13761
   13758       6   13764   13758       6   13764   13761       7   13770   13767
       6   13773   13767       6   13773   13770       7   13779   13776       6
   13782   13776       6   13782   13779       7   13788   13785       6   13791
   13785       6   13791   13788       7   13797   13794       6   13800   13794
       6   13800   13797       7   13806   13803       6   13809   13803       6
   13809   13806       7   13815   13812       6   13818   13812       6   13818
   13815       7   13824   13821       6   13827   13821       6   13827   13824
       7   13833   13830       6   13836   13830       6   13836   13833       7
   13842   13839       6   13845   13839       6   13845   13842       7   13851
   13848       6   13854   13848       6   13854   13851       7   13860   13857
       6   13863   13857       6   13863   13860       7   13869   13866       6
   13872   13866       6   13872   13869       7   13878   13875       6   13881
   13875       6   13881   13878       7   13887   13884       6   13890   13884
       6   13890   13887       7   13896   13893       6   13899   13893       6
   13899   13896       7   13905   13902       6   13908   13902       6   13908
   13905       7   13914   13911       6   13917   13911       6   13917   13914
       7   13923   13920       6   13926   13920       6   13926   13923       7
   13932   13929       6   13935   13929       6   13935   13932       7   13941
   13938       6   13944   13938       6   13944   13941       7   13950   13947
       6   13953   13947       6   13953   13950       7   13959   13956       6
   13962   13956       6   13962   13959       7   13968   13965       6   13971
   13965       6   13971   13968       7   13977   13974       6   13980   13974
       6   13980   13977       7   13986   13983       6   13989   13983       6
   13989   13986       7   13995   13992       6   13998   13992       6   13998
   13995       7   14004   14001       6   14007   14001       6   14007   14004
       7   14013   14010       6   14016   14010       6   14016   14013       7
   14022   14019       6   14025   14019       6   14025   14022       7   14031
   14028       6   14034   14028       6   14034   14031       7   14040   14037
       6   14043   14037       6   14043   14040       7   14049   14046       6
   14052   14046       6   14052   14049       7   14058   14055       6   14061
   14055       6   14061   14058       7   14067   14064       6   14070   14064
       6   14070   14067       7   14076   14073       6   14079   14073       6
   14079   14076       7   14085   14082       6   14088   14082       6   14088
   14085       7   14094   14091       6   14097   14091       6   14097   14094
       7   14103   14100       6   14106   14100       6   14106   14103       7
   14112   14109       6   14115   14109       6   14115   14112       7   14121
   14118       6   14124   14118       6   14124   14121       7   14130   14127
       6   14133   14127       6   14133   14130       7   14139   14136       6
   14142   14136       6   14142   14139       7   14148   14145       6   14151
   14145       6   14151   14148       7   14157   14154       6   14160   14154
       6   14160   14157       7   14166   14163       6   14169   14163       6
   14169   14166       7   14175   14172       6   14178   14172       6   14178
   14175       7   14184   14181       6   14187   14181       6   14187   14184
       7   14193   14190       6   14196   14190       6   14196   14193       7
   14202   14199       6   14205   14199       6   14205   14202       7   14211
   14208       6   14214   14208       6   14214   14211       7   14220   14217
       6   14223   14217       6   14223   14220       7   14229   14226       6
   14232   14226       6   14232   14229       7   14238   14235       6   14241
   14235       6   14241   14238       7   14247   14244       6   14250   14244
       6   14250   14247       7   14256   14253       6   14259   14253       6
   14259   14256       7   14265   14262       6   14268   14262       6   14268
   14265       7   14274   14271       6   14277   14271       6   14277   14274
       7   14283   14280       6   14286   14280       6   14286   14283       7
   14292   14289       6   14295   14289       6   14295   14292       7   14301
   14298       6   14304   14298       6   14304   14301       7   14310   14307
       6   14313   14307       6   14313   14310       7   14319   14316       6
   14322   14316       6   14322   14319       7   14328   14325       6   14331
   14325       6   14331   14328       7   14337   14334       6   14340   14334
       6   14340   14337       7   14346   14343       6   14349   14343       6
   14349   14346       7   14355   14352       6   14358   14352       6   14358
   14355       7   14364   14361       6   14367   14361       6   14367   14364
       7   14373   14370       6   14376   14370       6   14376   14373       7
   14382   14379       6   14385   14379       6   14385   14382       7   14391
   14388       6   14394   14388       6   14394   14391       7   14400   14397
       6   14403   14397       6   14403   14400       7   14409   14406       6
   14412   14406       6   14412   14409       7   14418   14415       6   14421
   14415       6   14421   14418       7   14427   14424       6   14430   14424
       6   14430   14427       7   14436   14433       6   14439   14433       6
   14439   14436       7   14445   14442       6   14448   14442       6   14448
   14445       7   14454   14451       6   14457   14451       6   14457   14454
       7   14463   14460       6   14466   14460       6   14466   14463       7
   14472   14469       6   14475   14469       6   14475   14472       7   14481
   14478       6   14484   14478       6   14484   14481       7   14490   14487
       6   14493   14487       6   14493   14490       7   14499   14496       6
   14502   14496       6   14502   14499       7   14508   14505       6   14511
   14505       6   14511   14508       7   14517   14514       6   14520   14514
       6   14520   14517       7   14526   14523       6   14529   14523       6
   14529   14526       7   14535   14532       6   14538   14532       6   14538
   14535       7   14544   14541       6   14547   14541       6   14547   14544
       7   14553   14550       6   14556   14550       6   14556   14553       7
   14562   14559       6   14565   14559       6   14565   14562       7   14571
   14568       6   14574   14568       6   14574   14571       7   14580   14577
       6   14583   14577       6   14583   14580       7   14589   14586       6
   14592   14586       6   14592   14589       7   14598   14595       6   14601
   14595       6   14601   14598       7   14607   14604       6   14610   14604
       6   14610   14607       7   14616   14613       6   14619   14613       6
   14619   14616       7   14625   14622       6   14628   14622       6   14628
   14625       7   14634   14631       6   14637   14631       6   14637   14634
       7   14643   14640       6   14646   14640       6   14646   14643       7
   14652   14649       6   14655   14649       6   14655   14652       7   14661
   14658       6   14664   14658       6   14664   14661       7   14670   14667
       6   14673   14667       6   14673   14670       7   14679   14676       6
   14682   14676       6   14682   14679       7   14688   14685       6   14691
   14685       6   14691   14688       7   14697   14694       6   14700   14694
       6   14700   14697       7   14706   14703       6   14709   14703       6
   14709   14706       7   14715   14712       6   14718   14712       6   14718
   14715       7   14724   14721       6   14727   14721       6   14727   14724
       7   14733   14730       6   14736   14730       6   14736   14733       7
   14742   14739       6   14745   14739       6   14745   14742       7   14751
   14748       6   14754   14748       6   14754   14751       7   14760   14757
       6   14763   14757       6   14763   14760       7   14769   14766       6
   14772   14766       6   14772   14769       7   14778   14775       6   14781
   14775       6   14781   14778       7   14787   14784       6   14790   14784
       6   14790   14787       7   14796   14793       6   14799   14793       6
   14799   14796       7   14805   14802       6   14808   14802       6   14808
   14805       7   14814   14811       6   14817   14811       6   14817   14814
       7   14823   14820       6   14826   14820       6   14826   14823       7
   14832   14829       6   14835   14829       6   14835   14832       7   14841
   14838       6   14844   14838       6   14844   14841       7   14850   14847
       6   14853   14847       6   14853   14850       7   14859   14856       6
   14862   14856       6   14862   14859       7   14868   14865       6   14871
   14865       6   14871   14868       7   14877   14874       6   14880   14874
       6   14880   14877       7   14886   14883       6   14889   14883       6
   14889   14886       7   14895   14892       6   14898   14892       6   14898
   14895       7   14904   14901       6   14907   14901       6   14907   14904
       7   14913   14910       6   14916   14910       6   14916   14913       7
   14922   14919       6   14925   14919       6   14925   14922       7   14931
   14928       6   14934   14928       6   14934   14931       7   14940   14937
       6   14943   14937       6   14943   14940       7   14949   14946       6
   14952   14946       6   14952   14949       7   14958   14955       6   14961
   14955       6   14961   14958       7   14967   14964       6   14970   14964
       6   14970   14967       7   14976   14973       6   14979   14973       6
   14979   14976       7   14985   14982       6   14988   14982       6   14988
   14985       7   14994   14991       6   14997   14991       6   14997   14994
       7   15003   15000       6   15006   15000       6   15006   15003       7
   15012   15009       6   15015   15009       6   15015   15012       7   15021
   15018       6   15024   15018       6   15024   15021       7   15030   15027
       6   15033   15027       6   15033   15030       7   15039   15036       6
   15042   15036       6   15042   15039       7   15048   15045       6   15051
   15045       6   15051   15048       7   15057   15054       6   15060   15054
       6   15060   15057       7   15066   15063       6   15069   15063       6
   15069   15066       7   15075   15072       6   15078   15072       6   15078
   15075       7   15084   15081       6   15087   15081       6   15087   15084
       7   15093   15090       6   15096   15090       6   15096   15093       7
   15102   15099       6   15105   15099       6   15105   15102       7   15111
   15108       6   15114   15108       6   15114   15111       7   15120   15117
       6   15123   15117       6   15123   15120       7   15129   15126       6
   15132   15126       6   15132   15129       7   15138   15135       6   15141
   15135       6   15141   15138       7   15147   15144       6   15150   15144
       6   15150   15147       7   15156   15153       6   15159   15153       6
   15159   15156       7   15165   15162       6   15168   15162       6   15168
   15165       7   15174   15171       6   15177   15171       6   15177   15174
       7   15183   15180       6   15186   15180       6   15186   15183       7
   15192   15189       6   15195   15189       6   15195   15192       7   15201
   15198       6   15204   15198       6   15204   15201       7   15210   15207
       6   15213   15207       6   15213   15210       7   15219   15216       6
   15222   15216       6   15222   15219       7   15228   15225       6   15231
   15225       6   15231   15228       7   15237   15234       6   15240   15234
       6   15240   15237       7   15246   15243       6   15249   15243       6
   15249   15246       7   15255   15252       6   15258   15252       6   15258
   15255       7   15264   15261       6   15267   15261       6   15267   15264
       7   15273   15270       6   15276   15270       6   15276   15273       7
   15282   15279       6   15285   15279       6   15285   15282       7   15291
   15288       6   15294   15288       6   15294   15291       7   15300   15297
       6   15303   15297       6   15303   15300       7   15309   15306       6
   15312   15306       6   15312   15309       7   15318   15315       6   15321
   15315       6   15321   15318       7   15327   15324       6   15330   15324
       6   15330   15327       7   15336   15333       6   15339   15333       6
   15339   15336       7   15345   15342       6   15348   15342       6   15348
   15345       7   15354   15351       6   15357   15351       6   15357   15354
       7   15363   15360       6   15366   15360       6   15366   15363       7
   15372   15369       6   15375   15369       6   15375   15372       7   15381
   15378       6   15384   15378       6   15384   15381       7   15390   15387
       6   15393   15387       6   15393   15390       7   15399   15396       6
   15402   15396       6   15402   15399       7   15408   15405       6   15411
   15405       6   15411   15408       7   15417   15414       6   15420   15414
       6   15420   15417       7   15426   15423       6   15429   15423       6
   15429   15426       7   15435   15432       6   15438   15432       6   15438
   15435       7   15444   15441       6   15447   15441       6   15447   15444
       7   15453   15450       6   15456   15450       6   15456   15453       7
   15462   15459       6   15465   15459       6   15465   15462       7   15471
   15468       6   15474   15468       6   15474   15471       7   15480   15477
       6   15483   15477       6   15483   15480       7   15489   15486       6
   15492   15486       6   15492   15489       7   15498   15495       6   15501
   15495       6   15501   15498       7   15507   15504       6   15510   15504
       6   15510   15507       7   15516   15513       6   15519   15513       6
   15519   15516       7   15525   15522       6   15528   15522       6   15528
   15525       7   15534   15531       6   15537   15531       6   15537   15534
       7   15543   15540       6   15546   15540       6   15546   15543       7
   15552   15549       6   15555   15549       6   15555   15552       7   15561
   15558       6   15564   15558       6   15564   15561       7   15570   15567
       6   15573   15567       6   15573   15570       7   15579   15576       6
   15582   15576       6   15582   15579       7   15588   15585       6   15591
   15585       6   15591   15588       7   15597   15594       6   15600   15594
       6   15600   15597       7   15606   15603       6   15609   15603       6
   15609   15606       7   15615   15612       6   15618   15612       6   15618
   15615       7   15624   15621       6   15627   15621       6   15627   15624
       7   15633   15630       6   15636   15630       6   15636   15633       7
   15642   15639       6   15645   15639       6   15645   15642       7   15651
   15648       6   15654   15648       6   15654   15651       7   15660   15657
       6   15663   15657       6   15663   15660       7   15669   15666       6
   15672   15666       6   15672   15669       7   15678   15675       6   15681
   15675       6   15681   15678       7   15687   15684       6   15690   15684
       6   15690   15687       7   15696   15693       6   15699   15693       6
   15699   15696       7   15705   15702       6   15708   15702       6   15708
   15705       7   15714   15711       6   15717   15711       6   15717   15714
       7   15723   15720       6   15726   15720       6   15726   15723       7
   15732   15729       6   15735   15729       6   15735   15732       7   15741
   15738       6   15744   15738       6   15744   15741       7   15750   15747
       6   15753   15747       6   15753   15750       7   15759   15756       6
   15762   15756       6   15762   15759       7   15768   15765       6   15771
   15765       6   15771   15768       7   15777   15774       6   15780   15774
       6   15780   15777       7   15786   15783       6   15789   15783       6
   15789   15786       7   15795   15792       6   15798   15792       6   15798
   15795       7   15804   15801       6   15807   15801       6   15807   15804
       7   15813   15810       6   15816   15810       6   15816   15813       7
   15822   15819       6   15825   15819       6   15825   15822       7   15831
   15828       6   15834   15828       6   15834   15831       7   15840   15837
       6   15843   15837       6   15843   15840       7   15849   15846       6
   15852   15846       6   15852   15849       7   15858   15855       6   15861
   15855       6   15861   15858       7   15867   15864       6   15870   15864
       6   15870   15867       7   15876   15873       6   15879   15873       6
   15879   15876       7   15885   15882       6   15888   15882       6   15888
   15885       7   15894   15891       6   15897   15891       6   15897   15894
       7   15903   15900       6   15906   15900       6   15906   15903       7
   15912   15909       6   15915   15909       6   15915   15912       7   15921
   15918       6   15924   15918       6   15924   15921       7   15930   15927
       6   15933   15927       6   15933   15930       7   15939   15936       6
   15942   15936       6   15942   15939       7   15948   15945       6   15951
   15945       6   15951   15948       7   15957   15954       6   15960   15954
       6   15960   15957       7   15966   15963       6   15969   15963       6
   15969   15966       7   15975   15972       6   15978   15972       6   15978
   15975       7   15984   15981       6   15987   15981       6   15987   15984
       7   15993   15990       6   15996   15990       6   15996   15993       7
   16002   15999       6   16005   15999       6   16005   16002       7   16011
   16008       6   16014   16008       6   16014   16011       7   16020   16017
       6   16023   16017       6   16023   16020       7   16029   16026       6
   16032   16026       6   16032   16029       7   16038   16035       6   16041
   16035       6   16041   16038       7   16047   16044       6   16050   16044
       6   16050   16047       7   16056   16053       6   16059   16053       6
   16059   16056       7   16065   16062       6   16068   16062       6   16068
   16065       7   16074   16071       6   16077   16071       6   16077   16074
       7   16083   16080       6   16086   16080       6   16086   16083       7
   16092   16089       6   16095   16089       6   16095   16092       7   16101
   16098       6   16104   16098       6   16104   16101       7   16110   16107
       6   16113   16107       6   16113   16110       7   16119   16116       6
   16122   16116       6   16122   16119       7   16128   16125       6   16131
   16125       6   16131   16128       7   16137   16134       6   16140   16134
       6   16140   16137       7   16146   16143       6   16149   16143       6
   16149   16146       7   16155   16152       6   16158   16152       6   16158
   16155       7   16164   16161       6   16167   16161       6   16167   16164
       7   16173   16170       6   16176   16170       6   16176   16173       7
   16182   16179       6   16185   16179       6   16185   16182       7   16191
   16188       6   16194   16188       6   16194   16191       7   16200   16197
       6   16203   16197       6   16203   16200       7   16209   16206       6
   16212   16206       6   16212   16209       7   16218   16215       6   16221
   16215       6   16221   16218       7   16227   16224       6   16230   16224
       6   16230   16227       7   16236   16233       6   16239   16233       6
   16239   16236       7   16245   16242       6   16248   16242       6   16248
   16245       7   16254   16251       6   16257   16251       6   16257   16254
       7   16263   16260       6   16266   16260       6   16266   16263       7
   16272   16269       6   16275   16269       6   16275   16272       7   16281
   16278       6   16284   16278       6   16284   16281       7   16290   16287
       6   16293   16287       6   16293   16290       7   16299   16296       6
   16302   16296       6   16302   16299       7   16308   16305       6   16311
   16305       6   16311   16308       7   16317   16314       6   16320   16314
       6   16320   16317       7   16326   16323       6   16329   16323       6
   16329   16326       7   16335   16332       6   16338   16332       6   16338
   16335       7   16344   16341       6   16347   16341       6   16347   16344
       7   16353   16350       6   16356   16350       6   16356   16353       7
   16362   16359       6   16365   16359       6   16365   16362       7   16371
   16368       6   16374   16368       6   16374   16371       7   16380   16377
       6   16383   16377       6   16383   16380       7   16389   16386       6
   16392   16386       6   16392   16389       7   16398   16395       6   16401
   16395       6   16401   16398       7   16407   16404       6   16410   16404
       6   16410   16407       7   16416   16413       6   16419   16413       6
   16419   16416       7   16425   16422       6   16428   16422       6   16428
   16425       7   16434   16431       6   16437   16431       6   16437   16434
       7   16443   16440       6   16446   16440       6   16446   16443       7
   16452   16449       6   16455   16449       6   16455   16452       7   16461
   16458       6   16464   16458       6   16464   16461       7   16470   16467
       6   16473   16467       6   16473   16470       7   16479   16476       6
   16482   16476       6   16482   16479       7   16488   16485       6   16491
   16485       6   16491   16488       7   16497   16494       6   16500   16494
       6   16500   16497       7   16506   16503       6   16509   16503       6
   16509   16506       7   16515   16512       6   16518   16512       6   16518
   16515       7   16524   16521       6   16527   16521       6   16527   16524
       7   16533   16530       6   16536   16530       6   16536   16533       7
   16542   16539       6   16545   16539       6   16545   16542       7   16551
   16548       6   16554   16548       6   16554   16551       7   16560   16557
       6   16563   16557       6   16563   16560       7   16569   16566       6
   16572   16566       6   16572   16569       7   16578   16575       6   16581
   16575       6   16581   16578       7   16587   16584       6   16590   16584
       6   16590   16587       7   16596   16593       6   16599   16593       6
   16599   16596       7   16605   16602       6   16608   16602       6   16608
   16605       7   16614   16611       6   16617   16611       6   16617   16614
       7   16623   16620       6   16626   16620       6   16626   16623       7
   16632   16629       6   16635   16629       6   16635   16632       7   16641
   16638       6   16644   16638       6   16644   16641       7   16650   16647
       6   16653   16647       6   16653   16650       7   16659   16656       6
   16662   16656       6   16662   16659       7   16668   16665       6   16671
   16665       6   16671   16668       7   16677   16674       6   16680   16674
       6   16680   16677       7   16686   16683       6   16689   16683       6
   16689   16686       7   16695   16692       6   16698   16692       6   16698
   16695       7   16704   16701       6   16707   16701       6   16707   16704
       7   16713   16710       6   16716   16710       6   16716   16713       7
   16722   16719       6   16725   16719       6   16725   16722       7   16731
   16728       6   16734   16728       6   16734   16731       7   16740   16737
       6   16743   16737       6   16743   16740       7   16749   16746       6
   16752   16746       6   16752   16749       7   16758   16755       6   16761
   16755       6   16761   16758       7   16767   16764       6   16770   16764
       6   16770   16767       7   16776   16773       6   16779   16773       6
   16779   16776       7   16785   16782       6   16788   16782       6   16788
   16785       7   16794   16791       6   16797   16791       6   16797   16794
       7   16803   16800       6   16806   16800       6   16806   16803       7
   16812   16809       6   16815   16809       6   16815   16812       7   16821
   16818       6   16824   16818       6   16824   16821       7   16830   16827
       6   16833   16827       6   16833   16830       7   16839   16836       6
   16842   16836       6   16842   16839       7   16848   16845       6   16851
   16845       6   16851   16848       7   16857   16854       6   16860   16854
       6   16860   16857       7   16866   16863       6   16869   16863       6
   16869   16866       7   16875   16872       6   16878   16872       6   16878
   16875       7   16884   16881       6   16887   16881       6   16887   16884
       7   16893   16890       6   16896   16890       6   16896   16893       7
   16902   16899       6   16905   16899       6   16905   16902       7   16911
   16908       6   16914   16908       6   16914   16911       7   16920   16917
       6   16923   16917       6   16923   16920       7   16929   16926       6
   16932   16926       6   16932   16929       7   16938   16935       6   16941
   16935       6   16941   16938       7   16947   16944       6   16950   16944
       6   16950   16947       7   16956   16953       6   16959   16953       6
   16959   16956       7   16965   16962       6   16968   16962       6   16968
   16965       7   16974   16971       6   16977   16971       6   16977   16974
       7   16983   16980       6   16986   16980       6   16986   16983       7
   16992   16989       6   16995   16989       6   16995   16992       7   17001
   16998       6   17004   16998       6   17004   17001       7   17010   17007
       6   17013   17007       6   17013   17010       7   17019   17016       6
   17022   17016       6   17022   17019       7   17028   17025       6   17031
   17025       6   17031   17028       7   17037   17034       6   17040   17034
       6   17040   17037       7   17046   17043       6   17049   17043       6
   17049   17046       7   17055   17052       6   17058   17052       6   17058
   17055       7   17064   17061       6   17067   17061       6   17067   17064
       7   17073   17070       6   17076   17070       6   17076   17073       7
   17082   17079       6   17085   17079       6   17085   17082       7   17091
   17088       6   17094   17088       6   17094   17091       7   17100   17097
       6   17103   17097       6   17103   17100       7   17109   17106       6
   17112   17106       6   17112   17109       7   17118   17115       6   17121
   17115       6   17121   17118       7   17127   17124       6   17130   17124
       6   17130   17127       7   17136   17133       6   17139   17133       6
   17139   17136       7   17145   17142       6   17148   17142       6   17148
   17145       7   17154   17151       6   17157   17151       6   17157   17154
       7   17163   17160       6   17166   17160       6   17166   17163       7
   17172   17169       6   17175   17169       6   17175   17172       7   17181
   17178       6   17184   17178       6   17184   17181       7   17190   17187
       6   17193   17187       6   17193   17190       7   17199   17196       6
   17202   17196       6   17202   17199       7   17208   17205       6   17211
   17205       6   17211   17208       7   17217   17214       6   17220   17214
       6   17220   17217       7   17226   17223       6   17229   17223       6
   17229   17226       7   17235   17232       6   17238   17232       6   17238
   17235       7   17244   17241       6   17247   17241       6   17247   17244
       7   17253   17250       6   17256   17250       6   17256   17253       7
   17262   17259       6   17265   17259       6   17265   17262       7   17271
   17268       6   17274   17268       6   17274   17271       7   17280   17277
       6   17283   17277       6   17283   17280       7   17289   17286       6
   17292   17286       6   17292   17289       7   17298   17295       6   17301
   17295       6   17301   17298       7   17307   17304       6   17310   17304
       6   17310   17307       7   17316   17313       6   17319   17313       6
   17319   17316       7   17325   17322       6   17328   17322       6   17328
   17325       7   17334   17331       6   17337   17331       6   17337   17334
       7   17343   17340       6   17346   17340       6   17346   17343       7
   17352   17349       6   17355   17349       6   17355   17352       7   17361
   17358       6   17364   17358       6   17364   17361       7   17370   17367
       6   17373   17367       6   17373   17370       7   17379   17376       6
   17382   17376       6   17382   17379       7   17388   17385       6   17391
   17385       6   17391   17388       7   17397   17394       6   17400   17394
       6   17400   17397       7   17406   17403       6   17409   17403       6
   17409   17406       7   17415   17412       6   17418   17412       6   17418
   17415       7   17424   17421       6   17427   17421       6   17427   17424
       7   17433   17430       6   17436   17430       6   17436   17433       7
   17442   17439       6   17445   17439       6   17445   17442       7   17451
   17448       6   17454   17448       6   17454   17451       7   17460   17457
       6   17463   17457       6   17463   17460       7   17469   17466       6
   17472   17466       6   17472   17469       7   17478   17475       6   17481
   17475       6   17481   17478       7   17487   17484       6   17490   17484
       6   17490   17487       7   17496   17493       6   17499   17493       6
   17499   17496       7   17505   17502       6   17508   17502       6   17508
   17505       7   17514   17511       6   17517   17511       6   17517   17514
       7   17523   17520       6   17526   17520       6   17526   17523       7
   17532   17529       6   17535   17529       6   17535   17532       7   17541
   17538       6   17544   17538       6   17544   17541       7   17550   17547
       6   17553   17547       6   17553   17550       7   17559   17556       6
   17562   17556       6   17562   17559       7   17568   17565       6   17571
   17565       6   17571   17568       7   17577   17574       6   17580   17574
       6   17580   17577       7   17586   17583       6   17589   17583       6
   17589   17586       7   17595   17592       6   17598   17592       6   17598
   17595       7   17604   17601       6   17607   17601       6   17607   17604
       7   17613   17610       6   17616   17610       6   17616   17613       7
   17622   17619       6   17625   17619       6   17625   17622       7   17631
   17628       6   17634   17628       6   17634   17631       7   17640   17637
       6   17643   17637       6   17643   17640       7   17649   17646       6
   17652   17646       6   17652   17649       7   17658   17655       6   17661
   17655       6   17661   17658       7   17667   17664       6   17670   17664
       6   17670   17667       7   17676   17673       6   17679   17673       6
   17679   17676       7   17685   17682       6   17688   17682       6   17688
   17685       7   17694   17691       6   17697   17691       6   17697   17694
       7   17703   17700       6   17706   17700       6   17706   17703       7
   17712   17709       6   17715   17709       6   17715   17712       7   17721
   17718       6   17724   17718       6   17724   17721       7   17730   17727
       6   17733   17727       6   17733   17730       7   17739   17736       6
   17742   17736       6   17742   17739       7   17748   17745       6   17751
   17745       6   17751   17748       7   17757   17754       6   17760   17754
       6   17760   17757       7   17766   17763       6   17769   17763       6
   17769   17766       7   17775   17772       6   17778   17772       6   17778
   17775       7   17784   17781       6   17787   17781       6   17787   17784
       7   17793   17790       6   17796   17790       6   17796   17793       7
   17802   17799       6   17805   17799       6   17805   17802       7   17811
   17808       6   17814   17808       6   17814   17811       7   17820   17817
       6   17823   17817       6   17823   17820       7   17829   17826       6
   17832   17826       6   17832   17829       7   17838   17835       6   17841
   17835       6   17841   17838       7   17847   17844       6   17850   17844
       6   17850   17847       7   17856   17853       6   17859   17853       6
   17859   17856       7   17865   17862       6   17868   17862       6   17868
   17865       7   17874   17871       6   17877   17871       6   17877   17874
       7   17883   17880       6   17886   17880       6   17886   17883       7
   17892   17889       6   17895   17889       6   17895   17892       7   17901
   17898       6   17904   17898       6   17904   17901       7   17910   17907
       6   17913   17907       6   17913   17910       7   17919   17916       6
   17922   17916       6   17922   17919       7   17928   17925       6   17931
   17925       6   17931   17928       7   17937   17934       6   17940   17934
       6   17940   17937       7   17946   17943       6   17949   17943       6
   17949   17946       7   17955   17952       6   17958   17952       6   17958
   17955       7   17964   17961       6   17967   17961       6   17967   17964
       7   17973   17970       6   17976   17970       6   17976   17973       7
   17982   17979       6   17985   17979       6   17985   17982       7   17991
   17988       6   17994   17988       6   17994   17991       7   18000   17997
       6   18003   17997       6   18003   18000       7   18009   18006       6
   18012   18006       6   18012   18009       7   18018   18015       6   18021
   18015       6   18021   18018       7   18027   18024       6   18030   18024
       6   18030   18027       7   18036   18033       6   18039   18033       6
   18039   18036       7   18045   18042       6   18048   18042       6   18048
   18045       7   18054   18051       6   18057   18051       6   18057   18054
       7   18063   18060       6   18066   18060       6   18066   18063       7
   18072   18069       6   18075   18069       6   18075   18072       7   18081
   18078       6   18084   18078       6   18084   18081       7   18090   18087
       6   18093   18087       6   18093   18090       7   18099   18096       6
   18102   18096       6   18102   18099       7   18108   18105       6   18111
   18105       6   18111   18108       7   18117   18114       6   18120   18114
       6   18120   18117       7   18126   18123       6   18129   18123       6
   18129   18126       7   18135   18132       6   18138   18132       6   18138
   18135       7   18144   18141       6   18147   18141       6   18147   18144
       7   18153   18150       6   18156   18150       6   18156   18153       7
   18162   18159       6   18165   18159       6   18165   18162       7   18171
   18168       6   18174   18168       6   18174   18171       7   18180   18177
       6   18183   18177       6   18183   18180       7   18189   18186       6
   18192   18186       6   18192   18189       7   18198   18195       6   18201
   18195       6   18201   18198       7   18207   18204       6   18210   18204
       6   18210   18207       7   18216   18213       6   18219   18213       6
   18219   18216       7   18225   18222       6   18228   18222       6   18228
   18225       7   18234   18231       6   18237   18231       6   18237   18234
       7   18243   18240       6   18246   18240       6   18246   18243       7
   18252   18249       6   18255   18249       6   18255   18252       7   18261
   18258       6   18264   18258       6   18264   18261       7   18270   18267
       6   18273   18267       6   18273   18270       7   18279   18276       6
   18282   18276       6   18282   18279       7   18288   18285       6   18291
   18285       6   18291   18288       7   18297   18294       6   18300   18294
       6   18300   18297       7   18306   18303       6   18309   18303       6
   18309   18306       7   18315   18312       6   18318   18312       6   18318
   18315       7   18324   18321       6   18327   18321       6   18327   18324
       7   18333   18330       6   18336   18330       6   18336   18333       7
   18342   18339       6   18345   18339       6   18345   18342       7   18351
   18348       6   18354   18348       6   18354   18351       7   18360   18357
       6   18363   18357       6   18363   18360       7   18369   18366       6
   18372   18366       6   18372   18369       7   18378   18375       6   18381
   18375       6   18381   18378       7   18387   18384       6   18390   18384
       6   18390   18387       7   18396   18393       6   18399   18393       6
   18399   18396       7   18405   18402       6   18408   18402       6   18408
   18405       7   18414   18411       6   18417   18411       6   18417   18414
       7   18423   18420       6   18426   18420       6   18426   18423       7
   18432   18429       6   18435   18429       6   18435   18432       7   18441
   18438       6   18444   18438       6   18444   18441       7   18450   18447
       6   18453   18447       6   18453   18450       7   18459   18456       6
   18462   18456       6   18462   18459       7   18468   18465       6   18471
   18465       6   18471   18468       7   18477   18474       6   18480   18474
       6   18480   18477       7   18486   18483       6   18489   18483       6
   18489   18486       7   18495   18492       6   18498   18492       6   18498
   18495       7   18504   18501       6   18507   18501       6   18507   18504
       7   18513   18510       6   18516   18510       6   18516   18513       7
   18522   18519       6   18525   18519       6   18525   18522       7   18531
   18528       6   18534   18528       6   18534   18531       7   18540   18537
       6   18543   18537       6   18543   18540       7   18549   18546       6
   18552   18546       6   18552   18549       7   18558   18555       6   18561
   18555       6   18561   18558       7   18567   18564       6   18570   18564
       6   18570   18567       7   18576   18573       6   18579   18573       6
   18579   18576       7   18585   18582       6   18588   18582       6   18588
   18585       7   18594   18591       6   18597   18591       6   18597   18594
       7   18603   18600       6   18606   18600       6   18606   18603       7
   18612   18609       6   18615   18609       6   18615   18612       7   18621
   18618       6   18624   18618       6   18624   18621       7   18630   18627
       6   18633   18627       6   18633   18630       7   18639   18636       6
   18642   18636       6   18642   18639       7   18648   18645       6   18651
   18645       6   18651   18648       7   18657   18654       6   18660   18654
       6   18660   18657       7   18666   18663       6   18669   18663       6
   18669   18666       7   18675   18672       6   18678   18672       6   18678
   18675       7   18684   18681       6   18687   18681       6   18687   18684
       7   18693   18690       6   18696   18690       6   18696   18693       7
   18702   18699       6   18705   18699       6   18705   18702       7   18711
   18708       6   18714   18708       6   18714   18711       7   18720   18717
       6   18723   18717       6   18723   18720       7   18729   18726       6
   18732   18726       6   18732   18729       7   18738   18735       6   18741
   18735       6   18741   18738       7   18747   18744       6   18750   18744
       6   18750   18747       7   18756   18753       6   18759   18753       6
   18759   18756       7   18765   18762       6   18768   18762       6   18768
   18765       7   18774   18771       6   18777   18771       6   18777   18774
       7   18783   18780       6   18786   18780       6   18786   18783       7
   18792   18789       6   18795   18789       6   18795   18792       7   18801
   18798       6   18804   18798       6   18804   18801       7   18810   18807
       6   18813   18807       6   18813   18810       7   18819   18816       6
   18822   18816       6   18822   18819       7   18828   18825       6   18831
   18825       6   18831   18828       7   18837   18834       6   18840   18834
       6   18840   18837       7   18846   18843       6   18849   18843       6
   18849   18846       7   18855   18852       6   18858   18852       6   18858
   18855       7   18864   18861       6   18867   18861       6   18867   18864
       7   18873   18870       6   18876   18870       6   18876   18873       7
   18882   18879       6   18885   18879       6   18885   18882       7   18891
   18888       6   18894   18888       6   18894   18891       7   18900   18897
       6   18903   18897       6   18903   18900       7   18909   18906       6
   18912   18906       6   18912   18909       7   18918   18915       6   18921
   18915       6   18921   18918       7   18927   18924       6   18930   18924
       6   18930   18927       7   18936   18933       6   18939   18933       6
   18939   18936       7   18945   18942       6   18948   18942       6   18948
   18945       7   18954   18951       6   18957   18951       6   18957   18954
       7   18963   18960       6   18966   18960       6   18966   18963       7
   18972   18969       6   18975   18969       6   18975   18972       7   18981
   18978       6   18984   18978       6   18984   18981       7   18990   18987
       6   18993   18987       6   18993   18990       7   18999   18996       6
   19002   18996       6   19002   18999       7   19008   19005       6   19011
   19005       6   19011   19008       7   19017   19014       6   19020   19014
       6   19020   19017       7   19026   19023       6   19029   19023       6
   19029   19026       7   19035   19032       6   19038   19032       6   19038
   19035       7   19044   19041       6   19047   19041       6   19047   19044
       7   19053   19050       6   19056   19050       6   19056   19053       7
   19062   19059       6   19065   19059       6   19065   19062       7   19071
   19068       6   19074   19068       6   19074   19071       7   19080   19077
       6   19083   19077       6   19083   19080       7   19089   19086       6
   19092   19086       6   19092   19089       7   19098   19095       6   19101
   19095       6   19101   19098       7   19107   19104       6   19110   19104
       6   19110   19107       7   19116   19113       6   19119   19113       6
   19119   19116       7   19125   19122       6   19128   19122       6   19128
   19125       7   19134   19131       6   19137   19131       6   19137   19134
       7   19143   19140       6   19146   19140       6   19146   19143       7
   19152   19149       6   19155   19149       6   19155   19152       7   19161
   19158       6   19164   19158       6   19164   19161       7   19170   19167
       6   19173   19167       6   19173   19170       7   19179   19176       6
   19182   19176       6   19182   19179       7   19188   19185       6   19191
   19185       6   19191   19188       7   19197   19194       6   19200   19194
       6   19200   19197       7   19206   19203       6   19209   19203       6
   19209   19206       7   19215   19212       6   19218   19212       6   19218
   19215       7   19224   19221       6   19227   19221       6   19227   19224
       7   19233   19230       6   19236   19230       6   19236   19233       7
   19242   19239       6   19245   19239       6   19245   19242       7   19251
   19248       6   19254   19248       6   19254   19251       7   19260   19257
       6   19263   19257       6   19263   19260       7   19269   19266       6
   19272   19266       6   19272   19269       7   19278   19275       6   19281
   19275       6   19281   19278       7   19287   19284       6   19290   19284
       6   19290   19287       7   19296   19293       6   19299   19293       6
   19299   19296       7   19305   19302       6   19308   19302       6   19308
   19305       7   19314   19311       6   19317   19311       6   19317   19314
       7   19323   19320       6   19326   19320       6   19326   19323       7
   19332   19329       6   19335   19329       6   19335   19332       7   19341
   19338       6   19344   19338       6   19344   19341       7   19350   19347
       6   19353   19347       6   19353   19350       7   19359   19356       6
   19362   19356       6   19362   19359       7   19368   19365       6   19371
   19365       6   19371   19368       7   19377   19374       6   19380   19374
       6   19380   19377       7   19386   19383       6   19389   19383       6
   19389   19386       7   19395   19392       6   19398   19392       6   19398
   19395       7   19404   19401       6   19407   19401       6   19407   19404
       7   19413   19410       6   19416   19410       6   19416   19413       7
   19422   19419       6   19425   19419       6   19425   19422       7   19431
   19428       6   19434   19428       6   19434   19431       7   19440   19437
       6   19443   19437       6   19443   19440       7   19449   19446       6
   19452   19446       6   19452   19449       7   19458   19455       6   19461
   19455       6   19461   19458       7   19467   19464       6   19470   19464
       6   19470   19467       7   19476   19473       6   19479   19473       6
   19479   19476       7   19485   19482       6   19488   19482       6   19488
   19485       7   19494   19491       6   19497   19491       6   19497   19494
       7   19503   19500       6   19506   19500       6   19506   19503       7
   19512   19509       6   19515   19509       6   19515   19512       7   19521
   19518       6   19524   19518       6   19524   19521       7   19530   19527
       6   19533   19527       6   19533   19530       7   19539   19536       6
   19542   19536       6   19542   19539       7   19548   19545       6   19551
   19545       6   19551   19548       7   19557   19554       6   19560   19554
       6   19560   19557       7   19566   19563       6   19569   19563       6
   19569   19566       7   19575   19572       6   19578   19572       6   19578
   19575       7   19584   19581       6   19587   19581       6   19587   19584
       7   19593   19590       6   19596   19590       6   19596   19593       7
   19602   19599       6   19605   19599       6   19605   19602       7   19611
   19608       6   19614   19608       6   19614   19611       7   19620   19617
       6   19623   19617       6   19623   19620       7   19629   19626       6
   19632   19626       6   19632   19629       7   19638   19635       6   19641
   19635       6   19641   19638       7   19647   19644       6   19650   19644
       6   19650   19647       7   19656   19653       6   19659   19653       6
   19659   19656       7   19665   19662       6   19668   19662       6   19668
   19665       7   19674   19671       6   19677   19671       6   19677   19674
       7   19683   19680       6   19686   19680       6   19686   19683       7
   19692   19689       6   19695   19689       6   19695   19692       7   19701
   19698       6   19704   19698       6   19704   19701       7   19710   19707
       6   19713   19707       6   19713   19710       7   19719   19716       6
   19722   19716       6   19722   19719       7   19728   19725       6   19731
   19725       6   19731   19728       7   19737   19734       6   19740   19734
       6   19740   19737       7   19746   19743       6   19749   19743       6
   19749   19746       7   19755   19752       6   19758   19752       6   19758
   19755       7   19764   19761       6   19767   19761       6   19767   19764
       7   19773   19770       6   19776   19770       6   19776   19773       7
   19782   19779       6   19785   19779       6   19785   19782       7   19791
   19788       6   19794   19788       6   19794   19791       7   19800   19797
       6   19803   19797       6   19803   19800       7   19809   19806       6
   19812   19806       6   19812   19809       7   19818   19815       6   19821
   19815       6   19821   19818       7   19827   19824       6   19830   19824
       6   19830   19827       7   19836   19833       6   19839   19833       6
   19839   19836       7   19845   19842       6   19848   19842       6   19848
   19845       7   19854   19851       6   19857   19851       6   19857   19854
       7   19863   19860       6   19866   19860       6   19866   19863       7
   19872   19869       6   19875   19869       6   19875   19872       7   19881
   19878       6   19884   19878       6   19884   19881       7   19890   19887
       6   19893   19887       6   19893   19890       7   19899   19896       6
   19902   19896       6   19902   19899       7   19908   19905       6   19911
   19905       6   19911   19908       7   19917   19914       6   19920   19914
       6   19920   19917       7   19926   19923       6   19929   19923       6
   19929   19926       7   19935   19932       6   19938   19932       6   19938
   19935       7   19944   19941       6   19947   19941       6   19947   19944
       7   19953   19950       6   19956   19950       6   19956   19953       7
   19962   19959       6   19965   19959       6   19965   19962       7   19971
   19968       6   19974   19968       6   19974   19971       7   19980   19977
       6   19983   19977       6   19983   19980       7   19989   19986       6
   19992   19986       6   19992   19989       7   19998   19995       6   20001
   19995       6   20001   19998       7   20007   20004       6   20010   20004
       6   20010   20007       7   20016   20013       6   20019   20013       6
   20019   20016       7   20025   20022       6   20028   20022       6   20028
   20025       7   20034   20031       6   20037   20031       6   20037   20034
       7   20043   20040       6   20046   20040       6   20046   20043       7
   20052   20049       6   20055   20049       6   20055   20052       7   20061
   20058       6   20064   20058       6   20064   20061       7   20070   20067
       6   20073   20067       6   20073   20070       7   20079   20076       6
   20082   20076       6   20082   20079       7   20088   20085       6   20091
   20085       6   20091   20088       7   20097   20094       6   20100   20094
       6   20100   20097       7   20106   20103       6   20109   20103       6
   20109   20106       7   20115   20112       6   20118   20112       6   20118
   20115       7   20124   20121       6   20127   20121       6   20127   20124
       7   20133   20130       6   20136   20130       6   20136   20133       7
   20142   20139       6   20145   20139       6   20145   20142       7   20151
   20148       6   20154   20148       6   20154   20151       7   20160   20157
       6   20163   20157       6   20163   20160       7   20169   20166       6
   20172   20166       6   20172   20169       7   20178   20175       6   20181
   20175       6   20181   20178       7   20187   20184       6   20190   20184
       6   20190   20187       7   20196   20193       6   20199   20193       6
   20199   20196       7   20205   20202       6   20208   20202       6   20208
   20205       7   20214   20211       6   20217   20211       6   20217   20214
       7   20223   20220       6   20226   20220       6   20226   20223       7
   20232   20229       6   20235   20229       6   20235   20232       7   20241
   20238       6   20244   20238       6   20244   20241       7   20250   20247
       6   20253   20247       6   20253   20250       7   20259   20256       6
   20262   20256       6   20262   20259       7   20268   20265       6   20271
   20265       6   20271   20268       7   20277   20274       6   20280   20274
       6   20280   20277       7   20286   20283       6   20289   20283       6
   20289   20286       7   20295   20292       6   20298   20292       6   20298
   20295       7   20304   20301       6   20307   20301       6   20307   20304
       7   20313   20310       6   20316   20310       6   20316   20313       7
   20322   20319       6   20325   20319       6   20325   20322       7   20331
   20328       6   20334   20328       6   20334   20331       7   20340   20337
       6   20343   20337       6   20343   20340       7   20349   20346       6
   20352   20346       6   20352   20349       7   20358   20355       6   20361
   20355       6   20361   20358       7   20367   20364       6   20370   20364
       6   20370   20367       7   20376   20373       6   20379   20373       6
   20379   20376       7   20385   20382       6   20388   20382       6   20388
   20385       7   20394   20391       6   20397   20391       6   20397   20394
       7   20403   20400       6   20406   20400       6   20406   20403       7
   20412   20409       6   20415   20409       6   20415   20412       7   20421
   20418       6   20424   20418       6   20424   20421       7   20430   20427
       6   20433   20427       6   20433   20430       7   20439   20436       6
   20442   20436       6   20442   20439       7   20448   20445       6   20451
   20445       6   20451   20448       7   20457   20454       6   20460   20454
       6   20460   20457       7   20466   20463       6   20469   20463       6
   20469   20466       7   20475   20472       6   20478   20472       6   20478
   20475       7   20484   20481       6   20487   20481       6   20487   20484
       7   20493   20490       6   20496   20490       6   20496   20493       7
   20502   20499       6   20505   20499       6   20505   20502       7   20511
   20508       6   20514   20508       6   20514   20511       7   20520   20517
       6   20523   20517       6   20523   20520       7   20529   20526       6
   20532   20526       6   20532   20529       7   20538   20535       6   20541
   20535       6   20541   20538       7   20547   20544       6   20550   20544
       6   20550   20547       7   20556   20553       6   20559   20553       6
   20559   20556       7   20565   20562       6   20568   20562       6   20568
   20565       7   20574   20571       6   20577   20571       6   20577   20574
       7   20583   20580       6   20586   20580       6   20586   20583       7
   20592   20589       6   20595   20589       6   20595   20592       7   20601
   20598       6   20604   20598       6   20604   20601       7   20610   20607
       6   20613   20607       6   20613   20610       7   20619   20616       6
   20622   20616       6   20622   20619       7   20628   20625       6   20631
   20625       6   20631   20628       7   20637   20634       6   20640   20634
       6   20640   20637       7   20646   20643       6   20649   20643       6
   20649   20646       7   20655   20652       6   20658   20652       6   20658
   20655       7   20664   20661       6   20667   20661       6   20667   20664
       7   20673   20670       6   20676   20670       6   20676   20673       7
   20682   20679       6   20685   20679       6   20685   20682       7   20691
   20688       6   20694   20688       6   20694   20691       7   20700   20697
       6   20703   20697       6   20703   20700       7   20709   20706       6
   20712   20706       6   20712   20709       7   20718   20715       6   20721
   20715       6   20721   20718       7   20727   20724       6   20730   20724
       6   20730   20727       7   20736   20733       6   20739   20733       6
   20739   20736       7   20745   20742       6   20748   20742       6   20748
   20745       7   20754   20751       6   20757   20751       6   20757   20754
       7   20763   20760       6   20766   20760       6   20766   20763       7
   20772   20769       6   20775   20769       6   20775   20772       7   20781
   20778       6   20784   20778       6   20784   20781       7   20790   20787
       6   20793   20787       6   20793   20790       7   20799   20796       6
   20802   20796       6   20802   20799       7   20808   20805       6   20811
   20805       6   20811   20808       7   20817   20814       6   20820   20814
       6   20820   20817       7   20826   20823       6   20829   20823       6
   20829   20826       7   20835   20832       6   20838   20832       6   20838
   20835       7   20844   20841       6   20847   20841       6   20847   20844
       7   20853   20850       6   20856   20850       6   20856   20853       7
   20862   20859       6   20865   20859       6   20865   20862       7   20871
   20868       6   20874   20868       6   20874   20871       7   20880   20877
       6   20883   20877       6   20883   20880       7   20889   20886       6
   20892   20886       6   20892   20889       7   20898   20895       6   20901
   20895       6   20901   20898       7   20907   20904       6   20910   20904
       6   20910   20907       7   20916   20913       6   20919   20913       6
   20919   20916       7   20925   20922       6   20928   20922       6   20928
   20925       7   20934   20931       6   20937   20931       6   20937   20934
       7   20943   20940       6   20946   20940       6   20946   20943       7
   20952   20949       6   20955   20949       6   20955   20952       7   20961
   20958       6   20964   20958       6   20964   20961       7   20970   20967
       6   20973   20967       6   20973   20970       7   20979   20976       6
   20982   20976       6   20982   20979       7   20988   20985       6   20991
   20985       6   20991   20988       7   20997   20994       6   21000   20994
       6   21000   20997       7   21006   21003       6   21009   21003       6
   21009   21006       7   21015   21012       6   21018   21012       6   21018
   21015       7   21024   21021       6   21027   21021       6   21027   21024
       7   21033   21030       6   21036   21030       6   21036   21033       7
   21042   21039       6   21045   21039       6   21045   21042       7   21051
   21048       6   21054   21048       6   21054   21051       7   21060   21057
       6   21063   21057       6   21063   21060       7   21069   21066       6
   21072   21066       6   21072   21069       7   21078   21075       6   21081
   21075       6   21081   21078       7   21087   21084       6   21090   21084
       6   21090   21087       7   21096   21093       6   21099   21093       6
   21099   21096       7   21105   21102       6   21108   21102       6   21108
   21105       7   21114   21111       6   21117   21111       6   21117   21114
       7   21123   21120       6   21126   21120       6   21126   21123       7
   21132   21129       6   21135   21129       6   21135   21132       7   21141
   21138       6   21144   21138       6   21144   21141       7   21150   21147
       6   21153   21147       6   21153   21150       7   21159   21156       6
   21162   21156       6   21162   21159       7   21168   21165       6   21171
   21165       6   21171   21168       7   21177   21174       6   21180   21174
       6   21180   21177       7   21186   21183       6   21189   21183       6
   21189   21186       7   21195   21192       6   21198   21192       6   21198
   21195       7   21204   21201       6   21207   21201       6   21207   21204
       7   21213   21210       6   21216   21210       6   21216   21213       7
   21222   21219       6   21225   21219       6   21225   21222       7   21231
   21228       6   21234   21228       6   21234   21231       7   21240   21237
       6   21243   21237       6   21243   21240       7   21249   21246       6
   21252   21246       6   21252   21249       7   21258   21255       6   21261
   21255       6   21261   21258       7   21267   21264       6   21270   21264
       6   21270   21267       7   21276   21273       6   21279   21273       6
   21279   21276       7   21285   21282       6   21288   21282       6   21288
   21285       7   21294   21291       6   21297   21291       6   21297   21294
       7   21303   21300       6   21306   21300       6   21306   21303       7
   21312   21309       6   21315   21309       6   21315   21312       7   21321
   21318       6   21324   21318       6   21324   21321       7   21330   21327
       6   21333   21327       6   21333   21330       7   21339   21336       6
   21342   21336       6   21342   21339       7   21348   21345       6   21351
   21345       6   21351   21348       7   21357   21354       6   21360   21354
       6   21360   21357       7   21366   21363       6   21369   21363       6
   21369   21366       7   21375   21372       6   21378   21372       6   21378
   21375       7   21384   21381       6   21387   21381       6   21387   21384
       7   21393   21390       6   21396   21390       6   21396   21393       7
   21402   21399       6   21405   21399       6   21405   21402       7   21411
   21408       6   21414   21408       6   21414   21411       7   21420   21417
       6   21423   21417       6   21423   21420       7   21429   21426       6
   21432   21426       6   21432   21429       7   21438   21435       6   21441
   21435       6   21441   21438       7   21447   21444       6   21450   21444
       6   21450   21447       7   21456   21453       6   21459   21453       6
   21459   21456       7   21465   21462       6   21468   21462       6   21468
   21465       7   21474   21471       6   21477   21471       6   21477   21474
       7   21483   21480       6   21486   21480       6   21486   21483       7
   21492   21489       6   21495   21489       6   21495   21492       7   21501
   21498       6   21504   21498       6   21504   21501       7   21510   21507
       6   21513   21507       6   21513   21510       7   21519   21516       6
   21522   21516       6   21522   21519       7   21528   21525       6   21531
   21525       6   21531   21528       7   21537   21534       6   21540   21534
       6   21540   21537       7   21546   21543       6   21549   21543       6
   21549   21546       7   21555   21552       6   21558   21552       6   21558
   21555       7   21564   21561       6   21567   21561       6   21567   21564
       7   21573   21570       6   21576   21570       6   21576   21573       7
   21582   21579       6   21585   21579       6   21585   21582       7   21591
   21588       6   21594   21588       6   21594   21591       7   21600   21597
       6   21603   21597       6   21603   21600       7   21609   21606       6
   21612   21606       6   21612   21609       7   21618   21615       6   21621
   21615       6   21621   21618       7   21627   21624       6   21630   21624
       6   21630   21627       7   21636   21633       6   21639   21633       6
   21639   21636       7   21645   21642       6   21648   21642       6   21648
   21645       7   21654   21651       6   21657   21651       6   21657   21654
       7   21663   21660       6   21666   21660       6   21666   21663       7
   21672   21669       6   21675   21669       6   21675   21672       7   21681
   21678       6   21684   21678       6   21684   21681       7   21690   21687
       6   21693   21687       6   21693   21690       7   21699   21696       6
   21702   21696       6   21702   21699       7   21708   21705       6   21711
   21705       6   21711   21708       7   21717   21714       6   21720   21714
       6   21720   21717       7   21726   21723       6   21729   21723       6
   21729   21726       7   21735   21732       6   21738   21732       6   21738
   21735       7   21744   21741       6   21747   21741       6   21747   21744
       7   21753   21750       6   21756   21750       6   21756   21753       7
   21762   21759       6   21765   21759       6   21765   21762       7   21771
   21768       6   21774   21768       6   21774   21771       7   21780   21777
       6   21783   21777       6   21783   21780       7   21789   21786       6
   21792   21786       6   21792   21789       7   21798   21795       6   21801
   21795       6   21801   21798       7   21807   21804       6   21810   21804
       6   21810   21807       7   21816   21813       6   21819   21813       6
   21819   21816       7   21825   21822       6   21828   21822       6   21828
   21825       7   21834   21831       6   21837   21831       6   21837   21834
       7   21843   21840       6   21846   21840       6   21846   21843       7
   21852   21849       6   21855   21849       6   21855   21852       7   21861
   21858       6   21864   21858       6   21864   21861       7   21870   21867
       6   21873   21867       6   21873   21870       7   21879   21876       6
   21882   21876       6   21882   21879       7   21888   21885       6   21891
   21885       6   21891   21888       7   21897   21894       6   21900   21894
       6   21900   21897       7   21906   21903       6   21909   21903       6
   21909   21906       7   21915   21912       6   21918   21912       6   21918
   21915       7   21924   21921       6   21927   21921       6   21927   21924
       7   21933   21930       6   21936   21930       6   21936   21933       7
   21942   21939       6   21945   21939       6   21945   21942       7   21951
   21948       6   21954   21948       6   21954   21951       7   21960   21957
       6   21963   21957       6   21963   21960       7   21969   21966       6
   21972   21966       6   21972   21969       7   21978   21975       6   21981
   21975       6   21981   21978       7   21987   21984       6   21990   21984
       6   21990   21987       7   21996   21993       6   21999   21993       6
   21999   21996       7   22005   22002       6   22008   22002       6   22008
   22005       7   22014   22011       6   22017   22011       6   22017   22014
       7   22023   22020       6   22026   22020       6   22026   22023       7
   22032   22029       6   22035   22029       6   22035   22032       7   22041
   22038       6   22044   22038       6   22044   22041       7   22050   22047
       6   22053   22047       6   22053   22050       7   22059   22056       6
   22062   22056       6   22062   22059       7   22068   22065       6   22071
   22065       6   22071   22068       7   22077   22074       6   22080   22074
       6   22080   22077       7   22086   22083       6   22089   22083       6
   22089   22086       7   22095   22092       6   22098   22092       6   22098
   22095       7   22104   22101       6   22107   22101       6   22107   22104
       7   22113   22110       6   22116   22110       6   22116   22113       7
   22122   22119       6   22125   22119       6   22125   22122       7   22131
   22128       6   22134   22128       6   22134   22131       7   22140   22137
       6   22143   22137       6   22143   22140       7   22149   22146       6
   22152   22146       6   22152   22149       7   22158   22155       6   22161
   22155       6   22161   22158       7   22167   22164       6   22170   22164
       6   22170   22167       7   22176   22173       6   22179   22173       6
   22179   22176       7   22185   22182       6   22188   22182       6   22188
   22185       7   22194   22191       6   22197   22191       6   22197   22194
       7   22203   22200       6   22206   22200       6   22206   22203       7
   22212   22209       6   22215   22209       6   22215   22212       7   22221
   22218       6   22224   22218       6   22224   22221       7   22230   22227
       6   22233   22227       6   22233   22230       7   22239   22236       6
   22242   22236       6   22242   22239       7   22248   22245       6   22251
   22245       6   22251   22248       7   22257   22254       6   22260   22254
       6   22260   22257       7   22266   22263       6   22269   22263       6
   22269   22266       7   22275   22272       6   22278   22272       6   22278
   22275       7   22284   22281       6   22287   22281       6   22287   22284
       7   22293   22290       6   22296   22290       6   22296   22293       7
   22302   22299       6   22305   22299       6   22305   22302       7   22311
   22308       6   22314   22308       6   22314   22311       7   22320   22317
       6   22323   22317       6   22323   22320       7   22329   22326       6
   22332   22326       6   22332   22329       7   22338   22335       6   22341
   22335       6   22341   22338       7   22347   22344       6   22350   22344
       6   22350   22347       7   22356   22353       6   22359   22353       6
   22359   22356       7   22365   22362       6   22368   22362       6   22368
   22365       7   22374   22371       6   22377   22371       6   22377   22374
       7   22383   22380       6   22386   22380       6   22386   22383       7
   22392   22389       6   22395   22389       6   22395   22392       7   22401
   22398       6   22404   22398       6   22404   22401       7   22410   22407
       6   22413   22407       6   22413   22410       7   22419   22416       6
   22422   22416       6   22422   22419       7   22428   22425       6   22431
   22425       6   22431   22428       7   22437   22434       6   22440   22434
       6   22440   22437       7   22446   22443       6   22449   22443       6
   22449   22446       7   22455   22452       6   22458   22452       6   22458
   22455       7   22464   22461       6   22467   22461       6   22467   22464
       7   22473   22470       6   22476   22470       6   22476   22473       7
   22482   22479       6   22485   22479       6   22485   22482       7   22491
   22488       6   22494   22488       6   22494   22491       7   22500   22497
       6   22503   22497       6   22503   22500       7   22509   22506       6
   22512   22506       6   22512   22509       7   22518   22515       6   22521
   22515       6   22521   22518       7   22527   22524       6   22530   22524
       6   22530   22527       7   22536   22533       6   22539   22533       6
   22539   22536       7   22545   22542       6   22548   22542       6   22548
   22545       7   22554   22551       6   22557   22551       6   22557   22554
       7   22563   22560       6   22566   22560       6   22566   22563       7
   22572   22569       6   22575   22569       6   22575   22572       7   22581
   22578       6   22584   22578       6   22584   22581       7   22590   22587
       6   22593   22587       6   22593   22590       7   22599   22596       6
   22602   22596       6   22602   22599       7   22608   22605       6   22611
   22605       6   22611   22608       7   22617   22614       6   22620   22614
       6   22620   22617       7   22626   22623       6   22629   22623       6
   22629   22626       7   22635   22632       6   22638   22632       6   22638
   22635       7   22644   22641       6   22647   22641       6   22647   22644
       7   22653   22650       6   22656   22650       6   22656   22653       7
   22662   22659       6   22665   22659       6   22665   22662       7   22671
   22668       6   22674   22668       6   22674   22671       7   22680   22677
       6   22683   22677       6   22683   22680       7   22689   22686       6
   22692   22686       6   22692   22689       7   22698   22695       6   22701
   22695       6   22701   22698       7   22707   22704       6   22710   22704
       6   22710   22707       7   22716   22713       6   22719   22713       6
   22719   22716       7   22725   22722       6   22728   22722       6   22728
   22725       7   22734   22731       6   22737   22731       6   22737   22734
       7   22743   22740       6   22746   22740       6   22746   22743       7
   22752   22749       6   22755   22749       6   22755   22752       7   22761
   22758       6   22764   22758       6   22764   22761       7   22770   22767
       6   22773   22767       6   22773   22770       7   22779   22776       6
   22782   22776       6   22782   22779       7   22788   22785       6   22791
   22785       6   22791   22788       7   22797   22794       6   22800   22794
       6   22800   22797       7   22806   22803       6   22809   22803       6
   22809   22806       7   22815   22812       6   22818   22812       6   22818
   22815       7   22824   22821       6   22827   22821       6   22827   22824
       7   22833   22830       6   22836   22830       6   22836   22833       7
   22842   22839       6   22845   22839       6   22845   22842       7   22851
   22848       6   22854   22848       6   22854   22851       7   22860   22857
       6   22863   22857       6   22863   22860       7   22869   22866       6
   22872   22866       6   22872   22869       7   22878   22875       6   22881
   22875       6   22881   22878       7   22887   22884       6   22890   22884
       6   22890   22887       7   22896   22893       6   22899   22893       6
   22899   22896       7   22905   22902       6   22908   22902       6   22908
   22905       7   22914   22911       6   22917   22911       6   22917   22914
       7   22923   22920       6   22926   22920       6   22926   22923       7
   22932   22929       6   22935   22929       6   22935   22932       7   22941
   22938       6   22944   22938       6   22944   22941       7   22950   22947
       6   22953   22947       6   22953   22950       7   22959   22956       6
   22962   22956       6   22962   22959       7   22968   22965       6   22971
   22965       6   22971   22968       7   22977   22974       6   22980   22974
       6   22980   22977       7   22986   22983       6   22989   22983       6
   22989   22986       7   22995   22992       6   22998   22992       6   22998
   22995       7   23004   23001       6   23007   23001       6   23007   23004
       7   23013   23010       6   23016   23010       6   23016   23013       7
   23022   23019       6   23025   23019       6   23025   23022       7   23031
   23028       6   23034   23028       6   23034   23031       7   23040   23037
       6   23043   23037       6   23043   23040       7   23049   23046       6
   23052   23046       6   23052   23049       7   23058   23055       6   23061
   23055       6   23061   23058       7   23067   23064       6   23070   23064
       6   23070   23067       7   23076   23073       6   23079   23073       6
   23079   23076       7   23085   23082       6   23088   23082       6   23088
   23085       7   23094   23091       6   23097   23091       6   23097   23094
       7   23103   23100       6   23106   23100       6   23106   23103       7
   23112   23109       6   23115   23109       6   23115   23112       7   23121
   23118       6   23124   23118       6   23124   23121       7   23130   23127
       6   23133   23127       6   23133   23130       7   23139   23136       6
   23142   23136       6   23142   23139       7   23148   23145       6   23151
   23145       6   23151   23148       7   23157   23154       6   23160   23154
       6   23160   23157       7   23166   23163       6   23169   23163       6
   23169   23166       7   23175   23172       6   23178   23172       6   23178
   23175       7   23184   23181       6   23187   23181       6   23187   23184
       7   23193   23190       6   23196   23190       6   23196   23193       7
   23202   23199       6   23205   23199       6   23205   23202       7   23211
   23208       6   23214   23208       6   23214   23211       7   23220   23217
       6   23223   23217       6   23223   23220       7   23229   23226       6
   23232   23226       6   23232   23229       7   23238   23235       6   23241
   23235       6   23241   23238       7   23247   23244       6   23250   23244
       6   23250   23247       7   23256   23253       6   23259   23253       6
   23259   23256       7   23265   23262       6   23268   23262       6   23268
   23265       7   23274   23271       6   23277   23271       6   23277   23274
       7   23283   23280       6   23286   23280       6   23286   23283       7
   23292   23289       6   23295   23289       6   23295   23292       7   23301
   23298       6   23304   23298       6   23304   23301       7   23310   23307
       6   23313   23307       6   23313   23310       7   23319   23316       6
   23322   23316       6   23322   23319       7   23328   23325       6   23331
   23325       6   23331   23328       7   23337   23334       6   23340   23334
       6   23340   23337       7   23346   23343       6   23349   23343       6
   23349   23346       7   23355   23352       6   23358   23352       6   23358
   23355       7   23364   23361       6   23367   23361       6   23367   23364
       7   23373   23370       6   23376   23370       6   23376   23373       7
   23382   23379       6   23385   23379       6   23385   23382       7   23391
   23388       6   23394   23388       6   23394   23391       7   23400   23397
       6   23403   23397       6   23403   23400       7   23409   23406       6
   23412   23406       6   23412   23409       7   23418   23415       6   23421
   23415       6   23421   23418       7   23427   23424       6   23430   23424
       6   23430   23427       7   23436   23433       6   23439   23433       6
   23439   23436       7   23445   23442       6   23448   23442       6   23448
   23445       7   23454   23451       6   23457   23451       6   23457   23454
       7   23463   23460       6   23466   23460       6   23466   23463       7
   23472   23469       6   23475   23469       6   23475   23472       7   23481
   23478       6   23484   23478       6   23484   23481       7   23490   23487
       6   23493   23487       6   23493   23490       7   23499   23496       6
   23502   23496       6   23502   23499       7   23508   23505       6   23511
   23505       6   23511   23508       7   23517   23514       6   23520   23514
       6   23520   23517       7   23526   23523       6   23529   23523       6
   23529   23526       7   23535   23532       6   23538   23532       6   23538
   23535       7   23544   23541       6   23547   23541       6   23547   23544
       7   23553   23550       6   23556   23550       6   23556   23553       7
   23562   23559       6   23565   23559       6   23565   23562       7   23571
   23568       6   23574   23568       6   23574   23571       7   23580   23577
       6   23583   23577       6   23583   23580       7   23589   23586       6
   23592   23586       6   23592   23589       7   23598   23595       6   23601
   23595       6   23601   23598       7   23607   23604       6   23610   23604
       6   23610   23607       7   23616   23613       6   23619   23613       6
   23619   23616       7   23625   23622       6   23628   23622       6   23628
   23625       7   23634   23631       6   23637   23631       6   23637   23634
       7   23643   23640       6   23646   23640       6   23646   23643       7
   23652   23649       6   23655   23649       6   23655   23652       7   23661
   23658       6   23664   23658       6   23664   23661       7   23670   23667
       6   23673   23667       6   23673   23670       7   23679   23676       6
   23682   23676       6   23682   23679       7   23688   23685       6   23691
   23685       6   23691   23688       7   23697   23694       6   23700   23694
       6   23700   23697       7   23706   23703       6   23709   23703       6
   23709   23706       7   23715   23712       6   23718   23712       6   23718
   23715       7   23724   23721       6   23727   23721       6   23727   23724
       7   23733   23730       6   23736   23730       6   23736   23733       7
   23742   23739       6   23745   23739       6   23745   23742       7   23751
   23748       6   23754   23748       6   23754   23751       7   23760   23757
       6   23763   23757       6   23763   23760       7   23769   23766       6
   23772   23766       6   23772   23769       7   23778   23775       6   23781
   23775       6   23781   23778       7   23787   23784       6   23790   23784
       6   23790   23787       7   23796   23793       6   23799   23793       6
   23799   23796       7   23805   23802       6   23808   23802       6   23808
   23805       7   23814   23811       6   23817   23811       6   23817   23814
       7   23823   23820       6   23826   23820       6   23826   23823       7
   23832   23829       6   23835   23829       6   23835   23832       7   23841
   23838       6   23844   23838       6   23844   23841       7   23850   23847
       6   23853   23847       6   23853   23850       7   23859   23856       6
   23862   23856       6   23862   23859       7   23868   23865       6   23871
   23865       6   23871   23868       7   23877   23874       6   23880   23874
       6   23880   23877       7   23886   23883       6   23889   23883       6
   23889   23886       7   23895   23892       6   23898   23892       6   23898
   23895       7   23904   23901       6   23907   23901       6   23907   23904
       7   23913   23910       6   23916   23910       6   23916   23913       7
   23922   23919       6   23925   23919       6   23925   23922       7   23931
   23928       6   23934   23928       6   23934   23931       7   23940   23937
       6   23943   23937       6   23943   23940       7   23949   23946       6
   23952   23946       6   23952   23949       7   23958   23955       6   23961
   23955       6   23961   23958       7   23967   23964       6   23970   23964
       6   23970   23967       7   23976   23973       6   23979   23973       6
   23979   23976       7   23985   23982       6   23988   23982       6   23988
   23985       7   23994   23991       6   23997   23991       6   23997   23994
       7   24003   24000       6   24006   24000       6   24006   24003       7
   24012   24009       6   24015   24009       6   24015   24012       7   24021
   24018       6   24024   24018       6   24024   24021       7   24030   24027
       6   24033   24027       6   24033   24030       7   24039   24036       6
   24042   24036       6   24042   24039       7   24048   24045       6   24051
   24045       6   24051   24048       7   24057   24054       6   24060   24054
       6   24060   24057       7   24066   24063       6   24069   24063       6
   24069   24066       7   24075   24072       6   24078   24072       6   24078
   24075       7   24084   24081       6   24087   24081       6   24087   24084
       7   24093   24090       6   24096   24090       6   24096   24093       7
   24102   24099       6   24105   24099       6   24105   24102       7   24111
   24108       6   24114   24108       6   24114   24111       7   24120   24117
       6   24123   24117       6   24123   24120       7   24129   24126       6
   24132   24126       6   24132   24129       7   24138   24135       6   24141
   24135       6   24141   24138       7   24147   24144       6   24150   24144
       6   24150   24147       7   24156   24153       6   24159   24153       6
   24159   24156       7   24165   24162       6   24168   24162       6   24168
   24165       7   24174   24171       6   24177   24171       6   24177   24174
       7   24183   24180       6   24186   24180       6   24186   24183       7
   24192   24189       6   24195   24189       6   24195   24192       7   24201
   24198       6   24204   24198       6   24204   24201       7   24210   24207
       6   24213   24207       6   24213   24210       7   24219   24216       6
   24222   24216       6   24222   24219       7   24228   24225       6   24231
   24225       6   24231   24228       7   24237   24234       6   24240   24234
       6   24240   24237       7   24246   24243       6   24249   24243       6
   24249   24246       7   24255   24252       6   24258   24252       6   24258
   24255       7   24264   24261       6   24267   24261       6   24267   24264
       7   24273   24270       6   24276   24270       6   24276   24273       7
   24282   24279       6   24285   24279       6   24285   24282       7   24291
   24288       6   24294   24288       6   24294   24291       7   24300   24297
       6   24303   24297       6   24303   24300       7   24309   24306       6
   24312   24306       6   24312   24309       7   24318   24315       6   24321
   24315       6   24321   24318       7   24327   24324       6   24330   24324
       6   24330   24327       7   24336   24333       6   24339   24333       6
   24339   24336       7   24345   24342       6   24348   24342       6   24348
   24345       7   24354   24351       6   24357   24351       6   24357   24354
       7   24363   24360       6   24366   24360       6   24366   24363       7
   24372   24369       6   24375   24369       6   24375   24372       7   24381
   24378       6   24384   24378       6   24384   24381       7   24390   24387
       6   24393   24387       6   24393   24390       7   24399   24396       6
   24402   24396       6   24402   24399       7   24408   24405       6   24411
   24405       6   24411   24408       7   24417   24414       6   24420   24414
       6   24420   24417       7   24426   24423       6   24429   24423       6
   24429   24426       7   24435   24432       6   24438   24432       6   24438
   24435       7   24444   24441       6   24447   24441       6   24447   24444
       7   24453   24450       6   24456   24450       6   24456   24453       7
   24462   24459       6   24465   24459       6   24465   24462       7   24471
   24468       6   24474   24468       6   24474   24471       7   24480   24477
       6   24483   24477       6   24483   24480       7   24489   24486       6
   24492   24486       6   24492   24489       7   24498   24495       6   24501
   24495       6   24501   24498       7   24507   24504       6   24510   24504
       6   24510   24507       7   24516   24513       6   24519   24513       6
   24519   24516       7   24525   24522       6   24528   24522       6   24528
   24525       7   24534   24531       6   24537   24531       6   24537   24534
       7   24543   24540       6   24546   24540       6   24546   24543       7
   24552   24549       6   24555   24549       6   24555   24552       7   24561
   24558       6   24564   24558       6   24564   24561       7   24570   24567
       6   24573   24567       6   24573   24570       7   24579   24576       6
   24582   24576       6   24582   24579       7   24588   24585       6   24591
   24585       6   24591   24588       7   24597   24594       6   24600   24594
       6   24600   24597       7   24606   24603       6   24609   24603       6
   24609   24606       7   24615   24612       6   24618   24612       6   24618
   24615       7   24624   24621       6   24627   24621       6   24627   24624
       7   24633   24630       6   24636   24630       6   24636   24633       7
   24642   24639       6   24645   24639       6   24645   24642       7   24651
   24648       6   24654   24648       6   24654   24651       7   24660   24657
       6   24663   24657       6   24663   24660       7   24669   24666       6
   24672   24666       6   24672   24669       7   24678   24675       6   24681
   24675       6   24681   24678       7   24687   24684       6   24690   24684
       6   24690   24687       7   24696   24693       6   24699   24693       6
   24699   24696       7   24705   24702       6   24708   24702       6   24708
   24705       7   24714   24711       6   24717   24711       6   24717   24714
       7   24723   24720       6   24726   24720       6   24726   24723       7
   24732   24729       6   24735   24729       6   24735   24732       7   24741
   24738       6   24744   24738       6   24744   24741       7   24750   24747
       6   24753   24747       6   24753   24750       7   24759   24756       6
   24762   24756       6   24762   24759       7   24768   24765       6   24771
   24765       6   24771   24768       7   24777   24774       6   24780   24774
       6   24780   24777       7   24786   24783       6   24789   24783       6
   24789   24786       7   24795   24792       6   24798   24792       6   24798
   24795       7   24804   24801       6   24807   24801       6   24807   24804
       7   24813   24810       6   24816   24810       6   24816   24813       7
   24822   24819       6   24825   24819       6   24825   24822       7   24831
   24828       6   24834   24828       6   24834   24831       7   24840   24837
       6   24843   24837       6   24843   24840       7   24849   24846       6
   24852   24846       6   24852   24849       7   24858   24855       6   24861
   24855       6   24861   24858       7   24867   24864       6   24870   24864
       6   24870   24867       7   24876   24873       6   24879   24873       6
   24879   24876       7   24885   24882       6   24888   24882       6   24888
   24885       7   24894   24891       6   24897   24891       6   24897   24894
       7   24903   24900       6   24906   24900       6   24906   24903       7
   24912   24909       6   24915   24909       6   24915   24912       7   24921
   24918       6   24924   24918       6   24924   24921       7   24930   24927
       6   24933   24927       6   24933   24930       7   24939   24936       6
   24942   24936       6   24942   24939       7   24948   24945       6   24951
   24945       6   24951   24948       7   24957   24954       6   24960   24954
       6   24960   24957       7   24966   24963       6   24969   24963       6
   24969   24966       7   24975   24972       6   24978   24972       6   24978
   24975       7   24984   24981       6   24987   24981       6   24987   24984
       7   24993   24990       6   24996   24990       6   24996   24993       7
   25002   24999       6   25005   24999       6   25005   25002       7   25011
   25008       6   25014   25008       6   25014   25011       7   25020   25017
       6   25023   25017       6   25023   25020       7   25029   25026       6
   25032   25026       6   25032   25029       7   25038   25035       6   25041
   25035       6   25041   25038       7   25047   25044       6   25050   25044
       6   25050   25047       7   25056   25053       6   25059   25053       6
   25059   25056       7   25065   25062       6   25068   25062       6   25068
   25065       7   25074   25071       6   25077   25071       6   25077   25074
       7   25083   25080       6   25086   25080       6   25086   25083       7
   25092   25089       6   25095   25089       6   25095   25092       7   25101
   25098       6   25104   25098       6   25104   25101       7   25110   25107
       6   25113   25107       6   25113   25110       7   25119   25116       6
   25122   25116       6   25122   25119       7   25128   25125       6   25131
   25125       6   25131   25128       7   25137   25134       6   25140   25134
       6   25140   25137       7   25146   25143       6   25149   25143       6
   25149   25146       7   25155   25152       6   25158   25152       6   25158
   25155       7   25164   25161       6   25167   25161       6   25167   25164
       7   25173   25170       6   25176   25170       6   25176   25173       7
   25182   25179       6   25185   25179       6   25185   25182       7   25191
   25188       6   25194   25188       6   25194   25191       7   25200   25197
       6   25203   25197       6   25203   25200       7   25209   25206       6
   25212   25206       6   25212   25209       7   25218   25215       6   25221
   25215       6   25221   25218       7   25227   25224       6   25230   25224
       6   25230   25227       7   25236   25233       6   25239   25233       6
   25239   25236       7   25245   25242       6   25248   25242       6   25248
   25245       7   25254   25251       6   25257   25251       6   25257   25254
       7   25263   25260       6   25266   25260       6   25266   25263       7
   25272   25269       6   25275   25269       6   25275   25272       7   25281
   25278       6   25284   25278       6   25284   25281       7   25290   25287
       6   25293   25287       6   25293   25290       7   25299   25296       6
   25302   25296       6   25302   25299       7   25308   25305       6   25311
   25305       6   25311   25308       7   25317   25314       6   25320   25314
       6   25320   25317       7   25326   25323       6   25329   25323       6
   25329   25326       7   25335   25332       6   25338   25332       6   25338
   25335       7   25344   25341       6   25347   25341       6   25347   25344
       7   25353   25350       6   25356   25350       6   25356   25353       7
   25362   25359       6   25365   25359       6   25365   25362       7   25371
   25368       6   25374   25368       6   25374   25371       7   25380   25377
       6   25383   25377       6   25383   25380       7   25389   25386       6
   25392   25386       6   25392   25389       7   25398   25395       6   25401
   25395       6   25401   25398       7   25407   25404       6   25410   25404
       6   25410   25407       7   25416   25413       6   25419   25413       6
   25419   25416       7   25425   25422       6   25428   25422       6   25428
   25425       7   25434   25431       6   25437   25431       6   25437   25434
       7   25443   25440       6   25446   25440       6   25446   25443       7
   25452   25449       6   25455   25449       6   25455   25452       7   25461
   25458       6   25464   25458       6   25464   25461       7   25470   25467
       6   25473   25467       6   25473   25470       7   25479   25476       6
   25482   25476       6   25482   25479       7   25488   25485       6   25491
   25485       6   25491   25488       7   25497   25494       6   25500   25494
       6   25500   25497       7   25506   25503       6   25509   25503       6
   25509   25506       7   25515   25512       6   25518   25512       6   25518
   25515       7   25524   25521       6   25527   25521       6   25527   25524
       7   25533   25530       6   25536   25530       6   25536   25533       7
   25542   25539       6   25545   25539       6   25545   25542       7   25551
   25548       6   25554   25548       6   25554   25551       7   25560   25557
       6   25563   25557       6   25563   25560       7   25569   25566       6
   25572   25566       6   25572   25569       7   25578   25575       6   25581
   25575       6   25581   25578       7   25587   25584       6   25590   25584
       6   25590   25587       7   25596   25593       6   25599   25593       6
   25599   25596       7   25605   25602       6   25608   25602       6   25608
   25605       7   25614   25611       6   25617   25611       6   25617   25614
       7   25623   25620       6   25626   25620       6   25626   25623       7
   25632   25629       6   25635   25629       6   25635   25632       7   25641
   25638       6   25644   25638       6   25644   25641       7   25650   25647
       6   25653   25647       6   25653   25650       7   25659   25656       6
   25662   25656       6   25662   25659       7   25668   25665       6   25671
   25665       6   25671   25668       7   25677   25674       6   25680   25674
       6   25680   25677       7   25686   25683       6   25689   25683       6
   25689   25686       7   25695   25692       6   25698   25692       6   25698
   25695       7   25704   25701       6   25707   25701       6   25707   25704
       7   25713   25710       6   25716   25710       6   25716   25713       7
   25722   25719       6   25725   25719       6   25725   25722       7   25731
   25728       6   25734   25728       6   25734   25731       7   25740   25737
       6   25743   25737       6   25743   25740       7   25749   25746       6
   25752   25746       6   25752   25749       7   25758   25755       6   25761
   25755       6   25761   25758       7   25767   25764       6   25770   25764
       6   25770   25767       7   25776   25773       6   25779   25773       6
   25779   25776       7   25785   25782       6   25788   25782       6   25788
   25785       7   25794   25791       6   25797   25791       6   25797   25794
       7   25803   25800       6   25806   25800       6   25806   25803       7
   25812   25809       6   25815   25809       6   25815   25812       7   25821
   25818       6   25824   25818       6   25824   25821       7   25830   25827
       6   25833   25827       6   25833   25830       7   25839   25836       6
   25842   25836       6   25842   25839       7   25848   25845       6   25851
   25845       6   25851   25848       7   25857   25854       6   25860   25854
       6   25860   25857       7   25866   25863       6   25869   25863       6
   25869   25866       7   25875   25872       6   25878   25872       6   25878
   25875       7   25884   25881       6   25887   25881       6   25887   25884
       7   25893   25890       6   25896   25890       6   25896   25893       7
   25902   25899       6   25905   25899       6   25905   25902       7   25911
   25908       6   25914   25908       6   25914   25911       7   25920   25917
       6   25923   25917       6   25923   25920       7   25929   25926       6
   25932   25926       6   25932   25929       7   25938   25935       6   25941
   25935       6   25941   25938       7   25947   25944       6   25950   25944
       6   25950   25947       7   25956   25953       6   25959   25953       6
   25959   25956       7   25965   25962       6   25968   25962       6   25968
   25965       7   25974   25971       6   25977   25971       6   25977   25974
       7   25983   25980       6   25986   25980       6   25986   25983       7
   25992   25989       6   25995   25989       6   25995   25992       7   26001
   25998       6   26004   25998       6   26004   26001       7   26010   26007
       6   26013   26007       6   26013   26010       7   26019   26016       6
   26022   26016       6   26022   26019       7   26028   26025       6   26031
   26025       6   26031   26028       7   26037   26034       6   26040   26034
       6   26040   26037       7   26046   26043       6   26049   26043       6
   26049   26046       7   26055   26052       6   26058   26052       6   26058
   26055       7   26064   26061       6   26067   26061       6   26067   26064
       7   26073   26070       6   26076   26070       6   26076   26073       7
   26082   26079       6   26085   26079       6   26085   26082       7   26091
   26088       6   26094   26088       6   26094   26091       7   26100   26097
       6   26103   26097       6   26103   26100       7   26109   26106       6
   26112   26106       6   26112   26109       7   26118   26115       6   26121
   26115       6   26121   26118       7   26127   26124       6   26130   26124
       6   26130   26127       7   26136   26133       6   26139   26133       6
   26139   26136       7   26145   26142       6   26148   26142       6   26148
   26145       7   26154   26151       6   26157   26151       6   26157   26154
       7   26163   26160       6   26166   26160       6   26166   26163       7
   26172   26169       6   26175   26169       6   26175   26172       7   26181
   26178       6   26184   26178       6   26184   26181       7   26190   26187
       6   26193   26187       6   26193   26190       7   26199   26196       6
   26202   26196       6   26202   26199       7   26208   26205       6   26211
   26205       6   26211   26208       7   26217   26214       6   26220   26214
       6   26220   26217       7   26226   26223       6   26229   26223       6
   26229   26226       7   26235   26232       6   26238   26232       6   26238
   26235       7   26244   26241       6   26247   26241       6   26247   26244
       7   26253   26250       6   26256   26250       6   26256   26253       7
   26262   26259       6   26265   26259       6   26265   26262       7   26271
   26268       6   26274   26268       6   26274   26271       7   26280   26277
       6   26283   26277       6   26283   26280       7   26289   26286       6
   26292   26286       6   26292   26289       7   26298   26295       6   26301
   26295       6   26301   26298       7   26307   26304       6   26310   26304
       6   26310   26307       7   26316   26313       6   26319   26313       6
   26319   26316       7   26325   26322       6   26328   26322       6   26328
   26325       7   26334   26331       6   26337   26331       6   26337   26334
       7   26343   26340       6   26346   26340       6   26346   26343       7
   26352   26349       6   26355   26349       6   26355   26352       7   26361
   26358       6   26364   26358       6   26364   26361       7   26370   26367
       6   26373   26367       6   26373   26370       7   26379   26376       6
   26382   26376       6   26382   26379       7   26388   26385       6   26391
   26385       6   26391   26388       7   26397   26394       6   26400   26394
       6   26400   26397       7   26406   26403       6   26409   26403       6
   26409   26406       7   26415   26412       6   26418   26412       6   26418
   26415       7   26424   26421       6   26427   26421       6   26427   26424
       7   26433   26430       6   26436   26430       6   26436   26433       7
   26442   26439       6   26445   26439       6   26445   26442       7   26451
   26448       6   26454   26448       6   26454   26451       7   26460   26457
       6   26463   26457       6   26463   26460       7   26469   26466       6
   26472   26466       6   26472   26469       7   26478   26475       6   26481
   26475       6   26481   26478       7   26487   26484       6   26490   26484
       6   26490   26487       7   26496   26493       6   26499   26493       6
   26499   26496       7   26505   26502       6   26508   26502       6   26508
   26505       7   26514   26511       6   26517   26511       6   26517   26514
       7   26523   26520       6   26526   26520       6   26526   26523       7
   26532   26529       6   26535   26529       6   26535   26532       7   26541
   26538       6   26544   26538       6   26544   26541       7   26550   26547
       6   26553   26547       6   26553   26550       7   26559   26556       6
   26562   26556       6   26562   26559       7   26568   26565       6   26571
   26565       6   26571   26568       7   26577   26574       6   26580   26574
       6   26580   26577       7   26586   26583       6   26589   26583       6
   26589   26586       7   26595   26592       6   26598   26592       6   26598
   26595       7   26604   26601       6   26607   26601       6   26607   26604
       7   26613   26610       6   26616   26610       6   26616   26613       7
   26622   26619       6   26625   26619       6   26625   26622       7   26631
   26628       6   26634   26628       6   26634   26631       7   26640   26637
       6   26643   26637       6   26643   26640       7   26649   26646       6
   26652   26646       6   26652   26649       7   26658   26655       6   26661
   26655       6   26661   26658       7   26667   26664       6   26670   26664
       6   26670   26667       7   26676   26673       6   26679   26673       6
   26679   26676       7   26685   26682       6   26688   26682       6   26688
   26685       7   26694   26691       6   26697   26691       6   26697   26694
       7   26703   26700       6   26706   26700       6   26706   26703       7
   26712   26709       6   26715   26709       6   26715   26712       7   26721
   26718       6   26724   26718       6   26724   26721       7   26730   26727
       6   26733   26727       6   26733   26730       7   26739   26736       6
   26742   26736       6   26742   26739       7   26748   26745       6   26751
   26745       6   26751   26748       7   26757   26754       6   26760   26754
       6   26760   26757       7   26766   26763       6   26769   26763       6
   26769   26766       7   26775   26772       6   26778   26772       6   26778
   26775       7   26784   26781       6   26787   26781       6   26787   26784
       7   26793   26790       6   26796   26790       6   26796   26793       7
   26802   26799       6   26805   26799       6   26805   26802       7   26811
   26808       6   26814   26808       6   26814   26811       7   26820   26817
       6   26823   26817       6   26823   26820       7   26829   26826       6
   26832   26826       6   26832   26829       7   26838   26835       6   26841
   26835       6   26841   26838       7   26847   26844       6   26850   26844
       6   26850   26847       7   26856   26853       6   26859   26853       6
   26859   26856       7   26865   26862       6   26868   26862       6   26868
   26865       7   26874   26871       6   26877   26871       6   26877   26874
       7   26883   26880       6   26886   26880       6   26886   26883       7
   26892   26889       6   26895   26889       6   26895   26892       7   26901
   26898       6   26904   26898       6   26904   26901       7   26910   26907
       6   26913   26907       6   26913   26910       7   26919   26916       6
   26922   26916       6   26922   26919       7   26928   26925       6   26931
   26925       6   26931   26928       7   26937   26934       6   26940   26934
       6   26940   26937       7   26946   26943       6   26949   26943       6
   26949   26946       7   26955   26952       6   26958   26952       6   26958
   26955       7   26964   26961       6   26967   26961       6   26967   26964
       7   26973   26970       6   26976   26970       6   26976   26973       7
   26982   26979       6   26985   26979       6   26985   26982       7   26991
   26988       6   26994   26988       6   26994   26991       7   27000   26997
       6   27003   26997       6   27003   27000       7   27009   27006       6
   27012   27006       6   27012   27009       7   27018   27015       6   27021
   27015       6   27021   27018       7   27027   27024       6   27030   27024
       6   27030   27027       7   27036   27033       6   27039   27033       6
   27039   27036       7   27045   27042       6   27048   27042       6   27048
   27045       7   27054   27051       6   27057   27051       6   27057   27054
       7   27063   27060       6   27066   27060       6   27066   27063       7
   27072   27069       6   27075   27069       6   27075   27072       7   27081
   27078       6   27084   27078       6   27084   27081       7   27090   27087
       6   27093   27087       6   27093   27090       7   27099   27096       6
   27102   27096       6   27102   27099       7   27108   27105       6   27111
   27105       6   27111   27108       7   27117   27114       6   27120   27114
       6   27120   27117       7   27126   27123       6   27129   27123       6
   27129   27126       7   27135   27132       6   27138   27132       6   27138
   27135       7   27144   27141       6   27147   27141       6   27147   27144
       7   27153   27150       6   27156   27150       6   27156   27153       7
   27162   27159       6   27165   27159       6   27165   27162       7   27171
   27168       6   27174   27168       6   27174   27171       7   27180   27177
       6   27183   27177       6   27183   27180       7   27189   27186       6
   27192   27186       6   27192   27189       7   27198   27195       6   27201
   27195       6   27201   27198       7   27207   27204       6   27210   27204
       6   27210   27207       7   27216   27213       6   27219   27213       6
   27219   27216       7   27225   27222       6   27228   27222       6   27228
   27225       7   27234   27231       6   27237   27231       6   27237   27234
       7   27243   27240       6   27246   27240       6   27246   27243       7
   27252   27249       6   27255   27249       6   27255   27252       7   27261
   27258       6   27264   27258       6   27264   27261       7   27270   27267
       6   27273   27267       6   27273   27270       7   27279   27276       6
   27282   27276       6   27282   27279       7   27288   27285       6   27291
   27285       6   27291   27288       7   27297   27294       6   27300   27294
       6   27300   27297       7   27306   27303       6   27309   27303       6
   27309   27306       7   27315   27312       6   27318   27312       6   27318
   27315       7   27324   27321       6   27327   27321       6   27327   27324
       7   27333   27330       6   27336   27330       6   27336   27333       7
   27342   27339       6   27345   27339       6   27345   27342       7   27351
   27348       6   27354   27348       6   27354   27351       7   27360   27357
       6   27363   27357       6   27363   27360       7   27369   27366       6
   27372   27366       6   27372   27369       7   27378   27375       6   27381
   27375       6   27381   27378       7   27387   27384       6   27390   27384
       6   27390   27387       7   27396   27393       6   27399   27393       6
   27399   27396       7   27405   27402       6   27408   27402       6   27408
   27405       7   27414   27411       6   27417   27411       6   27417   27414
       7   27423   27420       6   27426   27420       6   27426   27423       7
   27432   27429       6   27435   27429       6   27435   27432       7   27441
   27438       6   27444   27438       6   27444   27441       7   27450   27447
       6   27453   27447       6   27453   27450       7   27459   27456       6
   27462   27456       6   27462   27459       7   27468   27465       6   27471
   27465       6   27471   27468       7   27477   27474       6   27480   27474
       6   27480   27477       7   27486   27483       6   27489   27483       6
   27489   27486       7   27495   27492       6   27498   27492       6   27498
   27495       7   27504   27501       6   27507   27501       6   27507   27504
       7   27513   27510       6   27516   27510       6   27516   27513       7
   27522   27519       6   27525   27519       6   27525   27522       7   27531
   27528       6   27534   27528       6   27534   27531       7   27540   27537
       6   27543   27537       6   27543   27540       7   27549   27546       6
   27552   27546       6   27552   27549       7   27558   27555       6   27561
   27555       6   27561   27558       7   27567   27564       6   27570   27564
       6   27570   27567       7   27576   27573       6   27579   27573       6
   27579   27576       7   27585   27582       6   27588   27582       6   27588
   27585       7   27594   27591       6   27597   27591       6   27597   27594
       7   27603   27600       6   27606   27600       6   27606   27603       7
   27612   27609       6   27615   27609       6   27615   27612       7   27621
   27618       6   27624   27618       6   27624   27621       7   27630   27627
       6   27633   27627       6   27633   27630       7   27639   27636       6
   27642   27636       6   27642   27639       7   27648   27645       6   27651
   27645       6   27651   27648       7   27657   27654       6   27660   27654
       6   27660   27657       7   27666   27663       6   27669   27663       6
   27669   27666       7   27675   27672       6   27678   27672       6   27678
   27675       7   27684   27681       6   27687   27681       6   27687   27684
       7   27693   27690       6   27696   27690       6   27696   27693       7
   27702   27699       6   27705   27699       6   27705   27702       7   27711
   27708       6   27714   27708       6   27714   27711       7   27720   27717
       6   27723   27717       6   27723   27720       7   27729   27726       6
   27732   27726       6   27732   27729       7   27738   27735       6   27741
   27735       6   27741   27738       7   27747   27744       6   27750   27744
       6   27750   27747       7   27756   27753       6   27759   27753       6
   27759   27756       7   27765   27762       6   27768   27762       6   27768
   27765       7   27774   27771       6   27777   27771       6   27777   27774
       7   27783   27780       6   27786   27780       6   27786   27783       7
   27792   27789       6   27795   27789       6   27795   27792       7   27801
   27798       6   27804   27798       6   27804   27801       7   27810   27807
       6   27813   27807       6   27813   27810       7   27819   27816       6
   27822   27816       6   27822   27819       7   27828   27825       6   27831
   27825       6   27831   27828       7   27837   27834       6   27840   27834
       6   27840   27837       7   27846   27843       6   27849   27843       6
   27849   27846       7   27855   27852       6   27858   27852       6   27858
   27855       7   27864   27861       6   27867   27861       6   27867   27864
       7   27873   27870       6   27876   27870       6   27876   27873       7
   27882   27879       6   27885   27879       6   27885   27882       7   27891
   27888       6   27894   27888       6   27894   27891       7   27900   27897
       6   27903   27897       6   27903   27900       7   27909   27906       6
   27912   27906       6   27912   27909       7   27918   27915       6   27921
   27915       6   27921   27918       7   27927   27924       6   27930   27924
       6   27930   27927       7   27936   27933       6   27939   27933       6
   27939   27936       7   27945   27942       6   27948   27942       6   27948
   27945       7   27954   27951       6   27957   27951       6   27957   27954
       7   27963   27960       6   27966   27960       6   27966   27963       7
   27972   27969       6   27975   27969       6   27975   27972       7   27981
   27978       6   27984   27978       6   27984   27981       7   27990   27987
       6   27993   27987       6   27993   27990       7   27999   27996       6
   28002   27996       6   28002   27999       7   28008   28005       6   28011
   28005       6   28011   28008       7   28017   28014       6   28020   28014
       6   28020   28017       7   28026   28023       6   28029   28023       6
   28029   28026       7   28035   28032       6   28038   28032       6   28038
   28035       7   28044   28041       6   28047   28041       6   28047   28044
       7   28053   28050       6   28056   28050       6   28056   28053       7
   28062   28059       6   28065   28059       6   28065   28062       7   28071
   28068       6   28074   28068       6   28074   28071       7   28080   28077
       6   28083   28077       6   28083   28080       7   28089   28086       6
   28092   28086       6   28092   28089       7   28098   28095       6   28101
   28095       6   28101   28098       7   28107   28104       6   28110   28104
       6   28110   28107       7   28116   28113       6   28119   28113       6
   28119   28116       7   28125   28122       6   28128   28122       6   28128
   28125       7   28134   28131       6   28137   28131       6   28137   28134
       7   28143   28140       6   28146   28140       6   28146   28143       7
   28152   28149       6   28155   28149       6   28155   28152       7   28161
   28158       6   28164   28158       6   28164   28161       7   28170   28167
       6   28173   28167       6   28173   28170       7   28179   28176       6
   28182   28176       6   28182   28179       7   28188   28185       6   28191
   28185       6   28191   28188       7   28197   28194       6   28200   28194
       6   28200   28197       7   28206   28203       6   28209   28203       6
   28209   28206       7   28215   28212       6   28218   28212       6   28218
   28215       7   28224   28221       6   28227   28221       6   28227   28224
       7   28233   28230       6   28236   28230       6   28236   28233       7
   28242   28239       6   28245   28239       6   28245   28242       7   28251
   28248       6   28254   28248       6   28254   28251       7   28260   28257
       6   28263   28257       6   28263   28260       7   28269   28266       6
   28272   28266       6   28272   28269       7   28278   28275       6   28281
   28275       6   28281   28278       7   28287   28284       6   28290   28284
       6   28290   28287       7   28296   28293       6   28299   28293       6
   28299   28296       7   28305   28302       6   28308   28302       6   28308
   28305       7   28314   28311       6   28317   28311       6   28317   28314
       7   28323   28320       6   28326   28320       6   28326   28323       7
   28332   28329       6   28335   28329       6   28335   28332       7   28341
   28338       6   28344   28338       6   28344   28341       7   28350   28347
       6   28353   28347       6   28353   28350       7   28359   28356       6
   28362   28356       6   28362   28359       7   28368   28365       6   28371
   28365       6   28371   28368       7   28377   28374       6   28380   28374
       6   28380   28377       7   28386   28383       6   28389   28383       6
   28389   28386       7   28395   28392       6   28398   28392       6   28398
   28395       7   28404   28401       6   28407   28401       6   28407   28404
       7   28413   28410       6   28416   28410       6   28416   28413       7
   28422   28419       6   28425   28419       6   28425   28422       7   28431
   28428       6   28434   28428       6   28434   28431       7   28440   28437
       6   28443   28437       6   28443   28440       7   28449   28446       6
   28452   28446       6   28452   28449       7   28458   28455       6   28461
   28455       6   28461   28458       7   28467   28464       6   28470   28464
       6   28470   28467       7   28476   28473       6   28479   28473       6
   28479   28476       7   28485   28482       6   28488   28482       6   28488
   28485       7   28494   28491       6   28497   28491       6   28497   28494
       7   28503   28500       6   28506   28500       6   28506   28503       7
   28512   28509       6   28515   28509       6   28515   28512       7   28521
   28518       6   28524   28518       6   28524   28521       7   28530   28527
       6   28533   28527       6   28533   28530       7   28539   28536       6
   28542   28536       6   28542   28539       7   28548   28545       6   28551
   28545       6   28551   28548       7   28557   28554       6   28560   28554
       6   28560   28557       7   28566   28563       6   28569   28563       6
   28569   28566       7   28575   28572       6   28578   28572       6   28578
   28575       7   28584   28581       6   28587   28581       6   28587   28584
       7   28593   28590       6   28596   28590       6   28596   28593       7
   28602   28599       6   28605   28599       6   28605   28602       7   28611
   28608       6   28614   28608       6   28614   28611       7   28620   28617
       6   28623   28617       6   28623   28620       7   28629   28626       6
   28632   28626       6   28632   28629       7   28638   28635       6   28641
   28635       6   28641   28638       7   28647   28644       6   28650   28644
       6   28650   28647       7   28656   28653       6   28659   28653       6
   28659   28656       7   28665   28662       6   28668   28662       6   28668
   28665       7   28674   28671       6   28677   28671       6   28677   28674
       7   28683   28680       6   28686   28680       6   28686   28683       7
   28692   28689       6   28695   28689       6   28695   28692       7   28701
   28698       6   28704   28698       6   28704   28701       7   28710   28707
       6   28713   28707       6   28713   28710       7   28719   28716       6
   28722   28716       6   28722   28719       7   28728   28725       6   28731
   28725       6   28731   28728       7   28737   28734       6   28740   28734
       6   28740   28737       7   28746   28743       6   28749   28743       6
   28749   28746       7   28755   28752       6   28758   28752       6   28758
   28755       7   28764   28761       6   28767   28761       6   28767   28764
       7   28773   28770       6   28776   28770       6   28776   28773       7
   28782   28779       6   28785   28779       6   28785   28782       7   28791
   28788       6   28794   28788       6   28794   28791       7   28800   28797
       6   28803   28797       6   28803   28800       7   28809   28806       6
   28812   28806       6   28812   28809       7   28818   28815       6   28821
   28815       6   28821   28818       7   28827   28824       6   28830   28824
       6   28830   28827       7   28836   28833       6   28839   28833       6
   28839   28836       7   28845   28842       6   28848   28842       6   28848
   28845       7   28854   28851       6   28857   28851       6   28857   28854
       7   28863   28860       6   28866   28860       6   28866   28863       7
   28872   28869       6   28875   28869       6   28875   28872       7   28881
   28878       6   28884   28878       6   28884   28881       7   28890   28887
       6   28893   28887       6   28893   28890       7   28899   28896       6
   28902   28896       6   28902   28899       7   28908   28905       6   28911
   28905       6   28911   28908       7   28917   28914       6   28920   28914
       6   28920   28917       7   28926   28923       6   28929   28923       6
   28929   28926       7   28935   28932       6   28938   28932       6   28938
   28935       7   28944   28941       6   28947   28941       6   28947   28944
       7   28953   28950       6   28956   28950       6   28956   28953       7
   28962   28959       6   28965   28959       6   28965   28962       7   28971
   28968       6   28974   28968       6   28974   28971       7   28980   28977
       6   28983   28977       6   28983   28980       7   28989   28986       6
   28992   28986       6   28992   28989       7   28998   28995       6   29001
   28995       6   29001   28998       7   29007   29004       6   29010   29004
       6   29010   29007       7   29016   29013       6   29019   29013       6
   29019   29016       7   29025   29022       6   29028   29022       6   29028
   29025       7   29034   29031       6   29037   29031       6   29037   29034
       7   29043   29040       6   29046   29040       6   29046   29043       7
   29052   29049       6   29055   29049       6   29055   29052       7   29061
   29058       6   29064   29058       6   29064   29061       7   29070   29067
       6   29073   29067       6   29073   29070       7   29079   29076       6
   29082   29076       6   29082   29079       7   29088   29085       6   29091
   29085       6   29091   29088       7   29097   29094       6   29100   29094
       6   29100   29097       7   29106   29103       6   29109   29103       6
   29109   29106       7   29115   29112       6   29118   29112       6   29118
   29115       7   29124   29121       6   29127   29121       6   29127   29124
       7   29133   29130       6   29136   29130       6   29136   29133       7
   29142   29139       6   29145   29139       6   29145   29142       7   29151
   29148       6   29154   29148       6   29154   29151       7   29160   29157
       6   29163   29157       6   29163   29160       7   29169   29166       6
   29172   29166       6   29172   29169       7   29178   29175       6   29181
   29175       6   29181   29178       7   29187   29184       6   29190   29184
       6   29190   29187       7   29196   29193       6   29199   29193       6
   29199   29196       7   29205   29202       6   29208   29202       6   29208
   29205       7   29214   29211       6   29217   29211       6   29217   29214
       7   29223   29220       6   29226   29220       6   29226   29223       7
   29232   29229       6   29235   29229       6   29235   29232       7   29241
   29238       6   29244   29238       6   29244   29241       7   29250   29247
       6   29253   29247       6   29253   29250       7   29259   29256       6
   29262   29256       6   29262   29259       7   29268   29265       6   29271
   29265       6   29271   29268       7   29277   29274       6   29280   29274
       6   29280   29277       7   29286   29283       6   29289   29283       6
   29289   29286       7   29295   29292       6   29298   29292       6   29298
   29295       7   29304   29301       6   29307   29301       6   29307   29304
       7   29313   29310       6   29316   29310       6   29316   29313       7
   29322   29319       6   29325   29319       6   29325   29322       7   29331
   29328       6   29334   29328       6   29334   29331       7   29340   29337
       6   29343   29337       6   29343   29340       7   29349   29346       6
   29352   29346       6   29352   29349       7   29358   29355       6   29361
   29355       6   29361   29358       7   29367   29364       6   29370   29364
       6   29370   29367       7   29376   29373       6   29379   29373       6
   29379   29376       7   29385   29382       6   29388   29382       6   29388
   29385       7   29394   29391       6   29397   29391       6   29397   29394
       7   29403   29400       6   29406   29400       6   29406   29403       7
   29412   29409       6   29415   29409       6   29415   29412       7   29421
   29418       6   29424   29418       6   29424   29421       7   29430   29427
       6   29433   29427       6   29433   29430       7   29439   29436       6
   29442   29436       6   29442   29439       7   29448   29445       6   29451
   29445       6   29451   29448       7   29457   29454       6   29460   29454
       6   29460   29457       7   29466   29463       6   29469   29463       6
   29469   29466       7   29475   29472       6   29478   29472       6   29478
   29475       7   29484   29481       6   29487   29481       6   29487   29484
       7   29493   29490       6   29496   29490       6   29496   29493       7
   29502   29499       6   29505   29499       6   29505   29502       7   29511
   29508       6   29514   29508       6   29514   29511       7   29520   29517
       6   29523   29517       6   29523   29520       7   29529   29526       6
   29532   29526       6   29532   29529       7   29538   29535       6   29541
   29535       6   29541   29538       7   29547   29544       6   29550   29544
       6   29550   29547       7   29556   29553       6   29559   29553       6
   29559   29556       7   29565   29562       6   29568   29562       6   29568
   29565       7   29574   29571       6   29577   29571       6   29577   29574
       7   29583   29580       6   29586   29580       6   29586   29583       7
   29592   29589       6   29595   29589       6   29595   29592       7   29601
   29598       6   29604   29598       6   29604   29601       7   29610   29607
       6   29613   29607       6   29613   29610       7   29619   29616       6
   29622   29616       6   29622   29619       7   29628   29625       6   29631
   29625       6   29631   29628       7   29637   29634       6   29640   29634
       6   29640   29637       7   29646   29643       6   29649   29643       6
   29649   29646       7   29655   29652       6   29658   29652       6   29658
   29655       7   29664   29661       6   29667   29661       6   29667   29664
       7   29673   29670       6   29676   29670       6   29676   29673       7
   29682   29679       6   29685   29679       6   29685   29682       7   29691
   29688       6   29694   29688       6   29694   29691       7   29700   29697
       6   29703   29697       6   29703   29700       7   29709   29706       6
   29712   29706       6   29712   29709       7   29718   29715       6   29721
   29715       6   29721   29718       7   29727   29724       6   29730   29724
       6   29730   29727       7   29736   29733       6   29739   29733       6
   29739   29736       7   29745   29742       6   29748   29742       6   29748
   29745       7   29754   29751       6   29757   29751       6   29757   29754
       7   29763   29760       6   29766   29760       6   29766   29763       7
   29772   29769       6   29775   29769       6   29775   29772       7   29781
   29778       6   29784   29778       6   29784   29781       7   29790   29787
       6   29793   29787       6   29793   29790       7   29799   29796       6
   29802   29796       6   29802   29799       7   29808   29805       6   29811
   29805       6   29811   29808       7   29817   29814       6   29820   29814
       6   29820   29817       7   29826   29823       6   29829   29823       6
   29829   29826       7   29835   29832       6   29838   29832       6   29838
   29835       7   29844   29841       6   29847   29841       6   29847   29844
       7   29853   29850       6   29856   29850       6   29856   29853       7
   29862   29859       6   29865   29859       6   29865   29862       7   29871
   29868       6   29874   29868       6   29874   29871       7   29880   29877
       6   29883   29877       6   29883   29880       7   29889   29886       6
   29892   29886       6   29892   29889       7   29898   29895       6   29901
   29895       6   29901   29898       7   29907   29904       6   29910   29904
       6   29910   29907       7   29916   29913       6   29919   29913       6
   29919   29916       7   29925   29922       6   29928   29922       6   29928
   29925       7   29934   29931       6   29937   29931       6   29937   29934
       7   29943   29940       6   29946   29940       6   29946   29943       7
   29952   29949       6   29955   29949       6   29955   29952       7   29961
   29958       6   29964   29958       6   29964   29961       7   29970   29967
       6   29973   29967       6   29973   29970       7   29979   29976       6
   29982   29976       6   29982   29979       7   29988   29985       6   29991
   29985       6   29991   29988       7   29997   29994       6   30000   29994
       6   30000   29997       7   30006   30003       6   30009   30003       6
   30009   30006       7   30015   30012       6   30018   30012       6   30018
   30015       7   30024   30021       6   30027   30021       6   30027   30024
       7   30033   30030       6   30036   30030       6   30036   30033       7
   30042   30039       6   30045   30039       6   30045   30042       7   30051
   30048       6   30054   30048       6   30054   30051       7   30060   30057
       6   30063   30057       6   30063   30060       7   30069   30066       6
   30072   30066       6   30072   30069       7   30078   30075       6   30081
   30075       6   30081   30078       7   30087   30084       6   30090   30084
       6   30090   30087       7   30096   30093       6   30099   30093       6
   30099   30096       7   30105   30102       6   30108   30102       6   30108
   30105       7   30114   30111       6   30117   30111       6   30117   30114
       7   30123   30120       6   30126   30120       6   30126   30123       7
   30132   30129       6   30135   30129       6   30135   30132       7   30141
   30138       6   30144   30138       6   30144   30141       7   30150   30147
       6   30153   30147       6   30153   30150       7   30159   30156       6
   30162   30156       6   30162   30159       7   30168   30165       6   30171
   30165       6   30171   30168       7   30177   30174       6   30180   30174
       6   30180   30177       7   30186   30183       6   30189   30183       6
   30189   30186       7   30195   30192       6   30198   30192       6   30198
   30195       7   30204   30201       6   30207   30201       6   30207   30204
       7   30213   30210       6   30216   30210       6   30216   30213       7
   30222   30219       6   30225   30219       6   30225   30222       7   30231
   30228       6   30234   30228       6   30234   30231       7   30240   30237
       6   30243   30237       6   30243   30240       7   30249   30246       6
   30252   30246       6   30252   30249       7   30258   30255       6   30261
   30255       6   30261   30258       7   30267   30264       6   30270   30264
       6   30270   30267       7   30276   30273       6   30279   30273       6
   30279   30276       7   30285   30282       6   30288   30282       6   30288
   30285       7   30294   30291       6   30297   30291       6   30297   30294
       7   30303   30300       6   30306   30300       6   30306   30303       7
   30312   30309       6   30315   30309       6   30315   30312       7   30321
   30318       6   30324   30318       6   30324   30321       7   30330   30327
       6   30333   30327       6   30333   30330       7   30339   30336       6
   30342   30336       6   30342   30339       7   30348   30345       6   30351
   30345       6   30351   30348       7   30357   30354       6   30360   30354
       6   30360   30357       7   30366   30363       6   30369   30363       6
   30369   30366       7   30375   30372       6   30378   30372       6   30378
   30375       7   30384   30381       6   30387   30381       6   30387   30384
       7   30393   30390       6   30396   30390       6   30396   30393       7
   30402   30399       6   30405   30399       6   30405   30402       7   30411
   30408       6   30414   30408       6   30414   30411       7   30420   30417
       6   30423   30417       6   30423   30420       7   30429   30426       6
   30432   30426       6   30432   30429       7   30438   30435       6   30441
   30435       6   30441   30438       7   30447   30444       6   30450   30444
       6   30450   30447       7   30456   30453       6   30459   30453       6
   30459   30456       7   30465   30462       6   30468   30462       6   30468
   30465       7   30474   30471       6   30477   30471       6   30477   30474
       7   30483   30480       6   30486   30480       6   30486   30483       7
   30492   30489       6   30495   30489       6   30495   30492       7   30501
   30498       6   30504   30498       6   30504   30501       7   30510   30507
       6   30513   30507       6   30513   30510       7   30519   30516       6
   30522   30516       6   30522   30519       7   30528   30525       6   30531
   30525       6   30531   30528       7   30537   30534       6   30540   30534
       6   30540   30537       7   30546   30543       6   30549   30543       6
   30549   30546       7   30555   30552       6   30558   30552       6   30558
   30555       7   30564   30561       6   30567   30561       6   30567   30564
       7   30573   30570       6   30576   30570       6   30576   30573       7
   30582   30579       6   30585   30579       6   30585   30582       7   30591
   30588       6   30594   30588       6   30594   30591       7   30600   30597
       6   30603   30597       6   30603   30600       7   30609   30606       6
   30612   30606       6   30612   30609       7   30618   30615       6   30621
   30615       6   30621   30618       7   30627   30624       6   30630   30624
       6   30630   30627       7   30636   30633       6   30639   30633       6
   30639   30636       7   30645   30642       6   30648   30642       6   30648
   30645       7   30654   30651       6   30657   30651       6   30657   30654
       7   30663   30660       6   30666   30660       6   30666   30663       7
   30672   30669       6   30675   30669       6   30675   30672       7   30681
   30678       6   30684   30678       6   30684   30681       7   30690   30687
       6   30693   30687       6   30693   30690       7   30699   30696       6
   30702   30696       6   30702   30699       7   30708   30705       6   30711
   30705       6   30711   30708       7   30717   30714       6   30720   30714
       6   30720   30717       7   30726   30723       6   30729   30723       6
   30729   30726       7   30735   30732       6   30738   30732       6   30738
   30735       7   30744   30741       6   30747   30741       6   30747   30744
       7   30753   30750       6   30756   30750       6   30756   30753       7
   30762   30759       6   30765   30759       6   30765   30762       7   30771
   30768       6   30774   30768       6   30774   30771       7   30780   30777
       6   30783   30777       6   30783   30780       7   30789   30786       6
   30792   30786       6   30792   30789       7   30798   30795       6   30801
   30795       6   30801   30798       7   30807   30804       6   30810   30804
       6   30810   30807       7   30816   30813       6   30819   30813       6
   30819   30816       7   30825   30822       6   30828   30822       6   30828
   30825       7   30834   30831       6   30837   30831       6   30837   30834
       7   30843   30840       6   30846   30840       6   30846   30843       7
   30852   30849       6   30855   30849       6   30855   30852       7   30861
   30858       6   30864   30858       6   30864   30861       7   30870   30867
       6   30873   30867       6   30873   30870       7   30879   30876       6
   30882   30876       6   30882   30879       7   30888   30885       6   30891
   30885       6   30891   30888       7   30897   30894       6   30900   30894
       6   30900   30897       7   30906   30903       6   30909   30903       6
   30909   30906       7   30915   30912       6   30918   30912       6   30918
   30915       7   30924   30921       6   30927   30921       6   30927   30924
       7   30933   30930       6   30936   30930       6   30936   30933       7
   30942   30939       6   30945   30939       6   30945   30942       7   30951
   30948       6   30954   30948       6   30954   30951       7   30960   30957
       6   30963   30957       6   30963   30960       7   30969   30966       6
   30972   30966       6   30972   30969       7   30978   30975       6   30981
   30975       6   30981   30978       7   30987   30984       6   30990   30984
       6   30990   30987       7   30996   30993       6   30999   30993       6
   30999   30996       7   31005   31002       6   31008   31002       6   31008
   31005       7   31014   31011       6   31017   31011       6   31017   31014
       7   31023   31020       6   31026   31020       6   31026   31023       7
   31032   31029       6   31035   31029       6   31035   31032       7   31041
   31038       6   31044   31038       6   31044   31041       7   31050   31047
       6   31053   31047       6   31053   31050       7   31059   31056       6
   31062   31056       6   31062   31059       7   31068   31065       6   31071
   31065       6   31071   31068       7   31077   31074       6   31080   31074
       6   31080   31077       7   31086   31083       6   31089   31083       6
   31089   31086       7   31095   31092       6   31098   31092       6   31098
   31095       7   31104   31101       6   31107   31101       6   31107   31104
       7   31113   31110       6   31116   31110       6   31116   31113       7
   31122   31119       6   31125   31119       6   31125   31122       7   31131
   31128       6   31134   31128       6   31134   31131       7   31140   31137
       6   31143   31137       6   31143   31140       7   31149   31146       6
   31152   31146       6   31152   31149       7   31158   31155       6   31161
   31155       6   31161   31158       7   31167   31164       6   31170   31164
       6   31170   31167       7   31176   31173       6   31179   31173       6
   31179   31176       7   31185   31182       6   31188   31182       6   31188
   31185       7   31194   31191       6   31197   31191       6   31197   31194
       7   31203   31200       6   31206   31200       6   31206   31203       7
   31212   31209       6   31215   31209       6   31215   31212       7   31221
   31218       6   31224   31218       6   31224   31221       7   31230   31227
       6   31233   31227       6   31233   31230       7   31239   31236       6
   31242   31236       6   31242   31239       7   31248   31245       6   31251
   31245       6   31251   31248       7   31257   31254       6   31260   31254
       6   31260   31257       7   31266   31263       6   31269   31263       6
   31269   31266       7   31275   31272       6   31278   31272       6   31278
   31275       7   31284   31281       6   31287   31281       6   31287   31284
       7   31293   31290       6   31296   31290       6   31296   31293       7
   31302   31299       6   31305   31299       6   31305   31302       7   31311
   31308       6   31314   31308       6   31314   31311       7   31320   31317
       6   31323   31317       6   31323   31320       7   31329   31326       6
   31332   31326       6   31332   31329       7   31338   31335       6   31341
   31335       6   31341   31338       7   31347   31344       6   31350   31344
       6   31350   31347       7   31356   31353       6   31359   31353       6
   31359   31356       7   31365   31362       6   31368   31362       6   31368
   31365       7   31374   31371       6   31377   31371       6   31377   31374
       7   31383   31380       6   31386   31380       6   31386   31383       7
   31392   31389       6   31395   31389       6   31395   31392       7   31401
   31398       6   31404   31398       6   31404   31401       7   31410   31407
       6   31413   31407       6   31413   31410       7   31419   31416       6
   31422   31416       6   31422   31419       7   31428   31425       6   31431
   31425       6   31431   31428       7   31437   31434       6   31440   31434
       6   31440   31437       7   31446   31443       6   31449   31443       6
   31449   31446       7   31455   31452       6   31458   31452       6   31458
   31455       7   31464   31461       6   31467   31461       6   31467   31464
       7   31473   31470       6   31476   31470       6   31476   31473       7
   31482   31479       6   31485   31479       6   31485   31482       7   31491
   31488       6   31494   31488       6   31494   31491       7   31500   31497
       6   31503   31497       6   31503   31500       7   31509   31506       6
   31512   31506       6   31512   31509       7   31518   31515       6   31521
   31515       6   31521   31518       7   31527   31524       6   31530   31524
       6   31530   31527       7   31536   31533       6   31539   31533       6
   31539   31536       7   31545   31542       6   31548   31542       6   31548
   31545       7   31554   31551       6   31557   31551       6   31557   31554
       7   31563   31560       6   31566   31560       6   31566   31563       7
   31572   31569       6   31575   31569       6   31575   31572       7   31581
   31578       6   31584   31578       6   31584   31581       7   31590   31587
       6   31593   31587       6   31593   31590       7   31599   31596       6
   31602   31596       6   31602   31599       7   31608   31605       6   31611
   31605       6   31611   31608       7   31617   31614       6   31620   31614
       6   31620   31617       7   31626   31623       6   31629   31623       6
   31629   31626       7   31635   31632       6   31638   31632       6   31638
   31635       7   31644   31641       6   31647   31641       6   31647   31644
       7   31653   31650       6   31656   31650       6   31656   31653       7
   31662   31659       6   31665   31659       6   31665   31662       7   31671
   31668       6   31674   31668       6   31674   31671       7   31680   31677
       6   31683   31677       6   31683   31680       7   31689   31686       6
   31692   31686       6   31692   31689       7   31698   31695       6   31701
   31695       6   31701   31698       7   31707   31704       6   31710   31704
       6   31710   31707       7   31716   31713       6   31719   31713       6
   31719   31716       7   31725   31722       6   31728   31722       6   31728
   31725       7   31734   31731       6   31737   31731       6   31737   31734
       7   31743   31740       6   31746   31740       6   31746   31743       7
   31752   31749       6   31755   31749       6   31755   31752       7   31761
   31758       6   31764   31758       6   31764   31761       7   31770   31767
       6   31773   31767       6   31773   31770       7   31779   31776       6
   31782   31776       6   31782   31779       7   31788   31785       6   31791
   31785       6   31791   31788       7   31797   31794       6   31800   31794
       6   31800   31797       7   31806   31803       6   31809   31803       6
   31809   31806       7   31815   31812       6   31818   31812       6   31818
   31815       7   31824   31821       6   31827   31821       6   31827   31824
       7   31833   31830       6   31836   31830       6   31836   31833       7
   31842   31839       6   31845   31839       6   31845   31842       7   31851
   31848       6   31854   31848       6   31854   31851       7   31860   31857
       6   31863   31857       6   31863   31860       7   31869   31866       6
   31872   31866       6   31872   31869       7   31878   31875       6   31881
   31875       6   31881   31878       7   31887   31884       6   31890   31884
       6   31890   31887       7   31896   31893       6   31899   31893       6
   31899   31896       7   31905   31902       6   31908   31902       6   31908
   31905       7   31914   31911       6   31917   31911       6   31917   31914
       7   31923   31920       6   31926   31920       6   31926   31923       7
   31932   31929       6   31935   31929       6   31935   31932       7   31941
   31938       6   31944   31938       6   31944   31941       7   31950   31947
       6   31953   31947       6   31953   31950       7   31959   31956       6
   31962   31956       6   31962   31959       7   31968   31965       6   31971
   31965       6   31971   31968       7   31977   31974       6   31980   31974
       6   31980   31977       7   31986   31983       6   31989   31983       6
   31989   31986       7   31995   31992       6   31998   31992       6   31998
   31995       7   32004   32001       6   32007   32001       6   32007   32004
       7   32013   32010       6   32016   32010       6   32016   32013       7
   32022   32019       6   32025   32019       6   32025   32022       7   32031
   32028       6   32034   32028       6   32034   32031       7   32040   32037
       6   32043   32037       6   32043   32040       7   32049   32046       6
   32052   32046       6   32052   32049       7   32058   32055       6   32061
   32055       6   32061   32058       7   32067   32064       6   32070   32064
       6   32070   32067       7   32076   32073       6   32079   32073       6
   32079   32076       7   32085   32082       6   32088   32082       6   32088
   32085       7   32094   32091       6   32097   32091       6   32097   32094
       7   32103   32100       6   32106   32100       6   32106   32103       7
   32112   32109       6   32115   32109       6   32115   32112       7   32121
   32118       6   32124   32118       6   32124   32121       7   32130   32127
       6   32133   32127       6   32133   32130       7   32139   32136       6
   32142   32136       6   32142   32139       7   32148   32145       6   32151
   32145       6   32151   32148       7   32157   32154       6   32160   32154
       6   32160   32157       7   32166   32163       6   32169   32163       6
   32169   32166       7   32175   32172       6   32178   32172       6   32178
   32175       7   32184   32181       6   32187   32181       6   32187   32184
       7   32193   32190       6   32196   32190       6   32196   32193       7
   32202   32199       6   32205   32199       6   32205   32202       7   32211
   32208       6   32214   32208       6   32214   32211       7   32220   32217
       6   32223   32217       6   32223   32220       7   32229   32226       6
   32232   32226       6   32232   32229       7   32238   32235       6   32241
   32235       6   32241   32238       7   32247   32244       6   32250   32244
       6   32250   32247       7   32256   32253       6   32259   32253       6
   32259   32256       7   32265   32262       6   32268   32262       6   32268
   32265       7   32274   32271       6   32277   32271       6   32277   32274
       7   32283   32280       6   32286   32280       6   32286   32283       7
   32292   32289       6   32295   32289       6   32295   32292       7   32301
   32298       6   32304   32298       6   32304   32301       7   32310   32307
       6   32313   32307       6   32313   32310       7   32319   32316       6
   32322   32316       6   32322   32319       7   32328   32325       6   32331
   32325       6   32331   32328       7   32337   32334       6   32340   32334
       6   32340   32337       7   32346   32343       6   32349   32343       6
   32349   32346       7   32355   32352       6   32358   32352       6   32358
   32355       7   32364   32361       6   32367   32361       6   32367   32364
       7   32373   32370       6   32376   32370       6   32376   32373       7
   32382   32379       6   32385   32379       6   32385   32382       7   32391
   32388       6   32394   32388       6   32394   32391       7   32400   32397
       6   32403   32397       6   32403   32400       7   32409   32406       6
   32412   32406       6   32412   32409       7   32418   32415       6   32421
   32415       6   32421   32418       7   32427   32424       6   32430   32424
       6   32430   32427       7   32436   32433       6   32439   32433       6
   32439   32436       7   32445   32442       6   32448   32442       6   32448
   32445       7   32454   32451       6   32457   32451       6   32457   32454
       7   32463   32460       6   32466   32460       6   32466   32463       7
   32472   32469       6   32475   32469       6   32475   32472       7   32481
   32478       6   32484   32478       6   32484   32481       7   32490   32487
       6   32493   32487       6   32493   32490       7   32499   32496       6
   32502   32496       6   32502   32499       7   32508   32505       6   32511
   32505       6   32511   32508       7   32517   32514       6   32520   32514
       6   32520   32517       7   32526   32523       6   32529   32523       6
   32529   32526       7   32535   32532       6   32538   32532       6   32538
   32535       7   32544   32541       6   32547   32541       6   32547   32544
       7   32553   32550       6   32556   32550       6   32556   32553       7
   32562   32559       6   32565   32559       6   32565   32562       7   32571
   32568       6   32574   32568       6   32574   32571       7   32580   32577
       6   32583   32577       6   32583   32580       7   32589   32586       6
   32592   32586       6   32592   32589       7   32598   32595       6   32601
   32595       6   32601   32598       7   32607   32604       6   32610   32604
       6   32610   32607       7   32616   32613       6   32619   32613       6
   32619   32616       7   32625   32622       6   32628   32622       6   32628
   32625       7   32634   32631       6   32637   32631       6   32637   32634
       7   32643   32640       6   32646   32640       6   32646   32643       7
   32652   32649       6   32655   32649       6   32655   32652       7   32661
   32658       6   32664   32658       6   32664   32661       7   32670   32667
       6   32673   32667       6   32673   32670       7   32679   32676       6
   32682   32676       6   32682   32679       7   32688   32685       6   32691
   32685       6   32691   32688       7   32697   32694       6   32700   32694
       6   32700   32697       7   32706   32703       6   32709   32703       6
   32709   32706       7   32715   32712       6   32718   32712       6   32718
   32715       7   32724   32721       6   32727   32721       6   32727   32724
       7   32733   32730       6   32736   32730       6   32736   32733       7
   32742   32739       6   32745   32739       6   32745   32742       7   32751
   32748       6   32754   32748       6   32754   32751       7   32760   32757
       6   32763   32757       6   32763   32760       7   32769   32766       6
   32772   32766       6   32772   32769       7   32778   32775       6   32781
   32775       6   32781   32778       7   32787   32784       6   32790   32784
       6   32790   32787       7   32796   32793       6   32799   32793       6
   32799   32796       7   32805   32802       6   32808   32802       6   32808
   32805       7   32814   32811       6   32817   32811       6   32817   32814
       7   32823   32820       6   32826   32820       6   32826   32823       7
   32832   32829       6   32835   32829       6   32835   32832       7   32841
   32838       6   32844   32838       6   32844   32841       7   32850   32847
       6   32853   32847       6   32853   32850       7   32859   32856       6
   32862   32856       6   32862   32859       7   32868   32865       6   32871
   32865       6   32871   32868       7   32877   32874       6   32880   32874
       6   32880   32877       7   32886   32883       6   32889   32883       6
   32889   32886       7   32895   32892       6   32898   32892       6   32898
   32895       7   32904   32901       6   32907   32901       6   32907   32904
       7   32913   32910       6   32916   32910       6   32916   32913       7
   32922   32919       6   32925   32919       6   32925   32922       7   32931
   32928       6   32934   32928       6   32934   32931       7   32940   32937
       6   32943   32937       6   32943   32940       7   32949   32946       6
   32952   32946       6   32952   32949       7   32958   32955       6   32961
   32955       6   32961   32958       7   32967   32964       6   32970   32964
       6   32970   32967       7   32976   32973       6   32979   32973       6
   32979   32976       7   32985   32982       6   32988   32982       6   32988
   32985       7   32994   32991       6   32997   32991       6   32997   32994
       7   33003   33000       6   33006   33000       6   33006   33003       7
   33012   33009       6   33015   33009       6   33015   33012       7   33021
   33018       6   33024   33018       6   33024   33021       7   33030   33027
       6   33033   33027       6   33033   33030       7   33039   33036       6
   33042   33036       6   33042   33039       7   33048   33045       6   33051
   33045       6   33051   33048       7   33057   33054       6   33060   33054
       6   33060   33057       7   33066   33063       6   33069   33063       6
   33069   33066       7   33075   33072       6   33078   33072       6   33078
   33075       7   33084   33081       6   33087   33081       6   33087   33084
       7   33093   33090       6   33096   33090       6   33096   33093       7
   33102   33099       6   33105   33099       6   33105   33102       7   33111
   33108       6   33114   33108       6   33114   33111       7   33120   33117
       6   33123   33117       6   33123   33120       7   33129   33126       6
   33132   33126       6   33132   33129       7   33138   33135       6   33141
   33135       6   33141   33138       7   33147   33144       6   33150   33144
       6   33150   33147       7   33156   33153       6   33159   33153       6
   33159   33156       7   33165   33162       6   33168   33162       6   33168
   33165       7   33174   33171       6   33177   33171       6   33177   33174
       7   33183   33180       6   33186   33180       6   33186   33183       7
   33192   33189       6   33195   33189       6   33195   33192       7   33201
   33198       6   33204   33198       6   33204   33201       7   33210   33207
       6   33213   33207       6   33213   33210       7   33219   33216       6
   33222   33216       6   33222   33219       7   33228   33225       6   33231
   33225       6   33231   33228       7   33237   33234       6   33240   33234
       6   33240   33237       7   33246   33243       6   33249   33243       6
   33249   33246       7   33255   33252       6   33258   33252       6   33258
   33255       7   33264   33261       6   33267   33261       6   33267   33264
       7   33273   33270       6   33276   33270       6   33276   33273       7
   33282   33279       6   33285   33279       6   33285   33282       7   33291
   33288       6   33294   33288       6   33294   33291       7   33300   33297
       6   33303   33297       6   33303   33300       7   33309   33306       6
   33312   33306       6   33312   33309       7   33318   33315       6   33321
   33315       6   33321   33318       7   33327   33324       6   33330   33324
       6   33330   33327       7   33336   33333       6   33339   33333       6
   33339   33336       7   33345   33342       6   33348   33342       6   33348
   33345       7   33354   33351       6   33357   33351       6   33357   33354
       7   33363   33360       6   33366   33360       6   33366   33363       7
   33372   33369       6   33375   33369       6   33375   33372       7   33381
   33378       6   33384   33378       6   33384   33381       7   33390   33387
       6   33393   33387       6   33393   33390       7   33399   33396       6
   33402   33396       6   33402   33399       7   33408   33405       6   33411
   33405       6   33411   33408       7   33417   33414       6   33420   33414
       6   33420   33417       7   33426   33423       6   33429   33423       6
   33429   33426       7   33435   33432       6   33438   33432       6   33438
   33435       7   33444   33441       6   33447   33441       6   33447   33444
       7   33453   33450       6   33456   33450       6   33456   33453       7
   33462   33459       6   33465   33459       6   33465   33462       7   33471
   33468       6   33474   33468       6   33474   33471       7   33480   33477
       6   33483   33477       6   33483   33480       7   33489   33486       6
   33492   33486       6   33492   33489       7   33498   33495       6   33501
   33495       6   33501   33498       7   33507   33504       6   33510   33504
       6   33510   33507       7   33516   33513       6   33519   33513       6
   33519   33516       7   33525   33522       6   33528   33522       6   33528
   33525       7   33534   33531       6   33537   33531       6   33537   33534
       7   33543   33540       6   33546   33540       6   33546   33543       7
   33552   33549       6   33555   33549       6   33555   33552       7   33561
   33558       6   33564   33558       6   33564   33561       7   33570   33567
       6   33573   33567       6   33573   33570       7   33579   33576       6
   33582   33576       6   33582   33579       7   33588   33585       6   33591
   33585       6   33591   33588       7   33597   33594       6   33600   33594
       6   33600   33597       7   33606   33603       6   33609   33603       6
   33609   33606       7   33615   33612       6   33618   33612       6   33618
   33615       7   33624   33621       6   33627   33621       6   33627   33624
       7   33633   33630       6   33636   33630       6   33636   33633       7
   33642   33639       6   33645   33639       6   33645   33642       7   33651
   33648       6   33654   33648       6   33654   33651       7   33660   33657
       6   33663   33657       6   33663   33660       7   33669   33666       6
   33672   33666       6   33672   33669       7   33678   33675       6   33681
   33675       6   33681   33678       7   33687   33684       6   33690   33684
       6   33690   33687       7   33696   33693       6   33699   33693       6
   33699   33696       7   33705   33702       6   33708   33702       6   33708
   33705       7   33714   33711       6   33717   33711       6   33717   33714
       7   33723   33720       6   33726   33720       6   33726   33723       7
   33732   33729       6   33735   33729       6   33735   33732       7   33741
   33738       6   33744   33738       6   33744   33741       7   33750   33747
       6   33753   33747       6   33753   33750       7   33759   33756       6
   33762   33756       6   33762   33759       7   33768   33765       6   33771
   33765       6   33771   33768       7   33777   33774       6   33780   33774
       6   33780   33777       7   33786   33783       6   33789   33783       6
   33789   33786       7   33795   33792       6   33798   33792       6   33798
   33795       7   33804   33801       6   33807   33801       6   33807   33804
       7   33813   33810       6   33816   33810       6   33816   33813       7
   33822   33819       6   33825   33819       6   33825   33822       7   33831
   33828       6   33834   33828       6   33834   33831       7   33840   33837
       6   33843   33837       6   33843   33840       7   33849   33846       6
   33852   33846       6   33852   33849       7   33858   33855       6   33861
   33855       6   33861   33858       7   33867   33864       6   33870   33864
       6   33870   33867       7   33876   33873       6   33879   33873       6
   33879   33876       7   33885   33882       6   33888   33882       6   33888
   33885       7   33894   33891       6   33897   33891       6   33897   33894
       7   33903   33900       6   33906   33900       6   33906   33903       7
   33912   33909       6   33915   33909       6   33915   33912       7   33921
   33918       6   33924   33918       6   33924   33921       7   33930   33927
       6   33933   33927       6   33933   33930       7   33939   33936       6
   33942   33936       6   33942   33939       7   33948   33945       6   33951
   33945       6   33951   33948       7   33957   33954       6   33960   33954
       6   33960   33957       7   33966   33963       6   33969   33963       6
   33969   33966       7   33975   33972       6   33978   33972       6   33978
   33975       7   33984   33981       6   33987   33981       6   33987   33984
       7   33993   33990       6   33996   33990       6   33996   33993       7
   34002   33999       6   34005   33999       6   34005   34002       7   34011
   34008       6   34014   34008       6   34014   34011       7   34020   34017
       6   34023   34017       6   34023   34020       7   34029   34026       6
   34032   34026       6   34032   34029       7   34038   34035       6   34041
   34035       6   34041   34038       7   34047   34044       6   34050   34044
       6   34050   34047       7   34056   34053       6   34059   34053       6
   34059   34056       7   34065   34062       6   34068   34062       6   34068
   34065       7   34074   34071       6   34077   34071       6   34077   34074
       7   34083   34080       6   34086   34080       6   34086   34083       7
   34092   34089       6   34095   34089       6   34095   34092       7   34101
   34098       6   34104   34098       6   34104   34101       7   34110   34107
       6   34113   34107       6   34113   34110       7   34119   34116       6
   34122   34116       6   34122   34119       7   34128   34125       6   34131
   34125       6   34131   34128       7   34137   34134       6   34140   34134
       6   34140   34137       7   34146   34143       6   34149   34143       6
   34149   34146       7   34155   34152       6   34158   34152       6   34158
   34155       7   34164   34161       6   34167   34161       6   34167   34164
       7   34173   34170       6   34176   34170       6   34176   34173       7
   34182   34179       6   34185   34179       6   34185   34182       7   34191
   34188       6   34194   34188       6   34194   34191       7   34200   34197
       6   34203   34197       6   34203   34200       7   34209   34206       6
   34212   34206       6   34212   34209       7   34218   34215       6   34221
   34215       6   34221   34218       7   34227   34224       6   34230   34224
       6   34230   34227       7   34236   34233       6   34239   34233       6
   34239   34236       7   34245   34242       6   34248   34242       6   34248
   34245       7   34254   34251       6   34257   34251       6   34257   34254
       7   34263   34260       6   34266   34260       6   34266   34263       7
   34272   34269       6   34275   34269       6   34275   34272       7   34281
   34278       6   34284   34278       6   34284   34281       7   34290   34287
       6   34293   34287       6   34293   34290       7   34299   34296       6
   34302   34296       6   34302   34299       7   34308   34305       6   34311
   34305       6   34311   34308       7   34317   34314       6   34320   34314
       6   34320   34317       7   34326   34323       6   34329   34323       6
   34329   34326       7   34335   34332       6   34338   34332       6   34338
   34335       7   34344   34341       6   34347   34341       6   34347   34344
       7   34353   34350       6   34356   34350       6   34356   34353       7
   34362   34359       6   34365   34359       6   34365   34362       7   34371
   34368       6   34374   34368       6   34374   34371       7   34380   34377
       6   34383   34377       6   34383   34380       7   34389   34386       6
   34392   34386       6   34392   34389       7   34398   34395       6   34401
   34395       6   34401   34398       7   34407   34404       6   34410   34404
       6   34410   34407       7   34416   34413       6   34419   34413       6
   34419   34416       7   34425   34422       6   34428   34422       6   34428
   34425       7   34434   34431       6   34437   34431       6   34437   34434
       7   34443   34440       6   34446   34440       6   34446   34443       7
   34452   34449       6   34455   34449       6   34455   34452       7   34461
   34458       6   34464   34458       6   34464   34461       7   34470   34467
       6   34473   34467       6   34473   34470       7   34479   34476       6
   34482   34476       6   34482   34479       7   34488   34485       6   34491
   34485       6   34491   34488       7   34497   34494       6   34500   34494
       6   34500   34497       7   34506   34503       6   34509   34503       6
   34509   34506       7   34515   34512       6   34518   34512       6   34518
   34515       7   34524   34521       6   34527   34521       6   34527   34524
       7   34533   34530       6   34536   34530       6   34536   34533       7
   34542   34539       6   34545   34539       6   34545   34542       7   34551
   34548       6   34554   34548       6   34554   34551       7   34560   34557
       6   34563   34557       6   34563   34560       7   34569   34566       6
   34572   34566       6   34572   34569       7   34578   34575       6   34581
   34575       6   34581   34578       7   34587   34584       6   34590   34584
       6   34590   34587       7   34596   34593       6   34599   34593       6
   34599   34596       7   34605   34602       6   34608   34602       6   34608
   34605       7   34614   34611       6   34617   34611       6   34617   34614
       7   34623   34620       6   34626   34620       6   34626   34623       7
   34632   34629       6   34635   34629       6   34635   34632       7   34641
   34638       6   34644   34638       6   34644   34641       7   34650   34647
       6   34653   34647       6   34653   34650       7   34659   34656       6
   34662   34656       6   34662   34659       7   34668   34665       6   34671
   34665       6   34671   34668       7   34677   34674       6   34680   34674
       6   34680   34677       7   34686   34683       6   34689   34683       6
   34689   34686       7   34695   34692       6   34698   34692       6   34698
   34695       7   34704   34701       6   34707   34701       6   34707   34704
       7   34713   34710       6   34716   34710       6   34716   34713       7
   34722   34719       6   34725   34719       6   34725   34722       7   34731
   34728       6   34734   34728       6   34734   34731       7   34740   34737
       6   34743   34737       6   34743   34740       7   34749   34746       6
   34752   34746       6   34752   34749       7   34758   34755       6   34761
   34755       6   34761   34758       7   34767   34764       6   34770   34764
       6   34770   34767       7   34776   34773       6   34779   34773       6
   34779   34776       7   34785   34782       6   34788   34782       6   34788
   34785       7   34794   34791       6   34797   34791       6   34797   34794
       7   34803   34800       6   34806   34800       6   34806   34803       7
   34812   34809       6   34815   34809       6   34815   34812       7   34821
   34818       6   34824   34818       6   34824   34821       7   34830   34827
       6   34833   34827       6   34833   34830       7   34839   34836       6
   34842   34836       6   34842   34839       7   34848   34845       6   34851
   34845       6   34851   34848       7   34857   34854       6   34860   34854
       6   34860   34857       7   34866   34863       6   34869   34863       6
   34869   34866       7   34875   34872       6   34878   34872       6   34878
   34875       7   34884   34881       6   34887   34881       6   34887   34884
       7   34893   34890       6   34896   34890       6   34896   34893       7
   34902   34899       6   34905   34899       6   34905   34902       7   34911
   34908       6   34914   34908       6   34914   34911       7   34920   34917
       6   34923   34917       6   34923   34920       7   34929   34926       6
   34932   34926       6   34932   34929       7   34938   34935       6   34941
   34935       6   34941   34938       7   34947   34944       6   34950   34944
       6   34950   34947       7   34956   34953       6   34959   34953       6
   34959   34956       7   34965   34962       6   34968   34962       6   34968
   34965       7   34974   34971       6   34977   34971       6   34977   34974
       7   34983   34980       6   34986   34980       6   34986   34983       7
   34992   34989       6   34995   34989       6   34995   34992       7   35001
   34998       6   35004   34998       6   35004   35001       7   35010   35007
       6   35013   35007       6   35013   35010       7   35019   35016       6
   35022   35016       6   35022   35019       7   35028   35025       6   35031
   35025       6   35031   35028       7   35037   35034       6   35040   35034
       6   35040   35037       7   35046   35043       6   35049   35043       6
   35049   35046       7   35055   35052       6   35058   35052       6   35058
   35055       7   35064   35061       6   35067   35061       6   35067   35064
       7   35073   35070       6   35076   35070       6   35076   35073       7
   35082   35079       6   35085   35079       6   35085   35082       7   35091
   35088       6   35094   35088       6   35094   35091       7   35100   35097
       6   35103   35097       6   35103   35100       7   35109   35106       6
   35112   35106       6   35112   35109       7   35118   35115       6   35121
   35115       6   35121   35118       7   35127   35124       6   35130   35124
       6   35130   35127       7   35136   35133       6   35139   35133       6
   35139   35136       7   35145   35142       6   35148   35142       6   35148
   35145       7   35154   35151       6   35157   35151       6   35157   35154
       7   35163   35160       6   35166   35160       6   35166   35163       7
   35172   35169       6   35175   35169       6   35175   35172       7   35181
   35178       6   35184   35178       6   35184   35181       7   35190   35187
       6   35193   35187       6   35193   35190       7   35199   35196       6
   35202   35196       6   35202   35199       7   35208   35205       6   35211
   35205       6   35211   35208       7   35217   35214       6   35220   35214
       6   35220   35217       7   35226   35223       6   35229   35223       6
   35229   35226       7   35235   35232       6   35238   35232       6   35238
   35235       7   35244   35241       6   35247   35241       6   35247   35244
       7   35253   35250       6   35256   35250       6   35256   35253       7
   35262   35259       6   35265   35259       6   35265   35262       7   35271
   35268       6   35274   35268       6   35274   35271       7   35280   35277
       6   35283   35277       6   35283   35280       7   35289   35286       6
   35292   35286       6   35292   35289       7   35298   35295       6   35301
   35295       6   35301   35298       7   35307   35304       6   35310   35304
       6   35310   35307       7   35316   35313       6   35319   35313       6
   35319   35316       7   35325   35322       6   35328   35322       6   35328
   35325       7   35334   35331       6   35337   35331       6   35337   35334
       7   35343   35340       6   35346   35340       6   35346   35343       7
   35352   35349       6   35355   35349       6   35355   35352       7   35361
   35358       6   35364   35358       6   35364   35361       7   35370   35367
       6   35373   35367       6   35373   35370       7   35379   35376       6
   35382   35376       6   35382   35379       7   35388   35385       6   35391
   35385       6   35391   35388       7   35397   35394       6   35400   35394
       6   35400   35397       7   35406   35403       6   35409   35403       6
   35409   35406       7   35415   35412       6   35418   35412       6   35418
   35415       7   35424   35421       6   35427   35421       6   35427   35424
       7   35433   35430       6   35436   35430       6   35436   35433       7
   35442   35439       6   35445   35439       6   35445   35442       7   35451
   35448       6   35454   35448       6   35454   35451       7   35460   35457
       6   35463   35457       6   35463   35460       7   35469   35466       6
   35472   35466       6   35472   35469       7   35478   35475       6   35481
   35475       6   35481   35478       7   35487   35484       6   35490   35484
       6   35490   35487       7   35496   35493       6   35499   35493       6
   35499   35496       7   35505   35502       6   35508   35502       6   35508
   35505       7   35514   35511       6   35517   35511       6   35517   35514
       7   35523   35520       6   35526   35520       6   35526   35523       7
   35532   35529       6   35535   35529       6   35535   35532       7   35541
   35538       6   35544   35538       6   35544   35541       7   35550   35547
       6   35553   35547       6   35553   35550       7   35559   35556       6
   35562   35556       6   35562   35559       7   35568   35565       6   35571
   35565       6   35571   35568       7   35577   35574       6   35580   35574
       6   35580   35577       7   35586   35583       6   35589   35583       6
   35589   35586       7   35595   35592       6   35598   35592       6   35598
   35595       7   35604   35601       6   35607   35601       6   35607   35604
       7   35613   35610       6   35616   35610       6   35616   35613       7
   35622   35619       6   35625   35619       6   35625   35622       7   35631
   35628       6   35634   35628       6   35634   35631       7   35640   35637
       6   35643   35637       6   35643   35640       7   35649   35646       6
   35652   35646       6   35652   35649       7   35658   35655       6   35661
   35655       6   35661   35658       7   35667   35664       6   35670   35664
       6   35670   35667       7   35676   35673       6   35679   35673       6
   35679   35676       7   35685   35682       6   35688   35682       6   35688
   35685       7   35694   35691       6   35697   35691       6   35697   35694
       7   35703   35700       6   35706   35700       6   35706   35703       7
   35712   35709       6   35715   35709       6   35715   35712       7   35721
   35718       6   35724   35718       6   35724   35721       7   35730   35727
       6   35733   35727       6   35733   35730       7   35739   35736       6
   35742   35736       6   35742   35739       7   35748   35745       6   35751
   35745       6   35751   35748       7   35757   35754       6   35760   35754
       6   35760   35757       7   35766   35763       6   35769   35763       6
   35769   35766       7   35775   35772       6   35778   35772       6   35778
   35775       7   35784   35781       6   35787   35781       6   35787   35784
       7   35793   35790       6   35796   35790       6   35796   35793       7
   35802   35799       6   35805   35799       6   35805   35802       7   35811
   35808       6   35814   35808       6   35814   35811       7   35820   35817
       6   35823   35817       6   35823   35820       7   35829   35826       6
   35832   35826       6   35832   35829       7   35838   35835       6   35841
   35835       6   35841   35838       7   35847   35844       6   35850   35844
       6   35850   35847       7   35856   35853       6   35859   35853       6
   35859   35856       7   35865   35862       6   35868   35862       6   35868
   35865       7   35874   35871       6   35877   35871       6   35877   35874
       7   35883   35880       6   35886   35880       6   35886   35883       7
   35892   35889       6   35895   35889       6   35895   35892       7   35901
   35898       6   35904   35898       6   35904   35901       7   35910   35907
       6   35913   35907       6   35913   35910       7   35919   35916       6
   35922   35916       6   35922   35919       7   35928   35925       6   35931
   35925       6   35931   35928       7   35937   35934       6   35940   35934
       6   35940   35937       7   35946   35943       6   35949   35943       6
   35949   35946       7   35955   35952       6   35958   35952       6   35958
   35955       7   35964   35961       6   35967   35961       6   35967   35964
       7   35973   35970       6   35976   35970       6   35976   35973       7
   35982   35979       6   35985   35979       6   35985   35982       7   35991
   35988       6   35994   35988       6   35994   35991       7   36000   35997
       6   36003   35997       6   36003   36000       7   36009   36006       6
   36012   36006       6   36012   36009       7   36018   36015       6   36021
   36015       6   36021   36018       7   36027   36024       6   36030   36024
       6   36030   36027       7   36036   36033       6   36039   36033       6
   36039   36036       7   36045   36042       6   36048   36042       6   36048
   36045       7   36054   36051       6   36057   36051       6   36057   36054
       7   36063   36060       6   36066   36060       6   36066   36063       7
   36072   36069       6   36075   36069       6   36075   36072       7   36081
   36078       6   36084   36078       6   36084   36081       7   36090   36087
       6   36093   36087       6   36093   36090       7   36099   36096       6
   36102   36096       6   36102   36099       7   36108   36105       6   36111
   36105       6   36111   36108       7   36117   36114       6   36120   36114
       6   36120   36117       7   36126   36123       6   36129   36123       6
   36129   36126       7   36135   36132       6   36138   36132       6   36138
   36135       7   36144   36141       6   36147   36141       6   36147   36144
       7   36153   36150       6   36156   36150       6   36156   36153       7
   36162   36159       6   36165   36159       6   36165   36162       7   36171
   36168       6   36174   36168       6   36174   36171       7   36180   36177
       6   36183   36177       6   36183   36180       7   36189   36186       6
   36192   36186       6   36192   36189       7   36198   36195       6   36201
   36195       6   36201   36198       7   36207   36204       6   36210   36204
       6   36210   36207       7   36216   36213       6   36219   36213       6
   36219   36216       7   36225   36222       6   36228   36222       6   36228
   36225       7   36234   36231       6   36237   36231       6   36237   36234
       7   36243   36240       6   36246   36240       6   36246   36243       7
   36252   36249       6   36255   36249       6   36255   36252       7   36261
   36258       6   36264   36258       6   36264   36261       7   36270   36267
       6   36273   36267       6   36273   36270       7   36279   36276       6
   36282   36276       6   36282   36279       7   36288   36285       6   36291
   36285       6   36291   36288       7   36297   36294       6   36300   36294
       6   36300   36297       7   36306   36303       6   36309   36303       6
   36309   36306       7   36315   36312       6   36318   36312       6   36318
   36315       7   36324   36321       6   36327   36321       6   36327   36324
       7   36333   36330       6   36336   36330       6   36336   36333       7
   36342   36339       6   36345   36339       6   36345   36342       7   36351
   36348       6   36354   36348       6   36354   36351       7   36360   36357
       6   36363   36357       6   36363   36360       7   36369   36366       6
   36372   36366       6   36372   36369       7   36378   36375       6   36381
   36375       6   36381   36378       7   36387   36384       6   36390   36384
       6   36390   36387       7   36396   36393       6   36399   36393       6
   36399   36396       7   36405   36402       6   36408   36402       6   36408
   36405       7   36414   36411       6   36417   36411       6   36417   36414
       7   36423   36420       6   36426   36420       6   36426   36423       7
   36432   36429       6   36435   36429       6   36435   36432       7   36441
   36438       6   36444   36438       6   36444   36441       7   36450   36447
       6   36453   36447       6   36453   36450       7   36459   36456       6
   36462   36456       6   36462   36459       7   36468   36465       6   36471
   36465       6   36471   36468       7   36477   36474       6   36480   36474
       6   36480   36477       7   36486   36483       6   36489   36483       6
   36489   36486       7   36495   36492       6   36498   36492       6   36498
   36495       7   36504   36501       6   36507   36501       6   36507   36504
       7   36513   36510       6   36516   36510       6   36516   36513       7
   36522   36519       6   36525   36519       6   36525   36522       7   36531
   36528       6   36534   36528       6   36534   36531       7   36540   36537
       6   36543   36537       6   36543   36540       7   36549   36546       6
   36552   36546       6   36552   36549       7   36558   36555       6   36561
   36555       6   36561   36558       7   36567   36564       6   36570   36564
       6   36570   36567       7   36576   36573       6   36579   36573       6
   36579   36576       7   36585   36582       6   36588   36582       6   36588
   36585       7   36594   36591       6   36597   36591       6   36597   36594
       7   36603   36600       6   36606   36600       6   36606   36603       7
   36612   36609       6   36615   36609       6   36615   36612       7   36621
   36618       6   36624   36618       6   36624   36621       7   36630   36627
       6   36633   36627       6   36633   36630       7   36639   36636       6
   36642   36636       6   36642   36639       7   36648   36645       6   36651
   36645       6   36651   36648       7   36657   36654       6   36660   36654
       6   36660   36657       7   36666   36663       6   36669   36663       6
   36669   36666       7   36675   36672       6   36678   36672       6   36678
   36675       7   36684   36681       6   36687   36681       6   36687   36684
       7   36693   36690       6   36696   36690       6   36696   36693       7
   36702   36699       6   36705   36699       6   36705   36702       7   36711
   36708       6   36714   36708       6   36714   36711       7   36720   36717
       6   36723   36717       6   36723   36720       7   36729   36726       6
   36732   36726       6   36732   36729       7   36738   36735       6   36741
   36735       6   36741   36738       7   36747   36744       6   36750   36744
       6   36750   36747       7   36756   36753       6   36759   36753       6
   36759   36756       7   36765   36762       6   36768   36762       6   36768
   36765       7   36774   36771       6   36777   36771       6   36777   36774
       7   36783   36780       6   36786   36780       6   36786   36783       7
   36792   36789       6   36795   36789       6   36795   36792       7   36801
   36798       6   36804   36798       6   36804   36801       7   36810   36807
       6   36813   36807       6   36813   36810       7   36819   36816       6
   36822   36816       6   36822   36819       7   36828   36825       6   36831
   36825       6   36831   36828       7   36837   36834       6   36840   36834
       6   36840   36837       7   36846   36843       6   36849   36843       6
   36849   36846       7   36855   36852       6   36858   36852       6   36858
   36855       7   36864   36861       6   36867   36861       6   36867   36864
       7   36873   36870       6   36876   36870       6   36876   36873       7
   36882   36879       6   36885   36879       6   36885   36882       7   36891
   36888       6   36894   36888       6   36894   36891       7   36900   36897
       6   36903   36897       6   36903   36900       7   36909   36906       6
   36912   36906       6   36912   36909       7   36918   36915       6   36921
   36915       6   36921   36918       7   36927   36924       6   36930   36924
       6   36930   36927       7   36936   36933       6   36939   36933       6
   36939   36936       7   36945   36942       6   36948   36942       6   36948
   36945       7   36954   36951       6   36957   36951       6   36957   36954
       7   36963   36960       6   36966   36960       6   36966   36963       7
   36972   36969       6   36975   36969       6   36975   36972       7   36981
   36978       6   36984   36978       6   36984   36981       7   36990   36987
       6   36993   36987       6   36993   36990       7   36999   36996       6
   37002   36996       6   37002   36999       7   37008   37005       6   37011
   37005       6   37011   37008       7   37017   37014       6   37020   37014
       6   37020   37017       7   37026   37023       6   37029   37023       6
   37029   37026       7   37035   37032       6   37038   37032       6   37038
   37035       7   37044   37041       6   37047   37041       6   37047   37044
       7   37053   37050       6   37056   37050       6   37056   37053       7
   37062   37059       6   37065   37059       6   37065   37062       7   37071
   37068       6   37074   37068       6   37074   37071       7   37080   37077
       6   37083   37077       6   37083   37080       7   37089   37086       6
   37092   37086       6   37092   37089       7   37098   37095       6   37101
   37095       6   37101   37098       7   37107   37104       6   37110   37104
       6   37110   37107       7   37116   37113       6   37119   37113       6
   37119   37116       7   37125   37122       6   37128   37122       6   37128
   37125       7   37134   37131       6   37137   37131       6   37137   37134
       7   37143   37140       6   37146   37140       6   37146   37143       7
   37152   37149       6   37155   37149       6   37155   37152       7   37161
   37158       6   37164   37158       6   37164   37161       7   37170   37167
       6   37173   37167       6   37173   37170       7   37179   37176       6
   37182   37176       6   37182   37179       7   37188   37185       6   37191
   37185       6   37191   37188       7   37197   37194       6   37200   37194
       6   37200   37197       7   37206   37203       6   37209   37203       6
   37209   37206       7   37215   37212       6   37218   37212       6   37218
   37215       7   37224   37221       6   37227   37221       6   37227   37224
       7   37233   37230       6   37236   37230       6   37236   37233       7
   37242   37239       6   37245   37239       6   37245   37242       7   37251
   37248       6   37254   37248       6   37254   37251       7   37260   37257
       6   37263   37257       6   37263   37260       7   37269   37266       6
   37272   37266       6   37272   37269       7   37278   37275       6   37281
   37275       6   37281   37278       7   37287   37284       6   37290   37284
       6   37290   37287       7   37296   37293       6   37299   37293       6
   37299   37296       7   37305   37302       6   37308   37302       6   37308
   37305       7   37314   37311       6   37317   37311       6   37317   37314
       7   37323   37320       6   37326   37320       6   37326   37323       7
   37332   37329       6   37335   37329       6   37335   37332       7   37341
   37338       6   37344   37338       6   37344   37341       7   37350   37347
       6   37353   37347       6   37353   37350       7   37359   37356       6
   37362   37356       6   37362   37359       7   37368   37365       6   37371
   37365       6   37371   37368       7   37377   37374       6   37380   37374
       6   37380   37377       7   37386   37383       6   37389   37383       6
   37389   37386       7   37395   37392       6   37398   37392       6   37398
   37395       7   37404   37401       6   37407   37401       6   37407   37404
       7   37413   37410       6   37416   37410       6   37416   37413       7
   37422   37419       6   37425   37419       6   37425   37422       7   37431
   37428       6   37434   37428       6   37434   37431       7   37440   37437
       6   37443   37437       6   37443   37440       7   37449   37446       6
   37452   37446       6   37452   37449       7   37458   37455       6   37461
   37455       6   37461   37458       7   37467   37464       6   37470   37464
       6   37470   37467       7   37476   37473       6   37479   37473       6
   37479   37476       7   37485   37482       6   37488   37482       6   37488
   37485       7   37494   37491       6   37497   37491       6   37497   37494
       7   37503   37500       6   37506   37500       6   37506   37503       7
   37512   37509       6   37515   37509       6   37515   37512       7   37521
   37518       6   37524   37518       6   37524   37521       7   37530   37527
       6   37533   37527       6   37533   37530       7   37539   37536       6
   37542   37536       6   37542   37539       7   37548   37545       6   37551
   37545       6   37551   37548       7   37557   37554       6   37560   37554
       6   37560   37557       7   37566   37563       6   37569   37563       6
   37569   37566       7   37575   37572       6   37578   37572       6   37578
   37575       7   37584   37581       6   37587   37581       6   37587   37584
       7   37593   37590       6   37596   37590       6   37596   37593       7
   37602   37599       6   37605   37599       6   37605   37602       7   37611
   37608       6   37614   37608       6   37614   37611       7   37620   37617
       6   37623   37617       6   37623   37620       7   37629   37626       6
   37632   37626       6   37632   37629       7   37638   37635       6   37641
   37635       6   37641   37638       7   37647   37644       6   37650   37644
       6   37650   37647       7   37656   37653       6   37659   37653       6
   37659   37656       7   37665   37662       6   37668   37662       6   37668
   37665       7   37674   37671       6   37677   37671       6   37677   37674
       7   37683   37680       6   37686   37680       6   37686   37683       7
   37692   37689       6   37695   37689       6   37695   37692       7   37701
   37698       6   37704   37698       6   37704   37701       7   37710   37707
       6   37713   37707       6   37713   37710       7   37719   37716       6
   37722   37716       6   37722   37719       7   37728   37725       6   37731
   37725       6   37731   37728       7   37737   37734       6   37740   37734
       6   37740   37737       7   37746   37743       6   37749   37743       6
   37749   37746       7   37755   37752       6   37758   37752       6   37758
   37755       7   37764   37761       6   37767   37761       6   37767   37764
       7   37773   37770       6   37776   37770       6   37776   37773       7
   37782   37779       6   37785   37779       6   37785   37782       7   37791
   37788       6   37794   37788       6   37794   37791       7   37800   37797
       6   37803   37797       6   37803   37800       7   37809   37806       6
   37812   37806       6   37812   37809       7   37818   37815       6   37821
   37815       6   37821   37818       7   37827   37824       6   37830   37824
       6   37830   37827       7   37836   37833       6   37839   37833       6
   37839   37836       7   37845   37842       6   37848   37842       6   37848
   37845       7   37854   37851       6   37857   37851       6   37857   37854
       7   37863   37860       6   37866   37860       6   37866   37863       7
   37872   37869       6   37875   37869       6   37875   37872       7   37881
   37878       6   37884   37878       6   37884   37881       7   37890   37887
       6   37893   37887       6   37893   37890       7   37899   37896       6
   37902   37896       6   37902   37899       7   37908   37905       6   37911
   37905       6   37911   37908       7   37917   37914       6   37920   37914
       6   37920   37917       7   37926   37923       6   37929   37923       6
   37929   37926       7   37935   37932       6   37938   37932       6   37938
   37935       7   37944   37941       6   37947   37941       6   37947   37944
       7   37953   37950       6   37956   37950       6   37956   37953       7
   37962   37959       6   37965   37959       6   37965   37962       7   37971
   37968       6   37974   37968       6   37974   37971       7   37980   37977
       6   37983   37977       6   37983   37980       7   37989   37986       6
   37992   37986       6   37992   37989       7   37998   37995       6   38001
   37995       6   38001   37998       7   38007   38004       6   38010   38004
       6   38010   38007       7   38016   38013       6   38019   38013       6
   38019   38016       7   38025   38022       6   38028   38022       6   38028
   38025       7   38034   38031       6   38037   38031       6   38037   38034
       7   38043   38040       6   38046   38040       6   38046   38043       7
   38052   38049       6   38055   38049       6   38055   38052       7   38061
   38058       6   38064   38058       6   38064   38061       7   38070   38067
       6   38073   38067       6   38073   38070       7   38079   38076       6
   38082   38076       6   38082   38079       7   38088   38085       6   38091
   38085       6   38091   38088       7   38097   38094       6   38100   38094
       6   38100   38097       7   38106   38103       6   38109   38103       6
   38109   38106       7   38115   38112       6   38118   38112       6   38118
   38115       7   38124   38121       6   38127   38121       6   38127   38124
       7   38133   38130       6   38136   38130       6   38136   38133       7
   38142   38139       6   38145   38139       6   38145   38142       7   38151
   38148       6   38154   38148       6   38154   38151       7   38160   38157
       6   38163   38157       6   38163   38160       7   38169   38166       6
   38172   38166       6   38172   38169       7   38178   38175       6   38181
   38175       6   38181   38178       7   38187   38184       6   38190   38184
       6   38190   38187       7   38196   38193       6   38199   38193       6
   38199   38196       7   38205   38202       6   38208   38202       6   38208
   38205       7   38214   38211       6   38217   38211       6   38217   38214
       7   38223   38220       6   38226   38220       6   38226   38223       7
   38232   38229       6   38235   38229       6   38235   38232       7   38241
   38238       6   38244   38238       6   38244   38241       7   38250   38247
       6   38253   38247       6   38253   38250       7   38259   38256       6
   38262   38256       6   38262   38259       7   38268   38265       6   38271
   38265       6   38271   38268       7   38277   38274       6   38280   38274
       6   38280   38277       7   38286   38283       6   38289   38283       6
   38289   38286       7   38295   38292       6   38298   38292       6   38298
   38295       7   38304   38301       6   38307   38301       6   38307   38304
       7   38313   38310       6   38316   38310       6   38316   38313       7
   38322   38319       6   38325   38319       6   38325   38322       7   38331
   38328       6   38334   38328       6   38334   38331       7   38340   38337
       6   38343   38337       6   38343   38340       7   38349   38346       6
   38352   38346       6   38352   38349       7   38358   38355       6   38361
   38355       6   38361   38358       7   38367   38364       6   38370   38364
       6   38370   38367       7   38376   38373       6   38379   38373       6
   38379   38376       7   38385   38382       6   38388   38382       6   38388
   38385       7   38394   38391       6   38397   38391       6   38397   38394
       7   38403   38400       6   38406   38400       6   38406   38403       7
   38412   38409       6   38415   38409       6   38415   38412       7   38421
   38418       6   38424   38418       6   38424   38421       7   38430   38427
       6   38433   38427       6   38433   38430       7   38439   38436       6
   38442   38436       6   38442   38439       7   38448   38445       6   38451
   38445       6   38451   38448       7   38457   38454       6   38460   38454
       6   38460   38457       7   38466   38463       6   38469   38463       6
   38469   38466       7   38475   38472       6   38478   38472       6   38478
   38475       7   38484   38481       6   38487   38481       6   38487   38484
       7   38493   38490       6   38496   38490       6   38496   38493       7
   38502   38499       6   38505   38499       6   38505   38502       7   38511
   38508       6   38514   38508       6   38514   38511       7   38520   38517
       6   38523   38517       6   38523   38520       7   38529   38526       6
   38532   38526       6   38532   38529       7   38538   38535       6   38541
   38535       6   38541   38538       7   38547   38544       6   38550   38544
       6   38550   38547       7   38556   38553       6   38559   38553       6
   38559   38556       7   38565   38562       6   38568   38562       6   38568
   38565       7   38574   38571       6   38577   38571       6   38577   38574
       7   38583   38580       6   38586   38580       6   38586   38583       7
   38592   38589       6   38595   38589       6   38595   38592       7   38601
   38598       6   38604   38598       6   38604   38601       7   38610   38607
       6   38613   38607       6   38613   38610       7   38619   38616       6
   38622   38616       6   38622   38619       7   38628   38625       6   38631
   38625       6   38631   38628       7   38637   38634       6   38640   38634
       6   38640   38637       7   38646   38643       6   38649   38643       6
   38649   38646       7   38655   38652       6   38658   38652       6   38658
   38655       7   38664   38661       6   38667   38661       6   38667   38664
       7   38673   38670       6   38676   38670       6   38676   38673       7
   38682   38679       6   38685   38679       6   38685   38682       7   38691
   38688       6   38694   38688       6   38694   38691       7   38700   38697
       6   38703   38697       6   38703   38700       7   38709   38706       6
   38712   38706       6   38712   38709       7   38718   38715       6   38721
   38715       6   38721   38718       7   38727   38724       6   38730   38724
       6   38730   38727       7   38736   38733       6   38739   38733       6
   38739   38736       7   38745   38742       6   38748   38742       6   38748
   38745       7   38754   38751       6   38757   38751       6   38757   38754
       7   38763   38760       6   38766   38760       6   38766   38763       7
   38772   38769       6   38775   38769       6   38775   38772       7   38781
   38778       6   38784   38778       6   38784   38781       7   38790   38787
       6   38793   38787       6   38793   38790       7   38799   38796       6
   38802   38796       6   38802   38799       7   38808   38805       6   38811
   38805       6   38811   38808       7   38817   38814       6   38820   38814
       6   38820   38817       7   38826   38823       6   38829   38823       6
   38829   38826       7   38835   38832       6   38838   38832       6   38838
   38835       7   38844   38841       6   38847   38841       6   38847   38844
       7   38853   38850       6   38856   38850       6   38856   38853       7
   38862   38859       6   38865   38859       6   38865   38862       7   38871
   38868       6   38874   38868       6   38874   38871       7   38880   38877
       6   38883   38877       6   38883   38880       7   38889   38886       6
   38892   38886       6   38892   38889       7   38898   38895       6   38901
   38895       6   38901   38898       7   38907   38904       6   38910   38904
       6   38910   38907       7   38916   38913       6   38919   38913       6
   38919   38916       7   38925   38922       6   38928   38922       6   38928
   38925       7   38934   38931       6   38937   38931       6   38937   38934
       7   38943   38940       6   38946   38940       6   38946   38943       7
   38952   38949       6   38955   38949       6   38955   38952       7   38961
   38958       6   38964   38958       6   38964   38961       7   38970   38967
       6   38973   38967       6   38973   38970       7   38979   38976       6
   38982   38976       6   38982   38979       7   38988   38985       6   38991
   38985       6   38991   38988       7   38997   38994       6   39000   38994
       6   39000   38997       7   39006   39003       6   39009   39003       6
   39009   39006       7   39015   39012       6   39018   39012       6   39018
   39015       7   39024   39021       6   39027   39021       6   39027   39024
       7   39033   39030       6   39036   39030       6   39036   39033       7
   39042   39039       6   39045   39039       6   39045   39042       7   39051
   39048       6   39054   39048       6   39054   39051       7   39060   39057
       6   39063   39057       6   39063   39060       7   39069   39066       6
   39072   39066       6   39072   39069       7   39078   39075       6   39081
   39075       6   39081   39078       7   39087   39084       6   39090   39084
       6   39090   39087       7   39096   39093       6   39099   39093       6
   39099   39096       7   39105   39102       6   39108   39102       6   39108
   39105       7   39114   39111       6   39117   39111       6   39117   39114
       7   39123   39120       6   39126   39120       6   39126   39123       7
   39132   39129       6   39135   39129       6   39135   39132       7   39141
   39138       6   39144   39138       6   39144   39141       7   39150   39147
       6   39153   39147       6   39153   39150       7   39159   39156       6
   39162   39156       6   39162   39159       7   39168   39165       6   39171
   39165       6   39171   39168       7   39177   39174       6   39180   39174
       6   39180   39177       7   39186   39183       6   39189   39183       6
   39189   39186       7   39195   39192       6   39198   39192       6   39198
   39195       7   39204   39201       6   39207   39201       6   39207   39204
       7   39213   39210       6   39216   39210       6   39216   39213       7
   39222   39219       6   39225   39219       6   39225   39222       7   39231
   39228       6   39234   39228       6   39234   39231       7   39240   39237
       6   39243   39237       6   39243   39240       7   39249   39246       6
   39252   39246       6   39252   39249       7   39258   39255       6   39261
   39255       6   39261   39258       7   39267   39264       6   39270   39264
       6   39270   39267       7   39276   39273       6   39279   39273       6
   39279   39276       7   39285   39282       6   39288   39282       6   39288
   39285       7   39294   39291       6   39297   39291       6   39297   39294
       7   39303   39300       6   39306   39300       6   39306   39303       7
   39312   39309       6   39315   39309       6   39315   39312       7   39321
   39318       6   39324   39318       6   39324   39321       7   39330   39327
       6   39333   39327       6   39333   39330       7   39339   39336       6
   39342   39336       6   39342   39339       7   39348   39345       6   39351
   39345       6   39351   39348       7   39357   39354       6   39360   39354
       6   39360   39357       7   39366   39363       6   39369   39363       6
   39369   39366       7   39375   39372       6   39378   39372       6   39378
   39375       7   39384   39381       6   39387   39381       6   39387   39384
       7   39393   39390       6   39396   39390       6   39396   39393       7
   39402   39399       6   39405   39399       6   39405   39402       7   39411
   39408       6   39414   39408       6   39414   39411       7   39420   39417
       6   39423   39417       6   39423   39420       7   39429   39426       6
   39432   39426       6   39432   39429       7   39438   39435       6   39441
   39435       6   39441   39438       7   39447   39444       6   39450   39444
       6   39450   39447       7   39456   39453       6   39459   39453       6
   39459   39456       7   39465   39462       6   39468   39462       6   39468
   39465       7   39474   39471       6   39477   39471       6   39477   39474
       7   39483   39480       6   39486   39480       6   39486   39483       7
   39492   39489       6   39495   39489       6   39495   39492       7   39501
   39498       6   39504   39498       6   39504   39501       7   39510   39507
       6   39513   39507       6   39513   39510       7   39519   39516       6
   39522   39516       6   39522   39519       7   39528   39525       6   39531
   39525       6   39531   39528       7   39537   39534       6   39540   39534
       6   39540   39537       7   39546   39543       6   39549   39543       6
   39549   39546       7   39555   39552       6   39558   39552       6   39558
   39555       7   39564   39561       6   39567   39561       6   39567   39564
       7   39573   39570       6   39576   39570       6   39576   39573       7
   39582   39579       6   39585   39579       6   39585   39582       7   39591
   39588       6   39594   39588       6   39594   39591       7   39600   39597
       6   39603   39597       6   39603   39600       7   39609   39606       6
   39612   39606       6   39612   39609       7   39618   39615       6   39621
   39615       6   39621   39618       7   39627   39624       6   39630   39624
       6   39630   39627       7   39636   39633       6   39639   39633       6
   39639   39636       7   39645   39642       6   39648   39642       6   39648
   39645       7   39654   39651       6   39657   39651       6   39657   39654
       7   39663   39660       6   39666   39660       6   39666   39663       7
   39672   39669       6   39675   39669       6   39675   39672       7   39681
   39678       6   39684   39678       6   39684   39681       7   39690   39687
       6   39693   39687       6   39693   39690       7   39699   39696       6
   39702   39696       6   39702   39699       7   39708   39705       6   39711
   39705       6   39711   39708       7   39717   39714       6   39720   39714
       6   39720   39717       7   39726   39723       6   39729   39723       6
   39729   39726       7   39735   39732       6   39738   39732       6   39738
   39735       7   39744   39741       6   39747   39741       6   39747   39744
       7   39753   39750       6   39756   39750       6   39756   39753       7
   39762   39759       6   39765   39759       6   39765   39762       7   39771
   39768       6   39774   39768       6   39774   39771       7   39780   39777
       6   39783   39777       6   39783   39780       7   39789   39786       6
   39792   39786       6   39792   39789       7   39798   39795       6   39801
   39795       6   39801   39798       7   39807   39804       6   39810   39804
       6   39810   39807       7   39816   39813       6   39819   39813       6
   39819   39816       7   39825   39822       6   39828   39822       6   39828
   39825       7   39834   39831       6   39837   39831       6   39837   39834
       7   39843   39840       6   39846   39840       6   39846   39843       7
   39852   39849       6   39855   39849       6   39855   39852       7   39861
   39858       6   39864   39858       6   39864   39861       7   39870   39867
       6   39873   39867       6   39873   39870       7   39879   39876       6
   39882   39876       6   39882   39879       7   39888   39885       6   39891
   39885       6   39891   39888       7   39897   39894       6   39900   39894
       6   39900   39897       7   39906   39903       6   39909   39903       6
   39909   39906       7   39915   39912       6   39918   39912       6   39918
   39915       7   39924   39921       6   39927   39921       6   39927   39924
       7   39933   39930       6   39936   39930       6   39936   39933       7
   39942   39939       6   39945   39939       6   39945   39942       7   39951
   39948       6   39954   39948       6   39954   39951       7   39960   39957
       6   39963   39957       6   39963   39960       7   39969   39966       6
   39972   39966       6   39972   39969       7   39978   39975       6   39981
   39975       6   39981   39978       7   39987   39984       6   39990   39984
       6   39990   39987       7   39996   39993       6   39999   39993       6
   39999   39996       7   40005   40002       6   40008   40002       6   40008
   40005       7   40014   40011       6   40017   40011       6   40017   40014
       7   40023   40020       6   40026   40020       6   40026   40023       7
   40032   40029       6   40035   40029       6   40035   40032       7   40041
   40038       6   40044   40038       6   40044   40041       7   40050   40047
       6   40053   40047       6   40053   40050       7   40059   40056       6
   40062   40056       6   40062   40059       7   40068   40065       6   40071
   40065       6   40071   40068       7   40077   40074       6   40080   40074
       6   40080   40077       7   40086   40083       6   40089   40083       6
   40089   40086       7   40095   40092       6   40098   40092       6   40098
   40095       7   40104   40101       6   40107   40101       6   40107   40104
       7   40113   40110       6   40116   40110       6   40116   40113       7
   40122   40119       6   40125   40119       6   40125   40122       7   40131
   40128       6   40134   40128       6   40134   40131       7   40140   40137
       6   40143   40137       6   40143   40140       7   40149   40146       6
   40152   40146       6   40152   40149       7   40158   40155       6   40161
   40155       6   40161   40158       7   40167   40164       6   40170   40164
       6   40170   40167       7   40176   40173       6   40179   40173       6
   40179   40176       7   40185   40182       6   40188   40182       6   40188
   40185       7   40194   40191       6   40197   40191       6   40197   40194
       7   40203   40200       6   40206   40200       6   40206   40203       7
   40212   40209       6   40215   40209       6   40215   40212       7   40221
   40218       6   40224   40218       6   40224   40221       7   40230   40227
       6   40233   40227       6   40233   40230       7   40239   40236       6
   40242   40236       6   40242   40239       7   40248   40245       6   40251
   40245       6   40251   40248       7   40257   40254       6   40260   40254
       6   40260   40257       7   40266   40263       6   40269   40263       6
   40269   40266       7   40275   40272       6   40278   40272       6   40278
   40275       7   40284   40281       6   40287   40281       6   40287   40284
       7   40293   40290       6   40296   40290       6   40296   40293       7
   40302   40299       6   40305   40299       6   40305   40302       7   40311
   40308       6   40314   40308       6   40314   40311       7   40320   40317
       6   40323   40317       6   40323   40320       7   40329   40326       6
   40332   40326       6   40332   40329       7   40338   40335       6   40341
   40335       6   40341   40338       7   40347   40344       6   40350   40344
       6   40350   40347       7   40356   40353       6   40359   40353       6
   40359   40356       7   40365   40362       6   40368   40362       6   40368
   40365       7   40374   40371       6   40377   40371       6   40377   40374
       7   40383   40380       6   40386   40380       6   40386   40383       7
   40392   40389       6   40395   40389       6   40395   40392       7   40401
   40398       6   40404   40398       6   40404   40401       7   40410   40407
       6   40413   40407       6   40413   40410       7   40419   40416       6
   40422   40416       6   40422   40419       7   40428   40425       6   40431
   40425       6   40431   40428       7   40437   40434       6   40440   40434
       6   40440   40437       7   40446   40443       6   40449   40443       6
   40449   40446       7   40455   40452       6   40458   40452       6   40458
   40455       7   40464   40461       6   40467   40461       6   40467   40464
       7   40473   40470       6   40476   40470       6   40476   40473       7
   40482   40479       6   40485   40479       6   40485   40482       7   40491
   40488       6   40494   40488       6   40494   40491       7   40500   40497
       6   40503   40497       6   40503   40500       7   40509   40506       6
   40512   40506       6   40512   40509       7   40518   40515       6   40521
   40515       6   40521   40518       7   40527   40524       6   40530   40524
       6   40530   40527       7   40536   40533       6   40539   40533       6
   40539   40536       7   40545   40542       6   40548   40542       6   40548
   40545       7   40554   40551       6   40557   40551       6   40557   40554
       7   40563   40560       6   40566   40560       6   40566   40563       7
   40572   40569       6   40575   40569       6   40575   40572       7   40581
   40578       6   40584   40578       6   40584   40581       7   40590   40587
       6   40593   40587       6   40593   40590       7   40599   40596       6
   40602   40596       6   40602   40599       7   40608   40605       6   40611
   40605       6   40611   40608       7   40617   40614       6   40620   40614
       6   40620   40617       7   40626   40623       6   40629   40623       6
   40629   40626       7   40635   40632       6   40638   40632       6   40638
   40635       7   40644   40641       6   40647   40641       6   40647   40644
       7   40653   40650       6   40656   40650       6   40656   40653       7
   40662   40659       6   40665   40659       6   40665   40662       7   40671
   40668       6   40674   40668       6   40674   40671       7   40680   40677
       6   40683   40677       6   40683   40680       7   40689   40686       6
   40692   40686       6   40692   40689       7   40698   40695       6   40701
   40695       6   40701   40698       7   40707   40704       6   40710   40704
       6   40710   40707       7   40716   40713       6   40719   40713       6
   40719   40716       7   40725   40722       6   40728   40722       6   40728
   40725       7   40734   40731       6   40737   40731       6   40737   40734
       7   40743   40740       6   40746   40740       6   40746   40743       7
   40752   40749       6   40755   40749       6   40755   40752       7   40761
   40758       6   40764   40758       6   40764   40761       7   40770   40767
       6   40773   40767       6   40773   40770       7   40779   40776       6
   40782   40776       6   40782   40779       7   40788   40785       6   40791
   40785       6   40791   40788       7   40797   40794       6   40800   40794
       6   40800   40797       7   40806   40803       6   40809   40803       6
   40809   40806       7   40815   40812       6   40818   40812       6   40818
   40815       7   40824   40821       6   40827   40821       6   40827   40824
       7   40833   40830       6   40836   40830       6   40836   40833       7
   40842   40839       6   40845   40839       6   40845   40842       7   40851
   40848       6   40854   40848       6   40854   40851       7   40860   40857
       6   40863   40857       6   40863   40860       7   40869   40866       6
   40872   40866       6   40872   40869       7   40878   40875       6   40881
   40875       6   40881   40878       7   40887   40884       6   40890   40884
       6   40890   40887       7   40896   40893       6   40899   40893       6
   40899   40896       7   40905   40902       6   40908   40902       6   40908
   40905       7   40914   40911       6   40917   40911       6   40917   40914
       7   40923   40920       6   40926   40920       6   40926   40923       7
   40932   40929       6   40935   40929       6   40935   40932       7   40941
   40938       6   40944   40938       6   40944   40941       7   40950   40947
       6   40953   40947       6   40953   40950       7   40959   40956       6
   40962   40956       6   40962   40959       7   40968   40965       6   40971
   40965       6   40971   40968       7   40977   40974       6   40980   40974
       6   40980   40977       7   40986   40983       6   40989   40983       6
   40989   40986       7   40995   40992       6   40998   40992       6   40998
   40995       7   41004   41001       6   41007   41001       6   41007   41004
       7   41013   41010       6   41016   41010       6   41016   41013       7
   41022   41019       6   41025   41019       6   41025   41022       7   41031
   41028       6   41034   41028       6   41034   41031       7   41040   41037
       6   41043   41037       6   41043   41040       7   41049   41046       6
   41052   41046       6   41052   41049       7   41058   41055       6   41061
   41055       6   41061   41058       7   41067   41064       6   41070   41064
       6   41070   41067       7   41076   41073       6   41079   41073       6
   41079   41076       7   41085   41082       6   41088   41082       6   41088
   41085       7   41094   41091       6   41097   41091       6   41097   41094
       7   41103   41100       6   41106   41100       6   41106   41103       7
   41112   41109       6   41115   41109       6   41115   41112       7   41121
   41118       6   41124   41118       6   41124   41121       7   41130   41127
       6   41133   41127       6   41133   41130       7   41139   41136       6
   41142   41136       6   41142   41139       7   41148   41145       6   41151
   41145       6   41151   41148       7   41157   41154       6   41160   41154
       6   41160   41157       7   41166   41163       6   41169   41163       6
   41169   41166       7   41175   41172       6   41178   41172       6   41178
   41175       7   41184   41181       6   41187   41181       6   41187   41184
       7   41193   41190       6   41196   41190       6   41196   41193       7
   41202   41199       6   41205   41199       6   41205   41202       7   41211
   41208       6   41214   41208       6   41214   41211       7   41220   41217
       6   41223   41217       6   41223   41220       7   41229   41226       6
   41232   41226       6   41232   41229       7   41238   41235       6   41241
   41235       6   41241   41238       7   41247   41244       6   41250   41244
       6   41250   41247       7   41256   41253       6   41259   41253       6
   41259   41256       7   41265   41262       6   41268   41262       6   41268
   41265       7   41274   41271       6   41277   41271       6   41277   41274
       7   41283   41280       6   41286   41280       6   41286   41283       7
   41292   41289       6   41295   41289       6   41295   41292       7   41301
   41298       6   41304   41298       6   41304   41301       7   41310   41307
       6   41313   41307       6   41313   41310       7   41319   41316       6
   41322   41316       6   41322   41319       7   41328   41325       6   41331
   41325       6   41331   41328       7   41337   41334       6   41340   41334
       6   41340   41337       7   41346   41343       6   41349   41343       6
   41349   41346       7   41355   41352       6   41358   41352       6   41358
   41355       7   41364   41361       6   41367   41361       6   41367   41364
       7   41373   41370       6   41376   41370       6   41376   41373       7
   41382   41379       6   41385   41379       6   41385   41382       7   41391
   41388       6   41394   41388       6   41394   41391       7   41400   41397
       6   41403   41397       6   41403   41400       7   41409   41406       6
   41412   41406       6   41412   41409       7   41418   41415       6   41421
   41415       6   41421   41418       7   41427   41424       6   41430   41424
       6   41430   41427       7   41436   41433       6   41439   41433       6
   41439   41436       7   41445   41442       6   41448   41442       6   41448
   41445       7   41454   41451       6   41457   41451       6   41457   41454
       7   41463   41460       6   41466   41460       6   41466   41463       7
   41472   41469       6   41475   41469       6   41475   41472       7   41481
   41478       6   41484   41478       6   41484   41481       7   41490   41487
       6   41493   41487       6   41493   41490       7   41499   41496       6
   41502   41496       6   41502   41499       7   41508   41505       6   41511
   41505       6   41511   41508       7   41517   41514       6   41520   41514
       6   41520   41517       7   41526   41523       6   41529   41523       6
   41529   41526       7   41535   41532       6   41538   41532       6   41538
   41535       7   41544   41541       6   41547   41541       6   41547   41544
       7   41553   41550       6   41556   41550       6   41556   41553       7
   41562   41559       6   41565   41559       6   41565   41562       7   41571
   41568       6   41574   41568       6   41574   41571       7   41580   41577
       6   41583   41577       6   41583   41580       7   41589   41586       6
   41592   41586       6   41592   41589       7   41598   41595       6   41601
   41595       6   41601   41598       7   41607   41604       6   41610   41604
       6   41610   41607       7   41616   41613       6   41619   41613       6
   41619   41616       7   41625   41622       6   41628   41622       6   41628
   41625       7   41634   41631       6   41637   41631       6   41637   41634
       7   41643   41640       6   41646   41640       6   41646   41643       7
   41652   41649       6   41655   41649       6   41655   41652       7   41661
   41658       6   41664   41658       6   41664   41661       7   41670   41667
       6   41673   41667       6   41673   41670       7   41679   41676       6
   41682   41676       6   41682   41679       7   41688   41685       6   41691
   41685       6   41691   41688       7   41697   41694       6   41700   41694
       6   41700   41697       7   41706   41703       6   41709   41703       6
   41709   41706       7   41715   41712       6   41718   41712       6   41718
   41715       7   41724   41721       6   41727   41721       6   41727   41724
       7   41733   41730       6   41736   41730       6   41736   41733       7
   41742   41739       6   41745   41739       6   41745   41742       7   41751
   41748       6   41754   41748       6   41754   41751       7   41760   41757
       6   41763   41757       6   41763   41760       7   41769   41766       6
   41772   41766       6   41772   41769       7   41778   41775       6   41781
   41775       6   41781   41778       7   41787   41784       6   41790   41784
       6   41790   41787       7   41796   41793       6   41799   41793       6
   41799   41796       7   41805   41802       6   41808   41802       6   41808
   41805       7   41814   41811       6   41817   41811       6   41817   41814
       7   41823   41820       6   41826   41820       6   41826   41823       7
   41832   41829       6   41835   41829       6   41835   41832       7   41841
   41838       6   41844   41838       6   41844   41841       7   41850   41847
       6   41853   41847       6   41853   41850       7   41859   41856       6
   41862   41856       6   41862   41859       7   41868   41865       6   41871
   41865       6   41871   41868       7   41877   41874       6   41880   41874
       6   41880   41877       7   41886   41883       6   41889   41883       6
   41889   41886       7   41895   41892       6   41898   41892       6   41898
   41895       7   41904   41901       6   41907   41901       6   41907   41904
       7   41913   41910       6   41916   41910       6   41916   41913       7
   41922   41919       6   41925   41919       6   41925   41922       7   41931
   41928       6   41934   41928       6   41934   41931       7   41940   41937
       6   41943   41937       6   41943   41940       7   41949   41946       6
   41952   41946       6   41952   41949       7   41958   41955       6   41961
   41955       6   41961   41958       7   41967   41964       6   41970   41964
       6   41970   41967       7   41976   41973       6   41979   41973       6
   41979   41976       7   41985   41982       6   41988   41982       6   41988
   41985       7   41994   41991       6   41997   41991       6   41997   41994
       7   42003   42000       6   42006   42000       6   42006   42003       7
   42012   42009       6   42015   42009       6   42015   42012       7   42021
   42018       6   42024   42018       6   42024   42021       7   42030   42027
       6   42033   42027       6   42033   42030       7   42039   42036       6
   42042   42036       6   42042   42039       7   42048   42045       6   42051
   42045       6   42051   42048       7   42057   42054       6   42060   42054
       6   42060   42057       7   42066   42063       6   42069   42063       6
   42069   42066       7   42075   42072       6   42078   42072       6   42078
   42075       7   42084   42081       6   42087   42081       6   42087   42084
       7   42093   42090       6   42096   42090       6   42096   42093       7
   42102   42099       6   42105   42099       6   42105   42102       7   42111
   42108       6   42114   42108       6   42114   42111       7   42120   42117
       6   42123   42117       6   42123   42120       7   42129   42126       6
   42132   42126       6   42132   42129       7   42138   42135       6   42141
   42135       6   42141   42138       7   42147   42144       6   42150   42144
       6   42150   42147       7   42156   42153       6   42159   42153       6
   42159   42156       7   42165   42162       6   42168   42162       6   42168
   42165       7   42174   42171       6   42177   42171       6   42177   42174
       7   42183   42180       6   42186   42180       6   42186   42183       7
   42192   42189       6   42195   42189       6   42195   42192       7   42201
   42198       6   42204   42198       6   42204   42201       7   42210   42207
       6   42213   42207       6   42213   42210       7   42219   42216       6
   42222   42216       6   42222   42219       7   42228   42225       6   42231
   42225       6   42231   42228       7   42237   42234       6   42240   42234
       6   42240   42237       7   42246   42243       6   42249   42243       6
   42249   42246       7   42255   42252       6   42258   42252       6   42258
   42255       7   42264   42261       6   42267   42261       6   42267   42264
       7   42273   42270       6   42276   42270       6   42276   42273       7
   42282   42279       6   42285   42279       6   42285   42282       7   42291
   42288       6   42294   42288       6   42294   42291       7   42300   42297
       6   42303   42297       6   42303   42300       7   42309   42306       6
   42312   42306       6   42312   42309       7   42318   42315       6   42321
   42315       6   42321   42318       7   42327   42324       6   42330   42324
       6   42330   42327       7   42336   42333       6   42339   42333       6
   42339   42336       7   42345   42342       6   42348   42342       6   42348
   42345       7   42354   42351       6   42357   42351       6   42357   42354
       7   42363   42360       6   42366   42360       6   42366   42363       7
   42372   42369       6   42375   42369       6   42375   42372       7   42381
   42378       6   42384   42378       6   42384   42381       7   42390   42387
       6   42393   42387       6   42393   42390       7   42399   42396       6
   42402   42396       6   42402   42399       7   42408   42405       6   42411
   42405       6   42411   42408       7   42417   42414       6   42420   42414
       6   42420   42417       7   42426   42423       6   42429   42423       6
   42429   42426       7   42435   42432       6   42438   42432       6   42438
   42435       7   42444   42441       6   42447   42441       6   42447   42444
       7   42453   42450       6   42456   42450       6   42456   42453       7
   42462   42459       6   42465   42459       6   42465   42462       7   42471
   42468       6   42474   42468       6   42474   42471       7   42480   42477
       6   42483   42477       6   42483   42480       7   42489   42486       6
   42492   42486       6   42492   42489       7   42498   42495       6   42501
   42495       6   42501   42498       7   42507   42504       6   42510   42504
       6   42510   42507       7   42516   42513       6   42519   42513       6
   42519   42516       7   42525   42522       6   42528   42522       6   42528
   42525       7   42534   42531       6   42537   42531       6   42537   42534
       7   42543   42540       6   42546   42540       6   42546   42543       7
   42552   42549       6   42555   42549       6   42555   42552       7   42561
   42558       6   42564   42558       6   42564   42561       7   42570   42567
       6   42573   42567       6   42573   42570       7   42579   42576       6
   42582   42576       6   42582   42579       7   42588   42585       6   42591
   42585       6   42591   42588       7   42597   42594       6   42600   42594
       6   42600   42597       7   42606   42603       6   42609   42603       6
   42609   42606       7   42615   42612       6   42618   42612       6   42618
   42615       7   42624   42621       6   42627   42621       6   42627   42624
       7   42633   42630       6   42636   42630       6   42636   42633       7
   42642   42639       6   42645   42639       6   42645   42642       7   42651
   42648       6   42654   42648       6   42654   42651       7   42660   42657
       6   42663   42657       6   42663   42660       7   42669   42666       6
   42672   42666       6   42672   42669       7   42678   42675       6   42681
   42675       6   42681   42678       7   42687   42684       6   42690   42684
       6   42690   42687       7   42696   42693       6   42699   42693       6
   42699   42696       7   42705   42702       6   42708   42702       6   42708
   42705       7   42714   42711       6   42717   42711       6   42717   42714
       7   42723   42720       6   42726   42720       6   42726   42723       7
   42732   42729       6   42735   42729       6   42735   42732       7   42741
   42738       6   42744   42738       6   42744   42741       7   42750   42747
       6   42753   42747       6   42753   42750       7   42759   42756       6
   42762   42756       6   42762   42759       7   42768   42765       6   42771
   42765       6   42771   42768       7   42777   42774       6   42780   42774
       6   42780   42777       7   42786   42783       6   42789   42783       6
   42789   42786       7   42795   42792       6   42798   42792       6   42798
   42795       7   42804   42801       6   42807   42801       6   42807   42804
       7   42813   42810       6   42816   42810       6   42816   42813       7
   42822   42819       6   42825   42819       6   42825   42822       7   42831
   42828       6   42834   42828       6   42834   42831       7   42840   42837
       6   42843   42837       6   42843   42840       7   42849   42846       6
   42852   42846       6   42852   42849       7   42858   42855       6   42861
   42855       6   42861   42858       7   42867   42864       6   42870   42864
       6   42870   42867       7   42876   42873       6   42879   42873       6
   42879   42876       7   42885   42882       6   42888   42882       6   42888
   42885       7   42894   42891       6   42897   42891       6   42897   42894
       7   42903   42900       6   42906   42900       6   42906   42903       7
   42912   42909       6   42915   42909       6   42915   42912       7   42921
   42918       6   42924   42918       6   42924   42921       7   42930   42927
       6   42933   42927       6   42933   42930       7   42939   42936       6
   42942   42936       6   42942   42939       7   42948   42945       6   42951
   42945       6   42951   42948       7   42957   42954       6   42960   42954
       6   42960   42957       7   42966   42963       6   42969   42963       6
   42969   42966       7   42975   42972       6   42978   42972       6   42978
   42975       7   42984   42981       6   42987   42981       6   42987   42984
       7   42993   42990       6   42996   42990       6   42996   42993       7
   43002   42999       6   43005   42999       6   43005   43002       7   43011
   43008       6   43014   43008       6   43014   43011       7   43020   43017
       6   43023   43017       6   43023   43020       7   43029   43026       6
   43032   43026       6   43032   43029       7   43038   43035       6   43041
   43035       6   43041   43038       7   43047   43044       6   43050   43044
       6   43050   43047       7   43056   43053       6   43059   43053       6
   43059   43056       7   43065   43062       6   43068   43062       6   43068
   43065       7   43074   43071       6   43077   43071       6   43077   43074
       7   43083   43080       6   43086   43080       6   43086   43083       7
   43092   43089       6   43095   43089       6   43095   43092       7   43101
   43098       6   43104   43098       6   43104   43101       7   43110   43107
       6   43113   43107       6   43113   43110       7   43119   43116       6
   43122   43116       6   43122   43119       7   43128   43125       6   43131
   43125       6   43131   43128       7   43137   43134       6   43140   43134
       6   43140   43137       7   43146   43143       6   43149   43143       6
   43149   43146       7   43155   43152       6   43158   43152       6   43158
   43155       7   43164   43161       6   43167   43161       6   43167   43164
       7   43173   43170       6   43176   43170       6   43176   43173       7
   43182   43179       6   43185   43179       6   43185   43182       7   43191
   43188       6   43194   43188       6   43194   43191       7   43200   43197
       6   43203   43197       6   43203   43200       7   43209   43206       6
   43212   43206       6   43212   43209       7   43218   43215       6   43221
   43215       6   43221   43218       7   43227   43224       6   43230   43224
       6   43230   43227       7   43236   43233       6   43239   43233       6
   43239   43236       7   43245   43242       6   43248   43242       6   43248
   43245       7   43254   43251       6   43257   43251       6   43257   43254
       7   43263   43260       6   43266   43260       6   43266   43263       7
   43272   43269       6   43275   43269       6   43275   43272       7   43281
   43278       6   43284   43278       6   43284   43281       7   43290   43287
       6   43293   43287       6   43293   43290       7   43299   43296       6
   43302   43296       6   43302   43299       7   43308   43305       6   43311
   43305       6   43311   43308       7   43317   43314       6   43320   43314
       6   43320   43317       7   43326   43323       6   43329   43323       6
   43329   43326       7   43335   43332       6   43338   43332       6   43338
   43335       7   43344   43341       6   43347   43341       6   43347   43344
       7   43353   43350       6   43356   43350       6   43356   43353       7
   43362   43359       6   43365   43359       6   43365   43362       7   43371
   43368       6   43374   43368       6   43374   43371       7   43380   43377
       6   43383   43377       6   43383   43380       7   43389   43386       6
   43392   43386       6   43392   43389       7   43398   43395       6   43401
   43395       6   43401   43398       7   43407   43404       6   43410   43404
       6   43410   43407       7   43416   43413       6   43419   43413       6
   43419   43416       7   43425   43422       6   43428   43422       6   43428
   43425       7   43434   43431       6   43437   43431       6   43437   43434
       7   43443   43440       6   43446   43440       6   43446   43443       7
   43452   43449       6   43455   43449       6   43455   43452       7   43461
   43458       6   43464   43458       6   43464   43461       7   43470   43467
       6   43473   43467       6   43473   43470       7   43479   43476       6
   43482   43476       6   43482   43479       7   43488   43485       6   43491
   43485       6   43491   43488       7   43497   43494       6   43500   43494
       6   43500   43497       7   43506   43503       6   43509   43503       6
   43509   43506       7   43515   43512       6   43518   43512       6   43518
   43515       7   43524   43521       6   43527   43521       6   43527   43524
       7   43533   43530       6   43536   43530       6   43536   43533       7
   43542   43539       6   43545   43539       6   43545   43542       7   43551
   43548       6   43554   43548       6   43554   43551       7   43560   43557
       6   43563   43557       6   43563   43560       7   43569   43566       6
   43572   43566       6   43572   43569       7   43578   43575       6   43581
   43575       6   43581   43578       7   43587   43584       6   43590   43584
       6   43590   43587       7   43596   43593       6   43599   43593       6
   43599   43596       7   43605   43602       6   43608   43602       6   43608
   43605       7   43614   43611       6   43617   43611       6   43617   43614
       7   43623   43620       6   43626   43620       6   43626   43623       7
   43632   43629       6   43635   43629       6   43635   43632       7   43641
   43638       6   43644   43638       6   43644   43641       7   43650   43647
       6   43653   43647       6   43653   43650       7   43659   43656       6
   43662   43656       6   43662   43659       7   43668   43665       6   43671
   43665       6   43671   43668       7   43677   43674       6   43680   43674
       6   43680   43677       7   43686   43683       6   43689   43683       6
   43689   43686       7   43695   43692       6   43698   43692       6   43698
   43695       7   43704   43701       6   43707   43701       6   43707   43704
       7   43713   43710       6   43716   43710       6   43716   43713       7
   43722   43719       6   43725   43719       6   43725   43722       7   43731
   43728       6   43734   43728       6   43734   43731       7   43740   43737
       6   43743   43737       6   43743   43740       7   43749   43746       6
   43752   43746       6   43752   43749       7   43758   43755       6   43761
   43755       6   43761   43758       7   43767   43764       6   43770   43764
       6   43770   43767       7   43776   43773       6   43779   43773       6
   43779   43776       7   43785   43782       6   43788   43782       6   43788
   43785       7   43794   43791       6   43797   43791       6   43797   43794
       7   43803   43800       6   43806   43800       6   43806   43803       7
   43812   43809       6   43815   43809       6   43815   43812       7   43821
   43818       6   43824   43818       6   43824   43821       7   43830   43827
       6   43833   43827       6   43833   43830       7   43839   43836       6
   43842   43836       6   43842   43839       7   43848   43845       6   43851
   43845       6   43851   43848       7   43857   43854       6   43860   43854
       6   43860   43857       7   43866   43863       6   43869   43863       6
   43869   43866       7   43875   43872       6   43878   43872       6   43878
   43875       7   43884   43881       6   43887   43881       6   43887   43884
       7   43893   43890       6   43896   43890       6   43896   43893       7
   43902   43899       6   43905   43899       6   43905   43902       7   43911
   43908       6   43914   43908       6   43914   43911       7   43920   43917
       6   43923   43917       6   43923   43920       7   43929   43926       6
   43932   43926       6   43932   43929       7   43938   43935       6   43941
   43935       6   43941   43938       7   43947   43944       6   43950   43944
       6   43950   43947       7   43956   43953       6   43959   43953       6
   43959   43956       7   43965   43962       6   43968   43962       6   43968
   43965       7   43974   43971       6   43977   43971       6   43977   43974
       7   43983   43980       6   43986   43980       6   43986   43983       7
   43992   43989       6   43995   43989       6   43995   43992       7   44001
   43998       6   44004   43998       6   44004   44001       7   44010   44007
       6   44013   44007       6   44013   44010       7   44019   44016       6
   44022   44016       6   44022   44019       7   44028   44025       6   44031
   44025       6   44031   44028       7   44037   44034       6   44040   44034
       6   44040   44037       7   44046   44043       6   44049   44043       6
   44049   44046       7   44055   44052       6   44058   44052       6   44058
   44055       7   44064   44061       6   44067   44061       6   44067   44064
       7   44073   44070       6   44076   44070       6   44076   44073       7
   44082   44079       6   44085   44079       6   44085   44082       7   44091
   44088       6   44094   44088       6   44094   44091       7   44100   44097
       6   44103   44097       6   44103   44100       7   44109   44106       6
   44112   44106       6   44112   44109       7   44118   44115       6   44121
   44115       6   44121   44118       7   44127   44124       6   44130   44124
       6   44130   44127       7   44136   44133       6   44139   44133       6
   44139   44136       7   44145   44142       6   44148   44142       6   44148
   44145       7   44154   44151       6   44157   44151       6   44157   44154
       7   44163   44160       6   44166   44160       6   44166   44163       7
   44172   44169       6   44175   44169       6   44175   44172       7   44181
   44178       6   44184   44178       6   44184   44181       7   44190   44187
       6   44193   44187       6   44193   44190       7   44199   44196       6
   44202   44196       6   44202   44199       7   44208   44205       6   44211
   44205       6   44211   44208       7   44217   44214       6   44220   44214
       6   44220   44217       7   44226   44223       6   44229   44223       6
   44229   44226       7   44235   44232       6   44238   44232       6   44238
   44235       7   44244   44241       6   44247   44241       6   44247   44244
       7   44253   44250       6   44256   44250       6   44256   44253       7
   44262   44259       6   44265   44259       6   44265   44262       7   44271
   44268       6   44274   44268       6   44274   44271       7   44280   44277
       6   44283   44277       6   44283   44280       7   44289   44286       6
   44292   44286       6   44292   44289       7   44298   44295       6   44301
   44295       6   44301   44298       7   44307   44304       6   44310   44304
       6   44310   44307       7   44316   44313       6   44319   44313       6
   44319   44316       7   44325   44322       6   44328   44322       6   44328
   44325       7   44334   44331       6   44337   44331       6   44337   44334
       7   44343   44340       6   44346   44340       6   44346   44343       7
   44352   44349       6   44355   44349       6   44355   44352       7   44361
   44358       6   44364   44358       6   44364   44361       7   44370   44367
       6   44373   44367       6   44373   44370       7   44379   44376       6
   44382   44376       6   44382   44379       7   44388   44385       6   44391
   44385       6   44391   44388       7   44397   44394       6   44400   44394
       6   44400   44397       7   44406   44403       6   44409   44403       6
   44409   44406       7   44415   44412       6   44418   44412       6   44418
   44415       7   44424   44421       6   44427   44421       6   44427   44424
       7   44433   44430       6   44436   44430       6   44436   44433       7
   44442   44439       6   44445   44439       6   44445   44442       7   44451
   44448       6   44454   44448       6   44454   44451       7   44460   44457
       6   44463   44457       6   44463   44460       7   44469   44466       6
   44472   44466       6   44472   44469       7   44478   44475       6   44481
   44475       6   44481   44478       7   44487   44484       6   44490   44484
       6   44490   44487       7   44496   44493       6   44499   44493       6
   44499   44496       7   44505   44502       6   44508   44502       6   44508
   44505       7   44514   44511       6   44517   44511       6   44517   44514
       7   44523   44520       6   44526   44520       6   44526   44523       7
   44532   44529       6   44535   44529       6   44535   44532       7   44541
   44538       6   44544   44538       6   44544   44541       7   44550   44547
       6   44553   44547       6   44553   44550       7   44559   44556       6
   44562   44556       6   44562   44559       7   44568   44565       6   44571
   44565       6   44571   44568       7   44577   44574       6   44580   44574
       6   44580   44577       7   44586   44583       6   44589   44583       6
   44589   44586       7   44595   44592       6   44598   44592       6   44598
   44595       7   44604   44601       6   44607   44601       6   44607   44604
       7   44613   44610       6   44616   44610       6   44616   44613       7
   44622   44619       6   44625   44619       6   44625   44622       7   44631
   44628       6   44634   44628       6   44634   44631       7   44640   44637
       6   44643   44637       6   44643   44640       7   44649   44646       6
   44652   44646       6   44652   44649       7   44658   44655       6   44661
   44655       6   44661   44658       7   44667   44664       6   44670   44664
       6   44670   44667       7   44676   44673       6   44679   44673       6
   44679   44676       7   44685   44682       6   44688   44682       6   44688
   44685       7   44694   44691       6   44697   44691       6   44697   44694
       7   44703   44700       6   44706   44700       6   44706   44703       7
   44712   44709       6   44715   44709       6   44715   44712       7   44721
   44718       6   44724   44718       6   44724   44721       7   44730   44727
       6   44733   44727       6   44733   44730       7   44739   44736       6
   44742   44736       6   44742   44739       7   44748   44745       6   44751
   44745       6   44751   44748       7   44757   44754       6   44760   44754
       6   44760   44757       7   44766   44763       6   44769   44763       6
   44769   44766       7   44775   44772       6   44778   44772       6   44778
   44775       7   44784   44781       6   44787   44781       6   44787   44784
       7   44793   44790       6   44796   44790       6   44796   44793       7
   44802   44799       6   44805   44799       6   44805   44802       7   44811
   44808       6   44814   44808       6   44814   44811       7   44820   44817
       6   44823   44817       6   44823   44820       7   44829   44826       6
   44832   44826       6   44832   44829       7   44838   44835       6   44841
   44835       6   44841   44838       7   44847   44844       6   44850   44844
       6   44850   44847       7   44856   44853       6   44859   44853       6
   44859   44856       7   44865   44862       6   44868   44862       6   44868
   44865       7   44874   44871       6   44877   44871       6   44877   44874
       7   44883   44880       6   44886   44880       6   44886   44883       7
   44892   44889       6   44895   44889       6   44895   44892       7   44901
   44898       6   44904   44898       6   44904   44901       7   44910   44907
       6   44913   44907       6   44913   44910       7   44919   44916       6
   44922   44916       6   44922   44919       7   44928   44925       6   44931
   44925       6   44931   44928       7   44937   44934       6   44940   44934
       6   44940   44937       7   44946   44943       6   44949   44943       6
   44949   44946       7   44955   44952       6   44958   44952       6   44958
   44955       7   44964   44961       6   44967   44961       6   44967   44964
       7   44973   44970       6   44976   44970       6   44976   44973       7
   44982   44979       6   44985   44979       6   44985   44982       7   44991
   44988       6   44994   44988       6   44994   44991       7   45000   44997
       6   45003   44997       6   45003   45000       7   45009   45006       6
   45012   45006       6   45012   45009       7   45018   45015       6   45021
   45015       6   45021   45018       7   45027   45024       6   45030   45024
       6   45030   45027       7   45036   45033       6   45039   45033       6
   45039   45036       7   45045   45042       6   45048   45042       6   45048
   45045       7   45054   45051       6   45057   45051       6   45057   45054
       7   45063   45060       6   45066   45060       6   45066   45063       7
   45072   45069       6   45075   45069       6   45075   45072       7   45081
   45078       6   45084   45078       6   45084   45081       7   45090   45087
       6   45093   45087       6   45093   45090       7   45099   45096       6
   45102   45096       6   45102   45099       7   45108   45105       6   45111
   45105       6   45111   45108       7   45117   45114       6   45120   45114
       6   45120   45117       7   45126   45123       6   45129   45123       6
   45129   45126       7   45135   45132       6   45138   45132       6   45138
   45135       7   45144   45141       6   45147   45141       6   45147   45144
       7   45153   45150       6   45156   45150       6   45156   45153       7
   45162   45159       6   45165   45159       6   45165   45162       7   45171
   45168       6   45174   45168       6   45174   45171       7   45180   45177
       6   45183   45177       6   45183   45180       7   45189   45186       6
   45192   45186       6   45192   45189       7   45198   45195       6   45201
   45195       6   45201   45198       7   45207   45204       6   45210   45204
       6   45210   45207       7   45216   45213       6   45219   45213       6
   45219   45216       7   45225   45222       6   45228   45222       6   45228
   45225       7   45234   45231       6   45237   45231       6   45237   45234
       7   45243   45240       6   45246   45240       6   45246   45243       7
   45252   45249       6   45255   45249       6   45255   45252       7   45261
   45258       6   45264   45258       6   45264   45261       7   45270   45267
       6   45273   45267       6   45273   45270       7   45279   45276       6
   45282   45276       6   45282   45279       7   45288   45285       6   45291
   45285       6   45291   45288       7   45297   45294       6   45300   45294
       6   45300   45297       7   45306   45303       6   45309   45303       6
   45309   45306       7   45315   45312       6   45318   45312       6   45318
   45315       7   45324   45321       6   45327   45321       6   45327   45324
       7   45333   45330       6   45336   45330       6   45336   45333       7
   45342   45339       6   45345   45339       6   45345   45342       7   45351
   45348       6   45354   45348       6   45354   45351       7   45360   45357
       6   45363   45357       6   45363   45360       7   45369   45366       6
   45372   45366       6   45372   45369       7   45378   45375       6   45381
   45375       6   45381   45378       7   45387   45384       6   45390   45384
       6   45390   45387       7   45396   45393       6   45399   45393       6
   45399   45396       7   45405   45402       6   45408   45402       6   45408
   45405       7   45414   45411       6   45417   45411       6   45417   45414
       7   45423   45420       6   45426   45420       6   45426   45423       7
   45432   45429       6   45435   45429       6   45435   45432       7   45441
   45438       6   45444   45438       6   45444   45441       7   45450   45447
       6   45453   45447       6   45453   45450       7   45459   45456       6
   45462   45456       6   45462   45459       7   45468   45465       6   45471
   45465       6   45471   45468       7   45477   45474       6   45480   45474
       6   45480   45477       7   45486   45483       6   45489   45483       6
   45489   45486       7   45495   45492       6   45498   45492       6   45498
   45495       7   45504   45501       6   45507   45501       6   45507   45504
       7   45513   45510       6   45516   45510       6   45516   45513       7
   45522   45519       6   45525   45519       6   45525   45522       7   45531
   45528       6   45534   45528       6   45534   45531       7   45540   45537
       6   45543   45537       6   45543   45540       7   45549   45546       6
   45552   45546       6   45552   45549       7   45558   45555       6   45561
   45555       6   45561   45558       7   45567   45564       6   45570   45564
       6   45570   45567       7   45576   45573       6   45579   45573       6
   45579   45576       7   45585   45582       6   45588   45582       6   45588
   45585       7   45594   45591       6   45597   45591       6   45597   45594
       7   45603   45600       6   45606   45600       6   45606   45603       7
   45612   45609       6   45615   45609       6   45615   45612       7   45621
   45618       6   45624   45618       6   45624   45621       7   45630   45627
       6   45633   45627       6   45633   45630       7   45639   45636       6
   45642   45636       6   45642   45639       7   45648   45645       6   45651
   45645       6   45651   45648       7   45657   45654       6   45660   45654
       6   45660   45657       7   45666   45663       6   45669   45663       6
   45669   45666       7   45675   45672       6   45678   45672       6   45678
   45675       7   45684   45681       6   45687   45681       6   45687   45684
       7   45693   45690       6   45696   45690       6   45696   45693       7
   45702   45699       6   45705   45699       6   45705   45702       7   45711
   45708       6   45714   45708       6   45714   45711       7   45720   45717
       6   45723   45717       6   45723   45720       7   45729   45726       6
   45732   45726       6   45732   45729       7   45738   45735       6   45741
   45735       6   45741   45738       7   45747   45744       6   45750   45744
       6   45750   45747       7   45756   45753       6   45759   45753       6
   45759   45756       7   45765   45762       6   45768   45762       6   45768
   45765       7   45774   45771       6   45777   45771       6   45777   45774
       7   45783   45780       6   45786   45780       6   45786   45783       7
   45792   45789       6   45795   45789       6   45795   45792       7   45801
   45798       6   45804   45798       6   45804   45801       7   45810   45807
       6   45813   45807       6   45813   45810       7   45819   45816       6
   45822   45816       6   45822   45819       7   45828   45825       6   45831
   45825       6   45831   45828       7   45837   45834       6   45840   45834
       6   45840   45837       7   45846   45843       6   45849   45843       6
   45849   45846       7   45855   45852       6   45858   45852       6   45858
   45855       7   45864   45861       6   45867   45861       6   45867   45864
       7   45873   45870       6   45876   45870       6   45876   45873       7
   45882   45879       6   45885   45879       6   45885   45882       7   45891
   45888       6   45894   45888       6   45894   45891       7   45900   45897
       6   45903   45897       6   45903   45900       7   45909   45906       6
   45912   45906       6   45912   45909       7   45918   45915       6   45921
   45915       6   45921   45918       7   45927   45924       6   45930   45924
       6   45930   45927       7   45936   45933       6   45939   45933       6
   45939   45936       7   45945   45942       6   45948   45942       6   45948
   45945       7   45954   45951       6   45957   45951       6   45957   45954
       7   45963   45960       6   45966   45960       6   45966   45963       7
   45972   45969       6   45975   45969       6   45975   45972       7   45981
   45978       6   45984   45978       6   45984   45981       7   45990   45987
       6   45993   45987       6   45993   45990       7   45999   45996       6
   46002   45996       6   46002   45999       7   46008   46005       6   46011
   46005       6   46011   46008       7   46017   46014       6   46020   46014
       6   46020   46017       7   46026   46023       6   46029   46023       6
   46029   46026       7   46035   46032       6   46038   46032       6   46038
   46035       7   46044   46041       6   46047   46041       6   46047   46044
       7   46053   46050       6   46056   46050       6   46056   46053       7
   46062   46059       6   46065   46059       6   46065   46062       7   46071
   46068       6   46074   46068       6   46074   46071       7   46080   46077
       6   46083   46077       6   46083   46080       7   46089   46086       6
   46092   46086       6   46092   46089       7   46098   46095       6   46101
   46095       6   46101   46098       7   46107   46104       6   46110   46104
       6   46110   46107       7   46116   46113       6   46119   46113       6
   46119   46116       7   46125   46122       6   46128   46122       6   46128
   46125       7   46134   46131       6   46137   46131       6   46137   46134
       7   46143   46140       6   46146   46140       6   46146   46143       7
   46152   46149       6   46155   46149       6   46155   46152       7   46161
   46158       6   46164   46158       6   46164   46161       7   46170   46167
       6   46173   46167       6   46173   46170       7   46179   46176       6
   46182   46176       6   46182   46179       7   46188   46185       6   46191
   46185       6   46191   46188       7   46197   46194       6   46200   46194
       6   46200   46197       7   46206   46203       6   46209   46203       6
   46209   46206       7   46215   46212       6   46218   46212       6   46218
   46215       7   46224   46221       6   46227   46221       6   46227   46224
       7   46233   46230       6   46236   46230       6   46236   46233       7
   46242   46239       6   46245   46239       6   46245   46242       7   46251
   46248       6   46254   46248       6   46254   46251       7   46260   46257
       6   46263   46257       6   46263   46260       7   46269   46266       6
   46272   46266       6   46272   46269       7   46278   46275       6   46281
   46275       6   46281   46278       7   46287   46284       6   46290   46284
       6   46290   46287       7   46296   46293       6   46299   46293       6
   46299   46296       7   46305   46302       6   46308   46302       6   46308
   46305       7   46314   46311       6   46317   46311       6   46317   46314
       7   46323   46320       6   46326   46320       6   46326   46323       7
   46332   46329       6   46335   46329       6   46335   46332       7   46341
   46338       6   46344   46338       6   46344   46341       7   46350   46347
       6   46353   46347       6   46353   46350       7   46359   46356       6
   46362   46356       6   46362   46359       7   46368   46365       6   46371
   46365       6   46371   46368       7   46377   46374       6   46380   46374
       6   46380   46377       7   46386   46383       6   46389   46383       6
   46389   46386       7   46395   46392       6   46398   46392       6   46398
   46395       7   46404   46401       6   46407   46401       6   46407   46404
       7   46413   46410       6   46416   46410       6   46416   46413       7
   46422   46419       6   46425   46419       6   46425   46422       7   46431
   46428       6   46434   46428       6   46434   46431       7   46440   46437
       6   46443   46437       6   46443   46440       7   46449   46446       6
   46452   46446       6   46452   46449       7   46458   46455       6   46461
   46455       6   46461   46458       7   46467   46464       6   46470   46464
       6   46470   46467       7   46476   46473       6   46479   46473       6
   46479   46476       7   46485   46482       6   46488   46482       6   46488
   46485       7   46494   46491       6   46497   46491       6   46497   46494
       7   46503   46500       6   46506   46500       6   46506   46503       7
   46512   46509       6   46515   46509       6   46515   46512       7   46521
   46518       6   46524   46518       6   46524   46521       7   46530   46527
       6   46533   46527       6   46533   46530       7   46539   46536       6
   46542   46536       6   46542   46539       7   46548   46545       6   46551
   46545       6   46551   46548       7   46557   46554       6   46560   46554
       6   46560   46557       7   46566   46563       6   46569   46563       6
   46569   46566       7   46575   46572       6   46578   46572       6   46578
   46575       7   46584   46581       6   46587   46581       6   46587   46584
       7   46593   46590       6   46596   46590       6   46596   46593       7
   46602   46599       6   46605   46599       6   46605   46602       7   46611
   46608       6   46614   46608       6   46614   46611       7   46620   46617
       6   46623   46617       6   46623   46620       7   46629   46626       6
   46632   46626       6   46632   46629       7   46638   46635       6   46641
   46635       6   46641   46638       7   46647   46644       6   46650   46644
       6   46650   46647       7   46656   46653       6   46659   46653       6
   46659   46656       7   46665   46662       6   46668   46662       6   46668
   46665       7   46674   46671       6   46677   46671       6   46677   46674
       7   46683   46680       6   46686   46680       6   46686   46683       7
   46692   46689       6   46695   46689       6   46695   46692       7   46701
   46698       6   46704   46698       6   46704   46701       7   46710   46707
       6   46713   46707       6   46713   46710       7   46719   46716       6
   46722   46716       6   46722   46719       7   46728   46725       6   46731
   46725       6   46731   46728       7   46737   46734       6   46740   46734
       6   46740   46737       7   46746   46743       6   46749   46743       6
   46749   46746       7   46755   46752       6   46758   46752       6   46758
   46755       7   46764   46761       6   46767   46761       6   46767   46764
       7   46773   46770       6   46776   46770       6   46776   46773       7
   46782   46779       6   46785   46779       6   46785   46782       7   46791
   46788       6   46794   46788       6   46794   46791       7   46800   46797
       6   46803   46797       6   46803   46800       7   46809   46806       6
   46812   46806       6   46812   46809       7   46818   46815       6   46821
   46815       6   46821   46818       7   46827   46824       6   46830   46824
       6   46830   46827       7   46836   46833       6   46839   46833       6
   46839   46836       7   46845   46842       6   46848   46842       6   46848
   46845       7   46854   46851       6   46857   46851       6   46857   46854
       7   46863   46860       6   46866   46860       6   46866   46863       7
   46872   46869       6   46875   46869       6   46875   46872       7   46881
   46878       6   46884   46878       6   46884   46881       7   46890   46887
       6   46893   46887       6   46893   46890       7   46899   46896       6
   46902   46896       6   46902   46899       7   46908   46905       6   46911
   46905       6   46911   46908       7   46917   46914       6   46920   46914
       6   46920   46917       7   46926   46923       6   46929   46923       6
   46929   46926       7   46935   46932       6   46938   46932       6   46938
   46935       7   46944   46941       6   46947   46941       6   46947   46944
       7   46953   46950       6   46956   46950       6   46956   46953       7
   46962   46959       6   46965   46959       6   46965   46962       7   46971
   46968       6   46974   46968       6   46974   46971       7   46980   46977
       6   46983   46977       6   46983   46980       7   46989   46986       6
   46992   46986       6   46992   46989       7   46998   46995       6   47001
   46995       6   47001   46998       7   47007   47004       6   47010   47004
       6   47010   47007       7   47016   47013       6   47019   47013       6
   47019   47016       7   47025   47022       6   47028   47022       6   47028
   47025       7   47034   47031       6   47037   47031       6   47037   47034
       7   47043   47040       6   47046   47040       6   47046   47043       7
   47052   47049       6   47055   47049       6   47055   47052       7   47061
   47058       6   47064   47058       6   47064   47061       7   47070   47067
       6   47073   47067       6   47073   47070       7   47079   47076       6
   47082   47076       6   47082   47079       7   47088   47085       6   47091
   47085       6   47091   47088       7   47097   47094       6   47100   47094
       6   47100   47097       7   47106   47103       6   47109   47103       6
   47109   47106       7   47115   47112       6   47118   47112       6   47118
   47115       7   47124   47121       6   47127   47121       6   47127   47124
       7   47133   47130       6   47136   47130       6   47136   47133       7
   47142   47139       6   47145   47139       6   47145   47142       7   47151
   47148       6   47154   47148       6   47154   47151       7   47160   47157
       6   47163   47157       6   47163   47160       7   47169   47166       6
   47172   47166       6   47172   47169       7   47178   47175       6   47181
   47175       6   47181   47178       7   47187   47184       6   47190   47184
       6   47190   47187       7   47196   47193       6   47199   47193       6
   47199   47196       7   47205   47202       6   47208   47202       6   47208
   47205       7   47214   47211       6   47217   47211       6   47217   47214
       7   47223   47220       6   47226   47220       6   47226   47223       7
   47232   47229       6   47235   47229       6   47235   47232       7   47241
   47238       6   47244   47238       6   47244   47241       7   47250   47247
       6   47253   47247       6   47253   47250       7   47259   47256       6
   47262   47256       6   47262   47259       7   47268   47265       6   47271
   47265       6   47271   47268       7   47277   47274       6   47280   47274
       6   47280   47277       7   47286   47283       6   47289   47283       6
   47289   47286       7   47295   47292       6   47298   47292       6   47298
   47295       7   47304   47301       6   47307   47301       6   47307   47304
       7   47313   47310       6   47316   47310       6   47316   47313       7
   47322   47319       6   47325   47319       6   47325   47322       7   47331
   47328       6   47334   47328       6   47334   47331       7   47340   47337
       6   47343   47337       6   47343   47340       7   47349   47346       6
   47352   47346       6   47352   47349       7   47358   47355       6   47361
   47355       6   47361   47358       7   47367   47364       6   47370   47364
       6   47370   47367       7   47376   47373       6   47379   47373       6
   47379   47376       7   47385   47382       6   47388   47382       6   47388
   47385       7   47394   47391       6   47397   47391       6   47397   47394
       7   47403   47400       6   47406   47400       6   47406   47403       7
   47412   47409       6   47415   47409       6   47415   47412       7   47421
   47418       6   47424   47418       6   47424   47421       7   47430   47427
       6   47433   47427       6   47433   47430       7   47439   47436       6
   47442   47436       6   47442   47439       7   47448   47445       6   47451
   47445       6   47451   47448       7   47457   47454       6   47460   47454
       6   47460   47457       7   47466   47463       6   47469   47463       6
   47469   47466       7   47475   47472       6   47478   47472       6   47478
   47475       7   47484   47481       6   47487   47481       6   47487   47484
       7   47493   47490       6   47496   47490       6   47496   47493       7
   47502   47499       6   47505   47499       6   47505   47502       7   47511
   47508       6   47514   47508       6   47514   47511       7   47520   47517
       6   47523   47517       6   47523   47520       7   47529   47526       6
   47532   47526       6   47532   47529       7   47538   47535       6   47541
   47535       6   47541   47538       7   47547   47544       6   47550   47544
       6   47550   47547       7   47556   47553       6   47559   47553       6
   47559   47556       7   47565   47562       6   47568   47562       6   47568
   47565       7   47574   47571       6   47577   47571       6   47577   47574
       7   47583   47580       6   47586   47580       6   47586   47583       7
   47592   47589       6   47595   47589       6   47595   47592       7   47601
   47598       6   47604   47598       6   47604   47601       7   47610   47607
       6   47613   47607       6   47613   47610       7   47619   47616       6
   47622   47616       6   47622   47619       7   47628   47625       6   47631
   47625       6   47631   47628       7   47637   47634       6   47640   47634
       6   47640   47637       7   47646   47643       6   47649   47643       6
   47649   47646       7   47655   47652       6   47658   47652       6   47658
   47655       7   47664   47661       6   47667   47661       6   47667   47664
       7   47673   47670       6   47676   47670       6   47676   47673       7
   47682   47679       6   47685   47679       6   47685   47682       7   47691
   47688       6   47694   47688       6   47694   47691       7   47700   47697
       6   47703   47697       6   47703   47700       7   47709   47706       6
   47712   47706       6   47712   47709       7   47718   47715       6   47721
   47715       6   47721   47718       7   47727   47724       6   47730   47724
       6   47730   47727       7   47736   47733       6   47739   47733       6
   47739   47736       7   47745   47742       6   47748   47742       6   47748
   47745       7   47754   47751       6   47757   47751       6   47757   47754
       7   47763   47760       6   47766   47760       6   47766   47763       7
   47772   47769       6   47775   47769       6   47775   47772       7   47781
   47778       6   47784   47778       6   47784   47781       7   47790   47787
       6   47793   47787       6   47793   47790       7   47799   47796       6
   47802   47796       6   47802   47799       7   47808   47805       6   47811
   47805       6   47811   47808       7   47817   47814       6   47820   47814
       6   47820   47817       7   47826   47823       6   47829   47823       6
   47829   47826       7   47835   47832       6   47838   47832       6   47838
   47835       7   47844   47841       6   47847   47841       6   47847   47844
       7   47853   47850       6   47856   47850       6   47856   47853       7
   47862   47859       6   47865   47859       6   47865   47862       7   47871
   47868       6   47874   47868       6   47874   47871       7   47880   47877
       6   47883   47877       6   47883   47880       7   47889   47886       6
   47892   47886       6   47892   47889       7   47898   47895       6   47901
   47895       6   47901   47898       7   47907   47904       6   47910   47904
       6   47910   47907       7   47916   47913       6   47919   47913       6
   47919   47916       7   47925   47922       6   47928   47922       6   47928
   47925       7   47934   47931       6   47937   47931       6   47937   47934
       7   47943   47940       6   47946   47940       6   47946   47943       7
   47952   47949       6   47955   47949       6   47955   47952       7   47961
   47958       6   47964   47958       6   47964   47961       7   47970   47967
       6   47973   47967       6   47973   47970       7   47979   47976       6
   47982   47976       6   47982   47979       7   47988   47985       6   47991
   47985       6   47991   47988       7   47997   47994       6   48000   47994
       6   48000   47997       7   48006   48003       6   48009   48003       6
   48009   48006       7   48015   48012       6   48018   48012       6   48018
   48015       7   48024   48021       6   48027   48021       6   48027   48024
       7   48033   48030       6   48036   48030       6   48036   48033       7
   48042   48039       6   48045   48039       6   48045   48042       7   48051
   48048       6   48054   48048       6   48054   48051       7   48060   48057
       6   48063   48057       6   48063   48060       7   48069   48066       6
   48072   48066       6   48072   48069       7   48078   48075       6   48081
   48075       6   48081   48078       7   48087   48084       6   48090   48084
       6   48090   48087       7   48096   48093       6   48099   48093       6
   48099   48096       7   48105   48102       6   48108   48102       6   48108
   48105       7   48114   48111       6   48117   48111       6   48117   48114
       7   48123   48120       6   48126   48120       6   48126   48123       7
   48132   48129       6   48135   48129       6   48135   48132       7   48141
   48138       6   48144   48138       6   48144   48141       7   48150   48147
       6   48153   48147       6   48153   48150       7   48159   48156       6
   48162   48156       6   48162   48159       7   48168   48165       6   48171
   48165       6   48171   48168       7   48177   48174       6   48180   48174
       6   48180   48177       7   48186   48183       6   48189   48183       6
   48189   48186       7   48195   48192       6   48198   48192       6   48198
   48195       7   48204   48201       6   48207   48201       6   48207   48204
       7   48213   48210       6   48216   48210       6   48216   48213       7
   48222   48219       6   48225   48219       6   48225   48222       7   48231
   48228       6   48234   48228       6   48234   48231       7   48240   48237
       6   48243   48237       6   48243   48240       7   48249   48246       6
   48252   48246       6   48252   48249       7   48258   48255       6   48261
   48255       6   48261   48258       7   48267   48264       6   48270   48264
       6   48270   48267       7   48276   48273       6   48279   48273       6
   48279   48276       7   48285   48282       6   48288   48282       6   48288
   48285       7   48294   48291       6   48297   48291       6   48297   48294
       7   48303   48300       6   48306   48300       6   48306   48303       7
   48312   48309       6   48315   48309       6   48315   48312       7   48321
   48318       6   48324   48318       6   48324   48321       7   48330   48327
       6   48333   48327       6   48333   48330       7   48339   48336       6
   48342   48336       6   48342   48339       7   48348   48345       6   48351
   48345       6   48351   48348       7   48357   48354       6   48360   48354
       6   48360   48357       7   48366   48363       6   48369   48363       6
   48369   48366       7   48375   48372       6   48378   48372       6   48378
   48375       7   48384   48381       6   48387   48381       6   48387   48384
       7   48393   48390       6   48396   48390       6   48396   48393       7
   48402   48399       6   48405   48399       6   48405   48402       7   48411
   48408       6   48414   48408       6   48414   48411       7   48420   48417
       6   48423   48417       6   48423   48420       7   48429   48426       6
   48432   48426       6   48432   48429       7   48438   48435       6   48441
   48435       6   48441   48438       7   48447   48444       6   48450   48444
       6   48450   48447       7   48456   48453       6   48459   48453       6
   48459   48456       7   48465   48462       6   48468   48462       6   48468
   48465       7   48474   48471       6   48477   48471       6   48477   48474
       7   48483   48480       6   48486   48480       6   48486   48483       7
   48492   48489       6   48495   48489       6   48495   48492       7   48501
   48498       6   48504   48498       6   48504   48501       7   48510   48507
       6   48513   48507       6   48513   48510       7   48519   48516       6
   48522   48516       6   48522   48519       7   48528   48525       6   48531
   48525       6   48531   48528       7   48537   48534       6   48540   48534
       6   48540   48537       7   48546   48543       6   48549   48543       6
   48549   48546       7   48555   48552       6   48558   48552       6   48558
   48555       7   48564   48561       6   48567   48561       6   48567   48564
       7   48573   48570       6   48576   48570       6   48576   48573       7
   48582   48579       6   48585   48579       6   48585   48582       7   48591
   48588       6   48594   48588       6   48594   48591       7   48600   48597
       6   48603   48597       6   48603   48600       7   48609   48606       6
   48612   48606       6   48612   48609       7   48618   48615       6   48621
   48615       6   48621   48618       7   48627   48624       6   48630   48624
       6   48630   48627       7   48636   48633       6   48639   48633       6
   48639   48636       7   48645   48642       6   48648   48642       6   48648
   48645       7   48654   48651       6   48657   48651       6   48657   48654
       7   48663   48660       6   48666   48660       6   48666   48663       7
   48672   48669       6   48675   48669       6   48675   48672       7   48681
   48678       6   48684   48678       6   48684   48681       7   48690   48687
       6   48693   48687       6   48693   48690       7   48699   48696       6
   48702   48696       6   48702   48699       7   48708   48705       6   48711
   48705       6   48711   48708       7   48717   48714       6   48720   48714
       6   48720   48717       7   48726   48723       6   48729   48723       6
   48729   48726       7   48735   48732       6   48738   48732       6   48738
   48735       7   48744   48741       6   48747   48741       6   48747   48744
       7   48753   48750       6   48756   48750       6   48756   48753       7
   48762   48759       6   48765   48759       6   48765   48762       7   48771
   48768       6   48774   48768       6   48774   48771       7   48780   48777
       6   48783   48777       6   48783   48780       7   48789   48786       6
   48792   48786       6   48792   48789       7   48798   48795       6   48801
   48795       6   48801   48798       7   48807   48804       6   48810   48804
       6   48810   48807       7   48816   48813       6   48819   48813       6
   48819   48816       7   48825   48822       6   48828   48822       6   48828
   48825       7   48834   48831       6   48837   48831       6   48837   48834
       7   48843   48840       6   48846   48840       6   48846   48843       7
   48852   48849       6   48855   48849       6   48855   48852       7   48861
   48858       6   48864   48858       6   48864   48861       7   48870   48867
       6   48873   48867       6   48873   48870       7   48879   48876       6
   48882   48876       6   48882   48879       7   48888   48885       6   48891
   48885       6   48891   48888       7   48897   48894       6   48900   48894
       6   48900   48897       7   48906   48903       6   48909   48903       6
   48909   48906       7   48915   48912       6   48918   48912       6   48918
   48915       7   48924   48921       6   48927   48921       6   48927   48924
       7   48933   48930       6   48936   48930       6   48936   48933       7
   48942   48939       6   48945   48939       6   48945   48942       7   48951
   48948       6   48954   48948       6   48954   48951       7   48960   48957
       6   48963   48957       6   48963   48960       7   48969   48966       6
   48972   48966       6   48972   48969       7   48978   48975       6   48981
   48975       6   48981   48978       7   48987   48984       6   48990   48984
       6   48990   48987       7   48996   48993       6   48999   48993       6
   48999   48996       7   49005   49002       6   49008   49002       6   49008
   49005       7   49014   49011       6   49017   49011       6   49017   49014
       7   49023   49020       6   49026   49020       6   49026   49023       7
   49032   49029       6   49035   49029       6   49035   49032       7   49041
   49038       6   49044   49038       6   49044   49041       7   49050   49047
       6   49053   49047       6   49053   49050       7   49059   49056       6
   49062   49056       6   49062   49059       7   49068   49065       6   49071
   49065       6   49071   49068       7   49077   49074       6   49080   49074
       6   49080   49077       7   49086   49083       6   49089   49083       6
   49089   49086       7   49095   49092       6   49098   49092       6   49098
   49095       7   49104   49101       6   49107   49101       6   49107   49104
       7   49113   49110       6   49116   49110       6   49116   49113       7
   49122   49119       6   49125   49119       6   49125   49122       7   49131
   49128       6   49134   49128       6   49134   49131       7   49140   49137
       6   49143   49137       6   49143   49140       7   49149   49146       6
   49152   49146       6   49152   49149       7   49158   49155       6   49161
   49155       6   49161   49158       7   49167   49164       6   49170   49164
       6   49170   49167       7   49176   49173       6   49179   49173       6
   49179   49176       7   49185   49182       6   49188   49182       6   49188
   49185       7   49194   49191       6   49197   49191       6   49197   49194
       7   49203   49200       6   49206   49200       6   49206   49203       7
   49212   49209       6   49215   49209       6   49215   49212       7   49221
   49218       6   49224   49218       6   49224   49221       7   49230   49227
       6   49233   49227       6   49233   49230       7   49239   49236       6
   49242   49236       6   49242   49239       7   49248   49245       6   49251
   49245       6   49251   49248       7   49257   49254       6   49260   49254
       6   49260   49257       7   49266   49263       6   49269   49263       6
   49269   49266       7   49275   49272       6   49278   49272       6   49278
   49275       7   49284   49281       6   49287   49281       6   49287   49284
       7   49293   49290       6   49296   49290       6   49296   49293       7
   49302   49299       6   49305   49299       6   49305   49302       7   49311
   49308       6   49314   49308       6   49314   49311       7   49320   49317
       6   49323   49317       6   49323   49320       7   49329   49326       6
   49332   49326       6   49332   49329       7   49338   49335       6   49341
   49335       6   49341   49338       7   49347   49344       6   49350   49344
       6   49350   49347       7   49356   49353       6   49359   49353       6
   49359   49356       7   49365   49362       6   49368   49362       6   49368
   49365       7   49374   49371       6   49377   49371       6   49377   49374
       7   49383   49380       6   49386   49380       6   49386   49383       7
   49392   49389       6   49395   49389       6   49395   49392       7   49401
   49398       6   49404   49398       6   49404   49401       7   49410   49407
       6   49413   49407       6   49413   49410       7   49419   49416       6
   49422   49416       6   49422   49419       7   49428   49425       6   49431
   49425       6   49431   49428       7   49437   49434       6   49440   49434
       6   49440   49437       7   49446   49443       6   49449   49443       6
   49449   49446       7   49455   49452       6   49458   49452       6   49458
   49455       7   49464   49461       6   49467   49461       6   49467   49464
       7   49473   49470       6   49476   49470       6   49476   49473       7
   49482   49479       6   49485   49479       6   49485   49482       7   49491
   49488       6   49494   49488       6   49494   49491       7   49500   49497
       6   49503   49497       6   49503   49500       7   49509   49506       6
   49512   49506       6   49512   49509       7   49518   49515       6   49521
   49515       6   49521   49518       7   49527   49524       6   49530   49524
       6   49530   49527       7   49536   49533       6   49539   49533       6
   49539   49536       7   49545   49542       6   49548   49542       6   49548
   49545       7   49554   49551       6   49557   49551       6   49557   49554
       7   49563   49560       6   49566   49560       6   49566   49563       7
   49572   49569       6   49575   49569       6   49575   49572       7   49581
   49578       6   49584   49578       6   49584   49581       7   49590   49587
       6   49593   49587       6   49593   49590       7   49599   49596       6
   49602   49596       6   49602   49599       7   49608   49605       6   49611
   49605       6   49611   49608       7   49617   49614       6   49620   49614
       6   49620   49617       7   49626   49623       6   49629   49623       6
   49629   49626       7   49635   49632       6   49638   49632       6   49638
   49635       7   49644   49641       6   49647   49641       6   49647   49644
       7   49653   49650       6   49656   49650       6   49656   49653       7
   49662   49659       6   49665   49659       6   49665   49662       7   49671
   49668       6   49674   49668       6   49674   49671       7   49680   49677
       6   49683   49677       6   49683   49680       7   49689   49686       6
   49692   49686       6   49692   49689       7   49698   49695       6   49701
   49695       6   49701   49698       7   49707   49704       6   49710   49704
       6   49710   49707       7   49716   49713       6   49719   49713       6
   49719   49716       7   49725   49722       6   49728   49722       6   49728
   49725       7   49734   49731       6   49737   49731       6   49737   49734
       7   49743   49740       6   49746   49740       6   49746   49743       7
   49752   49749       6   49755   49749       6   49755   49752       7   49761
   49758       6   49764   49758       6   49764   49761       7   49770   49767
       6   49773   49767       6   49773   49770       7   49779   49776       6
   49782   49776       6   49782   49779       7   49788   49785       6   49791
   49785       6   49791   49788       7   49797   49794       6   49800   49794
       6   49800   49797       7   49806   49803       6   49809   49803       6
   49809   49806       7   49815   49812       6   49818   49812       6   49818
   49815       7   49824   49821       6   49827   49821       6   49827   49824
       7   49833   49830       6   49836   49830       6   49836   49833       7
   49842   49839       6   49845   49839       6   49845   49842       7   49851
   49848       6   49854   49848       6   49854   49851       7   49860   49857
       6   49863   49857       6   49863   49860       7   49869   49866       6
   49872   49866       6   49872   49869       7   49878   49875       6   49881
   49875       6   49881   49878       7   49887   49884       6   49890   49884
       6   49890   49887       7   49896   49893       6   49899   49893       6
   49899   49896       7   49905   49902       6   49908   49902       6   49908
   49905       7   49914   49911       6   49917   49911       6   49917   49914
       7   49923   49920       6   49926   49920       6   49926   49923       7
   49932   49929       6   49935   49929       6   49935   49932       7   49941
   49938       6   49944   49938       6   49944   49941       7   49950   49947
       6   49953   49947       6   49953   49950       7   49959   49956       6
   49962   49956       6   49962   49959       7   49968   49965       6   49971
   49965       6   49971   49968       7   49977   49974       6   49980   49974
       6   49980   49977       7   49986   49983       6   49989   49983       6
   49989   49986       7   49995   49992       6   49998   49992       6   49998
   49995       7   50004   50001       6   50007   50001       6   50007   50004
       7   50013   50010       6   50016   50010       6   50016   50013       7
   50022   50019       6   50025   50019       6   50025   50022       7   50031
   50028       6   50034   50028       6   50034   50031       7   50040   50037
       6   50043   50037       6   50043   50040       7   50049   50046       6
   50052   50046       6   50052   50049       7   50058   50055       6   50061
   50055       6   50061   50058       7   50067   50064       6   50070   50064
       6   50070   50067       7   50076   50073       6   50079   50073       6
   50079   50076       7   50085   50082       6   50088   50082       6   50088
   50085       7   50094   50091       6   50097   50091       6   50097   50094
       7   50103   50100       6   50106   50100       6   50106   50103       7
   50112   50109       6   50115   50109       6   50115   50112       7   50121
   50118       6   50124   50118       6   50124   50121       7   50130   50127
       6   50133   50127       6   50133   50130       7   50139   50136       6
   50142   50136       6   50142   50139       7   50148   50145       6   50151
   50145       6   50151   50148       7   50157   50154       6   50160   50154
       6   50160   50157       7   50166   50163       6   50169   50163       6
   50169   50166       7   50175   50172       6   50178   50172       6   50178
   50175       7   50184   50181       6   50187   50181       6   50187   50184
       7   50193   50190       6   50196   50190       6   50196   50193       7
   50202   50199       6   50205   50199       6   50205   50202       7   50211
   50208       6   50214   50208       6   50214   50211       7   50220   50217
       6   50223   50217       6   50223   50220       7   50229   50226       6
   50232   50226       6   50232   50229       7   50238   50235       6   50241
   50235       6   50241   50238       7   50247   50244       6   50250   50244
       6   50250   50247       7   50256   50253       6   50259   50253       6
   50259   50256       7   50265   50262       6   50268   50262       6   50268
   50265       7   50274   50271       6   50277   50271       6   50277   50274
       7   50283   50280       6   50286   50280       6   50286   50283       7
   50292   50289       6   50295   50289       6   50295   50292       7   50301
   50298       6   50304   50298       6   50304   50301       7   50310   50307
       6   50313   50307       6   50313   50310       7   50319   50316       6
   50322   50316       6   50322   50319       7   50328   50325       6   50331
   50325       6   50331   50328       7   50337   50334       6   50340   50334
       6   50340   50337       7   50346   50343       6   50349   50343       6
   50349   50346       7   50355   50352       6   50358   50352       6   50358
   50355       7   50364   50361       6   50367   50361       6   50367   50364
       7   50373   50370       6   50376   50370       6   50376   50373       7
   50382   50379       6   50385   50379       6   50385   50382       7   50391
   50388       6   50394   50388       6   50394   50391       7   50400   50397
       6   50403   50397       6   50403   50400       7   50409   50406       6
   50412   50406       6   50412   50409       7   50418   50415       6   50421
   50415       6   50421   50418       7   50427   50424       6   50430   50424
       6   50430   50427       7   50436   50433       6   50439   50433       6
   50439   50436       7   50445   50442       6   50448   50442       6   50448
   50445       7   50454   50451       6   50457   50451       6   50457   50454
       7   50463   50460       6   50466   50460       6   50466   50463       7
   50472   50469       6   50475   50469       6   50475   50472       7   50481
   50478       6   50484   50478       6   50484   50481       7   50490   50487
       6   50493   50487       6   50493   50490       7   50499   50496       6
   50502   50496       6   50502   50499       7   50508   50505       6   50511
   50505       6   50511   50508       7   50517   50514       6   50520   50514
       6   50520   50517       7   50526   50523       6   50529   50523       6
   50529   50526       7   50535   50532       6   50538   50532       6   50538
   50535       7   50544   50541       6   50547   50541       6   50547   50544
       7   50553   50550       6   50556   50550       6   50556   50553       7
   50562   50559       6   50565   50559       6   50565   50562       7   50571
   50568       6   50574   50568       6   50574   50571       7   50580   50577
       6   50583   50577       6   50583   50580       7   50589   50586       6
   50592   50586       6   50592   50589       7   50598   50595       6   50601
   50595       6   50601   50598       7   50607   50604       6   50610   50604
       6   50610   50607       7   50616   50613       6   50619   50613       6
   50619   50616       7   50625   50622       6   50628   50622       6   50628
   50625       7   50634   50631       6   50637   50631       6   50637   50634
       7   50643   50640       6   50646   50640       6   50646   50643       7
   50652   50649       6   50655   50649       6   50655   50652       7   50661
   50658       6   50664   50658       6   50664   50661       7   50670   50667
       6   50673   50667       6   50673   50670       7   50679   50676       6
   50682   50676       6   50682   50679       7   50688   50685       6   50691
   50685       6   50691   50688       7   50697   50694       6   50700   50694
       6   50700   50697       7   50706   50703       6   50709   50703       6
   50709   50706       7   50715   50712       6   50718   50712       6   50718
   50715       7   50724   50721       6   50727   50721       6   50727   50724
       7   50733   50730       6   50736   50730       6   50736   50733       7
   50742   50739       6   50745   50739       6   50745   50742       7   50751
   50748       6   50754   50748       6   50754   50751       7   50760   50757
       6   50763   50757       6   50763   50760       7   50769   50766       6
   50772   50766       6   50772   50769       7   50778   50775       6   50781
   50775       6   50781   50778       7   50787   50784       6   50790   50784
       6   50790   50787       7   50796   50793       6   50799   50793       6
   50799   50796       7   50805   50802       6   50808   50802       6   50808
   50805       7   50814   50811       6   50817   50811       6   50817   50814
       7   50823   50820       6   50826   50820       6   50826   50823       7
   50832   50829       6   50835   50829       6   50835   50832       7   50841
   50838       6   50844   50838       6   50844   50841       7   50850   50847
       6   50853   50847       6   50853   50850       7   50859   50856       6
   50862   50856       6   50862   50859       7   50868   50865       6   50871
   50865       6   50871   50868       7   50877   50874       6   50880   50874
       6   50880   50877       7   50886   50883       6   50889   50883       6
   50889   50886       7   50895   50892       6   50898   50892       6   50898
   50895       7   50904   50901       6   50907   50901       6   50907   50904
       7   50913   50910       6   50916   50910       6   50916   50913       7
   50922   50919       6   50925   50919       6   50925   50922       7   50931
   50928       6   50934   50928       6   50934   50931       7   50940   50937
       6   50943   50937       6   50943   50940       7   50949   50946       6
   50952   50946       6   50952   50949       7   50958   50955       6   50961
   50955       6   50961   50958       7   50967   50964       6   50970   50964
       6   50970   50967       7   50976   50973       6   50979   50973       6
   50979   50976       7   50985   50982       6   50988   50982       6   50988
   50985       7   50994   50991       6   50997   50991       6   50997   50994
       7   51003   51000       6   51006   51000       6   51006   51003       7
   51012   51009       6   51015   51009       6   51015   51012       7   51021
   51018       6   51024   51018       6   51024   51021       7   51030   51027
       6   51033   51027       6   51033   51030       7   51039   51036       6
   51042   51036       6   51042   51039       7   51048   51045       6   51051
   51045       6   51051   51048       7   51057   51054       6   51060   51054
       6   51060   51057       7   51066   51063       6   51069   51063       6
   51069   51066       7   51075   51072       6   51078   51072       6   51078
   51075       7   51084   51081       6   51087   51081       6   51087   51084
       7   51093   51090       6   51096   51090       6   51096   51093       7
   51102   51099       6   51105   51099       6   51105   51102       7   51111
   51108       6   51114   51108       6   51114   51111       7   51120   51117
       6   51123   51117       6   51123   51120       7   51129   51126       6
   51132   51126       6   51132   51129       7   51138   51135       6   51141
   51135       6   51141   51138       7   51147   51144       6   51150   51144
       6   51150   51147       7   51156   51153       6   51159   51153       6
   51159   51156       7   51165   51162       6   51168   51162       6   51168
   51165       7   51174   51171       6   51177   51171       6   51177   51174
       7   51183   51180       6   51186   51180       6   51186   51183       7
   51192   51189       6   51195   51189       6   51195   51192       7   51201
   51198       6   51204   51198       6   51204   51201       7   51210   51207
       6   51213   51207       6   51213   51210       7   51219   51216       6
   51222   51216       6   51222   51219       7   51228   51225       6   51231
   51225       6   51231   51228       7   51237   51234       6   51240   51234
       6   51240   51237       7   51246   51243       6   51249   51243       6
   51249   51246       7   51255   51252       6   51258   51252       6   51258
   51255       7   51264   51261       6   51267   51261       6   51267   51264
       7   51273   51270       6   51276   51270       6   51276   51273       7
   51282   51279       6   51285   51279       6   51285   51282       7   51291
   51288       6   51294   51288       6   51294   51291       7   51300   51297
       6   51303   51297       6   51303   51300       7   51309   51306       6
   51312   51306       6   51312   51309       7   51318   51315       6   51321
   51315       6   51321   51318       7   51327   51324       6   51330   51324
       6   51330   51327       7   51336   51333       6   51339   51333       6
   51339   51336       7   51345   51342       6   51348   51342       6   51348
   51345       7   51354   51351       6   51357   51351       6   51357   51354
       7   51363   51360       6   51366   51360       6   51366   51363       7
   51372   51369       6   51375   51369       6   51375   51372       7   51381
   51378       6   51384   51378       6   51384   51381       7   51390   51387
       6   51393   51387       6   51393   51390       7   51399   51396       6
   51402   51396       6   51402   51399       7   51408   51405       6   51411
   51405       6   51411   51408       7   51417   51414       6   51420   51414
       6   51420   51417       7   51426   51423       6   51429   51423       6
   51429   51426       7   51435   51432       6   51438   51432       6   51438
   51435       7   51444   51441       6   51447   51441       6   51447   51444
       7   51453   51450       6   51456   51450       6   51456   51453       7
   51462   51459       6   51465   51459       6   51465   51462       7   51471
   51468       6   51474   51468       6   51474   51471       7   51480   51477
       6   51483   51477       6   51483   51480       7   51489   51486       6
   51492   51486       6   51492   51489       7   51498   51495       6   51501
   51495       6   51501   51498       7   51507   51504       6   51510   51504
       6   51510   51507       7   51516   51513       6   51519   51513       6
   51519   51516       7   51525   51522       6   51528   51522       6   51528
   51525       7   51534   51531       6   51537   51531       6   51537   51534
       7   51543   51540       6   51546   51540       6   51546   51543       7
   51552   51549       6   51555   51549       6   51555   51552       7   51561
   51558       6   51564   51558       6   51564   51561       7   51570   51567
       6   51573   51567       6   51573   51570       7   51579   51576       6
   51582   51576       6   51582   51579       7   51588   51585       6   51591
   51585       6   51591   51588       7   51597   51594       6   51600   51594
       6   51600   51597       7   51606   51603       6   51609   51603       6
   51609   51606       7   51615   51612       6   51618   51612       6   51618
   51615       7   51624   51621       6   51627   51621       6   51627   51624
       7   51633   51630       6   51636   51630       6   51636   51633       7
   51642   51639       6   51645   51639       6   51645   51642       7   51651
   51648       6   51654   51648       6   51654   51651       7   51660   51657
       6   51663   51657       6   51663   51660       7   51669   51666       6
   51672   51666       6   51672   51669       7   51678   51675       6   51681
   51675       6   51681   51678       7   51687   51684       6   51690   51684
       6   51690   51687       7   51696   51693       6   51699   51693       6
   51699   51696       7   51705   51702       6   51708   51702       6   51708
   51705       7   51714   51711       6   51717   51711       6   51717   51714
       7   51723   51720       6   51726   51720       6   51726   51723       7
   51732   51729       6   51735   51729       6   51735   51732       7   51741
   51738       6   51744   51738       6   51744   51741       7   51750   51747
       6   51753   51747       6   51753   51750       7   51759   51756       6
   51762   51756       6   51762   51759       7   51768   51765       6   51771
   51765       6   51771   51768       7   51777   51774       6   51780   51774
       6   51780   51777       7   51786   51783       6   51789   51783       6
   51789   51786       7   51795   51792       6   51798   51792       6   51798
   51795       7   51804   51801       6   51807   51801       6   51807   51804
       7   51813   51810       6   51816   51810       6   51816   51813       7
   51822   51819       6   51825   51819       6   51825   51822       7   51831
   51828       6   51834   51828       6   51834   51831       7   51840   51837
       6   51843   51837       6   51843   51840       7   51849   51846       6
   51852   51846       6   51852   51849       7   51858   51855       6   51861
   51855       6   51861   51858       7   51867   51864       6   51870   51864
       6   51870   51867       7   51876   51873       6   51879   51873       6
   51879   51876       7   51885   51882       6   51888   51882       6   51888
   51885       7   51894   51891       6   51897   51891       6   51897   51894
       7   51903   51900       6   51906   51900       6   51906   51903       7
   51912   51909       6   51915   51909       6   51915   51912       7   51921
   51918       6   51924   51918       6   51924   51921       7   51930   51927
       6   51933   51927       6   51933   51930       7   51939   51936       6
   51942   51936       6   51942   51939       7   51948   51945       6   51951
   51945       6   51951   51948       7   51957   51954       6   51960   51954
       6   51960   51957       7   51966   51963       6   51969   51963       6
   51969   51966       7   51975   51972       6   51978   51972       6   51978
   51975       7   51984   51981       6   51987   51981       6   51987   51984
       7   51993   51990       6   51996   51990       6   51996   51993       7
   52002   51999       6   52005   51999       6   52005   52002       7   52011
   52008       6   52014   52008       6   52014   52011       7   52020   52017
       6   52023   52017       6   52023   52020       7   52029   52026       6
   52032   52026       6   52032   52029       7   52038   52035       6   52041
   52035       6   52041   52038       7   52047   52044       6   52050   52044
       6   52050   52047       7   52056   52053       6   52059   52053       6
   52059   52056       7   52065   52062       6   52068   52062       6   52068
   52065       7   52074   52071       6   52077   52071       6   52077   52074
       7   52083   52080       6   52086   52080       6   52086   52083       7
   52092   52089       6   52095   52089       6   52095   52092       7   52101
   52098       6   52104   52098       6   52104   52101       7   52110   52107
       6   52113   52107       6   52113   52110       7   52119   52116       6
   52122   52116       6   52122   52119       7   52128   52125       6   52131
   52125       6   52131   52128       7   52137   52134       6   52140   52134
       6   52140   52137       7   52146   52143       6   52149   52143       6
   52149   52146       7   52155   52152       6   52158   52152       6   52158
   52155       7   52164   52161       6   52167   52161       6   52167   52164
       7   52173   52170       6   52176   52170       6   52176   52173       7
   52182   52179       6   52185   52179       6   52185   52182       7   52191
   52188       6   52194   52188       6   52194   52191       7   52200   52197
       6   52203   52197       6   52203   52200       7   52209   52206       6
   52212   52206       6   52212   52209       7   52218   52215       6   52221
   52215       6   52221   52218       7   52227   52224       6   52230   52224
       6   52230   52227       7   52236   52233       6   52239   52233       6
   52239   52236       7   52245   52242       6   52248   52242       6   52248
   52245       7   52254   52251       6   52257   52251       6   52257   52254
       7   52263   52260       6   52266   52260       6   52266   52263       7
   52272   52269       6   52275   52269       6   52275   52272       7   52281
   52278       6   52284   52278       6   52284   52281       7   52290   52287
       6   52293   52287       6   52293   52290       7   52299   52296       6
   52302   52296       6   52302   52299       7   52308   52305       6   52311
   52305       6   52311   52308       7   52317   52314       6   52320   52314
       6   52320   52317       7   52326   52323       6   52329   52323       6
   52329   52326       7   52335   52332       6   52338   52332       6   52338
   52335       7   52344   52341       6   52347   52341       6   52347   52344
       7   52353   52350       6   52356   52350       6   52356   52353       7
   52362   52359       6   52365   52359       6   52365   52362       7   52371
   52368       6   52374   52368       6   52374   52371       7   52380   52377
       6   52383   52377       6   52383   52380       7   52389   52386       6
   52392   52386       6   52392   52389       7   52398   52395       6   52401
   52395       6   52401   52398       7   52407   52404       6   52410   52404
       6   52410   52407       7   52416   52413       6   52419   52413       6
   52419   52416       7   52425   52422       6   52428   52422       6   52428
   52425       7   52434   52431       6   52437   52431       6   52437   52434
       7   52443   52440       6   52446   52440       6   52446   52443       7
   52452   52449       6   52455   52449       6   52455   52452       7   52461
   52458       6   52464   52458       6   52464   52461       7   52470   52467
       6   52473   52467       6   52473   52470       7   52479   52476       6
   52482   52476       6   52482   52479       7   52488   52485       6   52491
   52485       6   52491   52488       7   52497   52494       6   52500   52494
       6   52500   52497       7   52506   52503       6   52509   52503       6
   52509   52506       7   52515   52512       6   52518   52512       6   52518
   52515       7   52524   52521       6   52527   52521       6   52527   52524
       7   52533   52530       6   52536   52530       6   52536   52533       7
   52542   52539       6   52545   52539       6   52545   52542       7   52551
   52548       6   52554   52548       6   52554   52551       7   52560   52557
       6   52563   52557       6   52563   52560       7   52569   52566       6
   52572   52566       6   52572   52569       7   52578   52575       6   52581
   52575       6   52581   52578       7   52587   52584       6   52590   52584
       6   52590   52587       7   52596   52593       6   52599   52593       6
   52599   52596       7   52605   52602       6   52608   52602       6   52608
   52605       7   52614   52611       6   52617   52611       6   52617   52614
       7   52623   52620       6   52626   52620       6   52626   52623       7
   52632   52629       6   52635   52629       6   52635   52632       7   52641
   52638       6   52644   52638       6   52644   52641       7   52650   52647
       6   52653   52647       6   52653   52650       7   52659   52656       6
   52662   52656       6   52662   52659       7   52668   52665       6   52671
   52665       6   52671   52668       7   52677   52674       6   52680   52674
       6   52680   52677       7   52686   52683       6   52689   52683       6
   52689   52686       7   52695   52692       6   52698   52692       6   52698
   52695       7   52704   52701       6   52707   52701       6   52707   52704
       7   52713   52710       6   52716   52710       6   52716   52713       7
   52722   52719       6   52725   52719       6   52725   52722       7   52731
   52728       6   52734   52728       6   52734   52731       7   52740   52737
       6   52743   52737       6   52743   52740       7   52749   52746       6
   52752   52746       6   52752   52749       7   52758   52755       6   52761
   52755       6   52761   52758       7   52767   52764       6   52770   52764
       6   52770   52767       7   52776   52773       6   52779   52773       6
   52779   52776       7   52785   52782       6   52788   52782       6   52788
   52785       7   52794   52791       6   52797   52791       6   52797   52794
       7   52803   52800       6   52806   52800       6   52806   52803       7
   52812   52809       6   52815   52809       6   52815   52812       7   52821
   52818       6   52824   52818       6   52824   52821       7   52830   52827
       6   52833   52827       6   52833   52830       7   52839   52836       6
   52842   52836       6   52842   52839       7   52848   52845       6   52851
   52845       6   52851   52848       7   52857   52854       6   52860   52854
       6   52860   52857       7   52866   52863       6   52869   52863       6
   52869   52866       7   52875   52872       6   52878   52872       6   52878
   52875       7   52884   52881       6   52887   52881       6   52887   52884
       7   52893   52890       6   52896   52890       6   52896   52893       7
   52902   52899       6   52905   52899       6   52905   52902       7   52911
   52908       6   52914   52908       6   52914   52911       7   52920   52917
       6   52923   52917       6   52923   52920       7   52929   52926       6
   52932   52926       6   52932   52929       7   52938   52935       6   52941
   52935       6   52941   52938       7   52947   52944       6   52950   52944
       6   52950   52947       7   52956   52953       6   52959   52953       6
   52959   52956       7   52965   52962       6   52968   52962       6   52968
   52965       7   52974   52971       6   52977   52971       6   52977   52974
       7   52983   52980       6   52986   52980       6   52986   52983       7
   52992   52989       6   52995   52989       6   52995   52992       7   53001
   52998       6   53004   52998       6   53004   53001       7   53010   53007
       6   53013   53007       6   53013   53010       7   53019   53016       6
   53022   53016       6   53022   53019       7   53028   53025       6   53031
   53025       6   53031   53028       7   53037   53034       6   53040   53034
       6   53040   53037       7   53046   53043       6   53049   53043       6
   53049   53046       7   53055   53052       6   53058   53052       6   53058
   53055       7   53064   53061       6   53067   53061       6   53067   53064
       7   53073   53070       6   53076   53070       6   53076   53073       7
   53082   53079       6   53085   53079       6   53085   53082       7   53091
   53088       6   53094   53088       6   53094   53091       7   53100   53097
       6   53103   53097       6   53103   53100       7   53109   53106       6
   53112   53106       6   53112   53109       7   53118   53115       6   53121
   53115       6   53121   53118       7   53127   53124       6   53130   53124
       6   53130   53127       7   53136   53133       6   53139   53133       6
   53139   53136       7   53145   53142       6   53148   53142       6   53148
   53145       7   53154   53151       6   53157   53151       6   53157   53154
       7   53163   53160       6   53166   53160       6   53166   53163       7
   53172   53169       6   53175   53169       6   53175   53172       7   53181
   53178       6   53184   53178       6   53184   53181       7   53190   53187
       6   53193   53187       6   53193   53190       7   53199   53196       6
   53202   53196       6   53202   53199       7   53208   53205       6   53211
   53205       6   53211   53208       7   53217   53214       6   53220   53214
       6   53220   53217       7   53226   53223       6   53229   53223       6
   53229   53226       7   53235   53232       6   53238   53232       6   53238
   53235       7   53244   53241       6   53247   53241       6   53247   53244
       7   53253   53250       6   53256   53250       6   53256   53253       7
   53262   53259       6   53265   53259       6   53265   53262       7   53271
   53268       6   53274   53268       6   53274   53271       7   53280   53277
       6   53283   53277       6   53283   53280       7   53289   53286       6
   53292   53286       6   53292   53289       7   53298   53295       6   53301
   53295       6   53301   53298       7   53307   53304       6   53310   53304
       6   53310   53307       7   53316   53313       6   53319   53313       6
   53319   53316       7   53325   53322       6   53328   53322       6   53328
   53325       7   53334   53331       6   53337   53331       6   53337   53334
       7   53343   53340       6   53346   53340       6   53346   53343       7
   53352   53349       6   53355   53349       6   53355   53352       7   53361
   53358       6   53364   53358       6   53364   53361       7   53370   53367
       6   53373   53367       6   53373   53370       7   53379   53376       6
   53382   53376       6   53382   53379       7   53388   53385       6   53391
   53385       6   53391   53388       7   53397   53394       6   53400   53394
       6   53400   53397       7   53406   53403       6   53409   53403       6
   53409   53406       7   53415   53412       6   53418   53412       6   53418
   53415       7   53424   53421       6   53427   53421       6   53427   53424
       7   53433   53430       6   53436   53430       6   53436   53433       7
   53442   53439       6   53445   53439       6   53445   53442       7   53451
   53448       6   53454   53448       6   53454   53451       7   53460   53457
       6   53463   53457       6   53463   53460       7   53469   53466       6
   53472   53466       6   53472   53469       7   53478   53475       6   53481
   53475       6   53481   53478       7   53487   53484       6   53490   53484
       6   53490   53487       7   53496   53493       6   53499   53493       6
   53499   53496       7   53505   53502       6   53508   53502       6   53508
   53505       7   53514   53511       6   53517   53511       6   53517   53514
       7   53523   53520       6   53526   53520       6   53526   53523       7
   53532   53529       6   53535   53529       6   53535   53532       7   53541
   53538       6   53544   53538       6   53544   53541       7   53550   53547
       6   53553   53547       6   53553   53550       7   53559   53556       6
   53562   53556       6   53562   53559       7   53568   53565       6   53571
   53565       6   53571   53568       7   53577   53574       6   53580   53574
       6   53580   53577       7   53586   53583       6   53589   53583       6
   53589   53586       7   53595   53592       6   53598   53592       6   53598
   53595       7   53604   53601       6   53607   53601       6   53607   53604
       7   53613   53610       6   53616   53610       6   53616   53613       7
   53622   53619       6   53625   53619       6   53625   53622       7   53631
   53628       6   53634   53628       6   53634   53631       7   53640   53637
       6   53643   53637       6   53643   53640       7   53649   53646       6
   53652   53646       6   53652   53649       7   53658   53655       6   53661
   53655       6   53661   53658       7   53667   53664       6   53670   53664
       6   53670   53667       7   53676   53673       6   53679   53673       6
   53679   53676       7   53685   53682       6   53688   53682       6   53688
   53685       7   53694   53691       6   53697   53691       6   53697   53694
       7   53703   53700       6   53706   53700       6   53706   53703       7
   53712   53709       6   53715   53709       6   53715   53712       7   53721
   53718       6   53724   53718       6   53724   53721       7   53730   53727
       6   53733   53727       6   53733   53730       7   53739   53736       6
   53742   53736       6   53742   53739       7   53748   53745       6   53751
   53745       6   53751   53748       7   53757   53754       6   53760   53754
       6   53760   53757       7   53766   53763       6   53769   53763       6
   53769   53766       7   53775   53772       6   53778   53772       6   53778
   53775       7   53784   53781       6   53787   53781       6   53787   53784
       7   53793   53790       6   53796   53790       6   53796   53793       7
   53802   53799       6   53805   53799       6   53805   53802       7   53811
   53808       6   53814   53808       6   53814   53811       7   53820   53817
       6   53823   53817       6   53823   53820       7   53829   53826       6
   53832   53826       6   53832   53829       7   53838   53835       6   53841
   53835       6   53841   53838       7   53847   53844       6   53850   53844
       6   53850   53847       7   53856   53853       6   53859   53853       6
   53859   53856       7   53865   53862       6   53868   53862       6   53868
   53865       7   53874   53871       6   53877   53871       6   53877   53874
       7   53883   53880       6   53886   53880       6   53886   53883       7
   53892   53889       6   53895   53889       6   53895   53892       7   53901
   53898       6   53904   53898       6   53904   53901       7   53910   53907
       6   53913   53907       6   53913   53910       7   53919   53916       6
   53922   53916       6   53922   53919       7   53928   53925       6   53931
   53925       6   53931   53928       7   53937   53934       6   53940   53934
       6   53940   53937       7   53946   53943       6   53949   53943       6
   53949   53946       7   53955   53952       6   53958   53952       6   53958
   53955       7   53964   53961       6   53967   53961       6   53967   53964
       7   53973   53970       6   53976   53970       6   53976   53973       7
   53982   53979       6   53985   53979       6   53985   53982       7   53991
   53988       6   53994   53988       6   53994   53991       7   54000   53997
       6   54003   53997       6   54003   54000       7   54009   54006       6
   54012   54006       6   54012   54009       7   54018   54015       6   54021
   54015       6   54021   54018       7   54027   54024       6   54030   54024
       6   54030   54027       7   54036   54033       6   54039   54033       6
   54039   54036       7   54045   54042       6   54048   54042       6   54048
   54045       7   54054   54051       6   54057   54051       6   54057   54054
       7   54063   54060       6   54066   54060       6   54066   54063       7
   54072   54069       6   54075   54069       6   54075   54072       7   54081
   54078       6   54084   54078       6   54084   54081       7   54090   54087
       6   54093   54087       6   54093   54090       7   54099   54096       6
   54102   54096       6   54102   54099       7   54108   54105       6   54111
   54105       6   54111   54108       7   54117   54114       6   54120   54114
       6   54120   54117       7   54126   54123       6   54129   54123       6
   54129   54126       7   54135   54132       6   54138   54132       6   54138
   54135       7   54144   54141       6   54147   54141       6   54147   54144
       7   54153   54150       6   54156   54150       6   54156   54153       7
   54162   54159       6   54165   54159       6   54165   54162       7   54171
   54168       6   54174   54168       6   54174   54171       7   54180   54177
       6   54183   54177       6   54183   54180       7   54189   54186       6
   54192   54186       6   54192   54189       7   54198   54195       6   54201
   54195       6   54201   54198       7   54207   54204       6   54210   54204
       6   54210   54207       7   54216   54213       6   54219   54213       6
   54219   54216       7   54225   54222       6   54228   54222       6   54228
   54225       7   54234   54231       6   54237   54231       6   54237   54234
       7   54243   54240       6   54246   54240       6   54246   54243       7
   54252   54249       6   54255   54249       6   54255   54252       7   54261
   54258       6   54264   54258       6   54264   54261       7   54270   54267
       6   54273   54267       6   54273   54270       7   54279   54276       6
   54282   54276       6   54282   54279       7   54288   54285       6   54291
   54285       6   54291   54288       7   54297   54294       6   54300   54294
       6   54300   54297       7   54306   54303       6   54309   54303       6
   54309   54306       7   54315   54312       6   54318   54312       6   54318
   54315       7   54324   54321       6   54327   54321       6   54327   54324
       7   54333   54330       6   54336   54330       6   54336   54333       7
   54342   54339       6   54345   54339       6   54345   54342       7   54351
   54348       6   54354   54348       6   54354   54351       7   54360   54357
       6   54363   54357       6   54363   54360       7   54369   54366       6
   54372   54366       6   54372   54369       7   54378   54375       6   54381
   54375       6   54381   54378       7   54387   54384       6   54390   54384
       6   54390   54387       7   54396   54393       6   54399   54393       6
   54399   54396       7   54405   54402       6   54408   54402       6   54408
   54405       7   54414   54411       6   54417   54411       6   54417   54414
       7   54423   54420       6   54426   54420       6   54426   54423       7
   54432   54429       6   54435   54429       6   54435   54432       7   54441
   54438       6   54444   54438       6   54444   54441       7   54450   54447
       6   54453   54447       6   54453   54450       7   54459   54456       6
   54462   54456       6   54462   54459       7   54468   54465       6   54471
   54465       6   54471   54468       7   54477   54474       6   54480   54474
       6   54480   54477       7   54486   54483       6   54489   54483       6
   54489   54486       7   54495   54492       6   54498   54492       6   54498
   54495       7   54504   54501       6   54507   54501       6   54507   54504
       7   54513   54510       6   54516   54510       6   54516   54513       7
   54522   54519       6   54525   54519       6   54525   54522       7   54531
   54528       6   54534   54528       6   54534   54531       7   54540   54537
       6   54543   54537       6   54543   54540       7   54549   54546       6
   54552   54546       6   54552   54549       7   54558   54555       6   54561
   54555       6   54561   54558       7   54567   54564       6   54570   54564
       6   54570   54567       7   54576   54573       6   54579   54573       6
   54579   54576       7   54585   54582       6   54588   54582       6   54588
   54585       7   54594   54591       6   54597   54591       6   54597   54594
       7   54603   54600       6   54606   54600       6   54606   54603       7
   54612   54609       6   54615   54609       6   54615   54612       7   54621
   54618       6   54624   54618       6   54624   54621       7   54630   54627
       6   54633   54627       6   54633   54630       7   54639   54636       6
   54642   54636       6   54642   54639       7   54648   54645       6   54651
   54645       6   54651   54648       7   54657   54654       6   54660   54654
       6   54660   54657       7   54666   54663       6   54669   54663       6
   54669   54666       7   54675   54672       6   54678   54672       6   54678
   54675       7   54684   54681       6   54687   54681       6   54687   54684
       7   54693   54690       6   54696   54690       6   54696   54693       7
   54702   54699       6   54705   54699       6   54705   54702       7   54711
   54708       6   54714   54708       6   54714   54711       7   54720   54717
       6   54723   54717       6   54723   54720       7   54729   54726       6
   54732   54726       6   54732   54729       7   54738   54735       6   54741
   54735       6   54741   54738       7   54747   54744       6   54750   54744
       6   54750   54747       7   54756   54753       6   54759   54753       6
   54759   54756       7   54765   54762       6   54768   54762       6   54768
   54765       7   54774   54771       6   54777   54771       6   54777   54774
       7   54783   54780       6   54786   54780       6   54786   54783       7
   54792   54789       6   54795   54789       6   54795   54792       7   54801
   54798       6   54804   54798       6   54804   54801       7   54810   54807
       6   54813   54807       6   54813   54810       7   54819   54816       6
   54822   54816       6   54822   54819       7   54828   54825       6   54831
   54825       6   54831   54828       7   54837   54834       6   54840   54834
       6   54840   54837       7   54846   54843       6   54849   54843       6
   54849   54846       7   54855   54852       6   54858   54852       6   54858
   54855       7   54864   54861       6   54867   54861       6   54867   54864
       7   54873   54870       6   54876   54870       6   54876   54873       7
   54882   54879       6   54885   54879       6   54885   54882       7   54891
   54888       6   54894   54888       6   54894   54891       7   54900   54897
       6   54903   54897       6   54903   54900       7   54909   54906       6
   54912   54906       6   54912   54909       7   54918   54915       6   54921
   54915       6   54921   54918       7   54927   54924       6   54930   54924
       6   54930   54927       7   54936   54933       6   54939   54933       6
   54939   54936       7   54945   54942       6   54948   54942       6   54948
   54945       7   54954   54951       6   54957   54951       6   54957   54954
       7   54963   54960       6   54966   54960       6   54966   54963       7
   54972   54969       6   54975   54969       6   54975   54972       7   54981
   54978       6   54984   54978       6   54984   54981       7   54990   54987
       6   54993   54987       6   54993   54990       7   54999   54996       6
   55002   54996       6   55002   54999       7   55008   55005       6   55011
   55005       6   55011   55008       7   55017   55014       6   55020   55014
       6   55020   55017       7   55026   55023       6   55029   55023       6
   55029   55026       7   55035   55032       6   55038   55032       6   55038
   55035       7   55044   55041       6   55047   55041       6   55047   55044
       7   55053   55050       6   55056   55050       6   55056   55053       7
   55062   55059       6   55065   55059       6   55065   55062       7   55071
   55068       6   55074   55068       6   55074   55071       7   55080   55077
       6   55083   55077       6   55083   55080       7   55089   55086       6
   55092   55086       6   55092   55089       7   55098   55095       6   55101
   55095       6   55101   55098       7   55107   55104       6   55110   55104
       6   55110   55107       7   55116   55113       6   55119   55113       6
   55119   55116       7   55125   55122       6   55128   55122       6   55128
   55125       7   55134   55131       6   55137   55131       6   55137   55134
       7   55143   55140       6   55146   55140       6   55146   55143       7
   55152   55149       6   55155   55149       6   55155   55152       7   55161
   55158       6   55164   55158       6   55164   55161       7   55170   55167
       6   55173   55167       6   55173   55170       7   55179   55176       6
   55182   55176       6   55182   55179       7   55188   55185       6   55191
   55185       6   55191   55188       7   55197   55194       6   55200   55194
       6   55200   55197       7   55206   55203       6   55209   55203       6
   55209   55206       7   55215   55212       6   55218   55212       6   55218
   55215       7   55224   55221       6   55227   55221       6   55227   55224
       7   55233   55230       6   55236   55230       6   55236   55233       7
   55242   55239       6   55245   55239       6   55245   55242       7   55251
   55248       6   55254   55248       6   55254   55251       7   55260   55257
       6   55263   55257       6   55263   55260       7   55269   55266       6
   55272   55266       6   55272   55269       7   55278   55275       6   55281
   55275       6   55281   55278       7   55287   55284       6   55290   55284
       6   55290   55287       7   55296   55293       6   55299   55293       6
   55299   55296       7   55305   55302       6   55308   55302       6   55308
   55305       7   55314   55311       6   55317   55311       6   55317   55314
       7   55323   55320       6   55326   55320       6   55326   55323       7
   55332   55329       6   55335   55329       6   55335   55332       7   55341
   55338       6   55344   55338       6   55344   55341       7   55350   55347
       6   55353   55347       6   55353   55350       7   55359   55356       6
   55362   55356       6   55362   55359       7   55368   55365       6   55371
   55365       6   55371   55368       7   55377   55374       6   55380   55374
       6   55380   55377       7   55386   55383       6   55389   55383       6
   55389   55386       7   55395   55392       6   55398   55392       6   55398
   55395       7   55404   55401       6   55407   55401       6   55407   55404
       7   55413   55410       6   55416   55410       6   55416   55413       7
   55422   55419       6   55425   55419       6   55425   55422       7   55431
   55428       6   55434   55428       6   55434   55431       7   55440   55437
       6   55443   55437       6   55443   55440       7   55449   55446       6
   55452   55446       6   55452   55449       7   55458   55455       6   55461
   55455       6   55461   55458       7   55467   55464       6   55470   55464
       6   55470   55467       7   55476   55473       6   55479   55473       6
   55479   55476       7   55485   55482       6   55488   55482       6   55488
   55485       7   55494   55491       6   55497   55491       6   55497   55494
       7   55503   55500       6   55506   55500       6   55506   55503       7
   55512   55509       6   55515   55509       6   55515   55512       7   55521
   55518       6   55524   55518       6   55524   55521       7   55530   55527
       6   55533   55527       6   55533   55530       7   55539   55536       6
   55542   55536       6   55542   55539       7   55548   55545       6   55551
   55545       6   55551   55548       7   55557   55554       6   55560   55554
       6   55560   55557       7   55566   55563       6   55569   55563       6
   55569   55566       7   55575   55572       6   55578   55572       6   55578
   55575       7   55584   55581       6   55587   55581       6   55587   55584
       7   55593   55590       6   55596   55590       6   55596   55593       7
   55602   55599       6   55605   55599       6   55605   55602       7   55611
   55608       6   55614   55608       6   55614   55611       7   55620   55617
       6   55623   55617       6   55623   55620       7   55629   55626       6
   55632   55626       6   55632   55629       7   55638   55635       6   55641
   55635       6   55641   55638       7   55647   55644       6   55650   55644
       6   55650   55647       7   55656   55653       6   55659   55653       6
   55659   55656       7   55665   55662       6   55668   55662       6   55668
   55665       7   55674   55671       6   55677   55671       6   55677   55674
       7   55683   55680       6   55686   55680       6   55686   55683       7
   55692   55689       6   55695   55689       6   55695   55692       7   55701
   55698       6   55704   55698       6   55704   55701       7   55710   55707
       6   55713   55707       6   55713   55710       7   55719   55716       6
   55722   55716       6   55722   55719       7   55728   55725       6   55731
   55725       6   55731   55728       7   55737   55734       6   55740   55734
       6   55740   55737       7   55746   55743       6   55749   55743       6
   55749   55746       7   55755   55752       6   55758   55752       6   55758
   55755       7   55764   55761       6   55767   55761       6   55767   55764
       7   55773   55770       6   55776   55770       6   55776   55773       7
   55782   55779       6   55785   55779       6   55785   55782       7   55791
   55788       6   55794   55788       6   55794   55791       7   55800   55797
       6   55803   55797       6   55803   55800       7   55809   55806       6
   55812   55806       6   55812   55809       7   55818   55815       6   55821
   55815       6   55821   55818       7   55827   55824       6   55830   55824
       6   55830   55827       7   55836   55833       6   55839   55833       6
   55839   55836       7   55845   55842       6   55848   55842       6   55848
   55845       7   55854   55851       6   55857   55851       6   55857   55854
       7   55863   55860       6   55866   55860       6   55866   55863       7
   55872   55869       6   55875   55869       6   55875   55872       7   55881
   55878       6   55884   55878       6   55884   55881       7   55890   55887
       6   55893   55887       6   55893   55890       7   55899   55896       6
   55902   55896       6   55902   55899       7   55908   55905       6   55911
   55905       6   55911   55908       7   55917   55914       6   55920   55914
       6   55920   55917       7   55926   55923       6   55929   55923       6
   55929   55926       7   55935   55932       6   55938   55932       6   55938
   55935       7   55944   55941       6   55947   55941       6   55947   55944
       7   55953   55950       6   55956   55950       6   55956   55953       7
   55962   55959       6   55965   55959       6   55965   55962       7   55971
   55968       6   55974   55968       6   55974   55971       7   55980   55977
       6   55983   55977       6   55983   55980       7   55989   55986       6
   55992   55986       6   55992   55989       7   55998   55995       6   56001
   55995       6   56001   55998       7   56007   56004       6   56010   56004
       6   56010   56007       7   56016   56013       6   56019   56013       6
   56019   56016       7   56025   56022       6   56028   56022       6   56028
   56025       7   56034   56031       6   56037   56031       6   56037   56034
       7   56043   56040       6   56046   56040       6   56046   56043       7
   56052   56049       6   56055   56049       6   56055   56052       7   56061
   56058       6   56064   56058       6   56064   56061       7   56070   56067
       6   56073   56067       6   56073   56070       7   56079   56076       6
   56082   56076       6   56082   56079       7   56088   56085       6   56091
   56085       6   56091   56088       7   56097   56094       6   56100   56094
       6   56100   56097       7   56106   56103       6   56109   56103       6
   56109   56106       7   56115   56112       6   56118   56112       6   56118
   56115       7   56124   56121       6   56127   56121       6   56127   56124
       7   56133   56130       6   56136   56130       6   56136   56133       7
   56142   56139       6   56145   56139       6   56145   56142       7   56151
   56148       6   56154   56148       6   56154   56151       7   56160   56157
       6   56163   56157       6   56163   56160       7   56169   56166       6
   56172   56166       6   56172   56169       7   56178   56175       6   56181
   56175       6   56181   56178       7   56187   56184       6   56190   56184
       6   56190   56187       7   56196   56193       6   56199   56193       6
   56199   56196       7   56205   56202       6   56208   56202       6   56208
   56205       7   56214   56211       6   56217   56211       6   56217   56214
       7   56223   56220       6   56226   56220       6   56226   56223       7
   56232   56229       6   56235   56229       6   56235   56232       7   56241
   56238       6   56244   56238       6   56244   56241       7   56250   56247
       6   56253   56247       6   56253   56250       7   56259   56256       6
   56262   56256       6   56262   56259       7   56268   56265       6   56271
   56265       6   56271   56268       7   56277   56274       6   56280   56274
       6   56280   56277       7   56286   56283       6   56289   56283       6
   56289   56286       7   56295   56292       6   56298   56292       6   56298
   56295       7   56304   56301       6   56307   56301       6   56307   56304
       7   56313   56310       6   56316   56310       6   56316   56313       7
   56322   56319       6   56325   56319       6   56325   56322       7   56331
   56328       6   56334   56328       6   56334   56331       7   56340   56337
       6   56343   56337       6   56343   56340       7   56349   56346       6
   56352   56346       6   56352   56349       7   56358   56355       6   56361
   56355       6   56361   56358       7   56367   56364       6   56370   56364
       6   56370   56367       7   56376   56373       6   56379   56373       6
   56379   56376       7   56385   56382       6   56388   56382       6   56388
   56385       7   56394   56391       6   56397   56391       6   56397   56394
       7   56403   56400       6   56406   56400       6   56406   56403       7
   56412   56409       6   56415   56409       6   56415   56412       7   56421
   56418       6   56424   56418       6   56424   56421       7   56430   56427
       6   56433   56427       6   56433   56430       7   56439   56436       6
   56442   56436       6   56442   56439       7   56448   56445       6   56451
   56445       6   56451   56448       7   56457   56454       6   56460   56454
       6   56460   56457       7   56466   56463       6   56469   56463       6
   56469   56466       7   56475   56472       6   56478   56472       6   56478
   56475       7   56484   56481       6   56487   56481       6   56487   56484
       7   56493   56490       6   56496   56490       6   56496   56493       7
   56502   56499       6   56505   56499       6   56505   56502       7   56511
   56508       6   56514   56508       6   56514   56511       7   56520   56517
       6   56523   56517       6   56523   56520       7   56529   56526       6
   56532   56526       6   56532   56529       7   56538   56535       6   56541
   56535       6   56541   56538       7   56547   56544       6   56550   56544
       6   56550   56547       7   56556   56553       6   56559   56553       6
   56559   56556       7   56565   56562       6   56568   56562       6   56568
   56565       7   56574   56571       6   56577   56571       6   56577   56574
       7   56583   56580       6   56586   56580       6   56586   56583       7
   56592   56589       6   56595   56589       6   56595   56592       7   56601
   56598       6   56604   56598       6   56604   56601       7   56610   56607
       6   56613   56607       6   56613   56610       7   56619   56616       6
   56622   56616       6   56622   56619       7   56628   56625       6   56631
   56625       6   56631   56628       7   56637   56634       6   56640   56634
       6   56640   56637       7   56646   56643       6   56649   56643       6
   56649   56646       7   56655   56652       6   56658   56652       6   56658
   56655       7   56664   56661       6   56667   56661       6   56667   56664
       7   56673   56670       6   56676   56670       6   56676   56673       7
   56682   56679       6   56685   56679       6   56685   56682       7   56691
   56688       6   56694   56688       6   56694   56691       7   56700   56697
       6   56703   56697       6   56703   56700       7   56709   56706       6
   56712   56706       6   56712   56709       7   56718   56715       6   56721
   56715       6   56721   56718       7   56727   56724       6   56730   56724
       6   56730   56727       7   56736   56733       6   56739   56733       6
   56739   56736       7   56745   56742       6   56748   56742       6   56748
   56745       7   56754   56751       6   56757   56751       6   56757   56754
       7   56763   56760       6   56766   56760       6   56766   56763       7
   56772   56769       6   56775   56769       6   56775   56772       7   56781
   56778       6   56784   56778       6   56784   56781       7   56790   56787
       6   56793   56787       6   56793   56790       7   56799   56796       6
   56802   56796       6   56802   56799       7   56808   56805       6   56811
   56805       6   56811   56808       7   56817   56814       6   56820   56814
       6   56820   56817       7   56826   56823       6   56829   56823       6
   56829   56826       7   56835   56832       6   56838   56832       6   56838
   56835       7   56844   56841       6   56847   56841       6   56847   56844
       7   56853   56850       6   56856   56850       6   56856   56853       7
   56862   56859       6   56865   56859       6   56865   56862       7   56871
   56868       6   56874   56868       6   56874   56871       7   56880   56877
       6   56883   56877       6   56883   56880       7   56889   56886       6
   56892   56886       6   56892   56889       7   56898   56895       6   56901
   56895       6   56901   56898       7   56907   56904       6   56910   56904
       6   56910   56907       7   56916   56913       6   56919   56913       6
   56919   56916       7   56925   56922       6   56928   56922       6   56928
   56925       7   56934   56931       6   56937   56931       6   56937   56934
       7   56943   56940       6   56946   56940       6   56946   56943       7
   56952   56949       6   56955   56949       6   56955   56952       7   56961
   56958       6   56964   56958       6   56964   56961       7   56970   56967
       6   56973   56967       6   56973   56970       7   56979   56976       6
   56982   56976       6   56982   56979       7   56988   56985       6   56991
   56985       6   56991   56988       7   56997   56994       6   57000   56994
       6   57000   56997       7   57006   57003       6   57009   57003       6
   57009   57006       7   57015   57012       6   57018   57012       6   57018
   57015       7   57024   57021       6   57027   57021       6   57027   57024
       7   57033   57030       6   57036   57030       6   57036   57033       7
   57042   57039       6   57045   57039       6   57045   57042       7   57051
   57048       6   57054   57048       6   57054   57051       7   57060   57057
       6   57063   57057       6   57063   57060       7   57069   57066       6
   57072   57066       6   57072   57069       7   57078   57075       6   57081
   57075       6   57081   57078       7   57087   57084       6   57090   57084
       6   57090   57087       7   57096   57093       6   57099   57093       6
   57099   57096       7   57105   57102       6   57108   57102       6   57108
   57105       7   57114   57111       6   57117   57111       6   57117   57114
       7   57123   57120       6   57126   57120       6   57126   57123       7
   57132   57129       6   57135   57129       6   57135   57132       7   57141
   57138       6   57144   57138       6   57144   57141       7   57150   57147
       6   57153   57147       6   57153   57150       7   57159   57156       6
   57162   57156       6   57162   57159       7   57168   57165       6   57171
   57165       6   57171   57168       7   57177   57174       6   57180   57174
       6   57180   57177       7   57186   57183       6   57189   57183       6
   57189   57186       7   57195   57192       6   57198   57192       6   57198
   57195       7   57204   57201       6   57207   57201       6   57207   57204
       7   57213   57210       6   57216   57210       6   57216   57213       7
   57222   57219       6   57225   57219       6   57225   57222       7   57231
   57228       6   57234   57228       6   57234   57231       7   57240   57237
       6   57243   57237       6   57243   57240       7   57249   57246       6
   57252   57246       6   57252   57249       7   57258   57255       6   57261
   57255       6   57261   57258       7   57267   57264       6   57270   57264
       6   57270   57267       7   57276   57273       6   57279   57273       6
   57279   57276       7   57285   57282       6   57288   57282       6   57288
   57285       7   57294   57291       6   57297   57291       6   57297   57294
       7   57303   57300       6   57306   57300       6   57306   57303       7
   57312   57309       6   57315   57309       6   57315   57312       7   57321
   57318       6   57324   57318       6   57324   57321       7   57330   57327
       6   57333   57327       6   57333   57330       7   57339   57336       6
   57342   57336       6   57342   57339       7   57348   57345       6   57351
   57345       6   57351   57348       7   57357   57354       6   57360   57354
       6   57360   57357       7   57366   57363       6   57369   57363       6
   57369   57366       7   57375   57372       6   57378   57372       6   57378
   57375       7   57384   57381       6   57387   57381       6   57387   57384
       7   57393   57390       6   57396   57390       6   57396   57393       7
   57402   57399       6   57405   57399       6   57405   57402       7   57411
   57408       6   57414   57408       6   57414   57411       7   57420   57417
       6   57423   57417       6   57423   57420       7   57429   57426       6
   57432   57426       6   57432   57429       7   57438   57435       6   57441
   57435       6   57441   57438       7   57447   57444       6   57450   57444
       6   57450   57447       7   57456   57453       6   57459   57453       6
   57459   57456       7   57465   57462       6   57468   57462       6   57468
   57465       7   57474   57471       6   57477   57471       6   57477   57474
       7   57483   57480       6   57486   57480       6   57486   57483       7
   57492   57489       6   57495   57489       6   57495   57492       7   57501
   57498       6   57504   57498       6   57504   57501       7   57510   57507
       6   57513   57507       6   57513   57510       7   57519   57516       6
   57522   57516       6   57522   57519       7   57528   57525       6   57531
   57525       6   57531   57528       7   57537   57534       6   57540   57534
       6   57540   57537       7   57546   57543       6   57549   57543       6
   57549   57546       7   57555   57552       6   57558   57552       6   57558
   57555       7   57564   57561       6   57567   57561       6   57567   57564
       7   57573   57570       6   57576   57570       6   57576   57573       7
   57582   57579       6   57585   57579       6   57585   57582       7   57591
   57588       6   57594   57588       6   57594   57591       7   57600   57597
       6   57603   57597       6   57603   57600       7   57609   57606       6
   57612   57606       6   57612   57609       7   57618   57615       6   57621
   57615       6   57621   57618       7   57627   57624       6   57630   57624
       6   57630   57627       7   57636   57633       6   57639   57633       6
   57639   57636       7   57645   57642       6   57648   57642       6   57648
   57645       7   57654   57651       6   57657   57651       6   57657   57654
       7   57663   57660       6   57666   57660       6   57666   57663       7
   57672   57669       6   57675   57669       6   57675   57672       7   57681
   57678       6   57684   57678       6   57684   57681       7   57690   57687
       6   57693   57687       6   57693   57690       7   57699   57696       6
   57702   57696       6   57702   57699       7   57708   57705       6   57711
   57705       6   57711   57708       7   57717   57714       6   57720   57714
       6   57720   57717       7   57726   57723       6   57729   57723       6
   57729   57726       7   57735   57732       6   57738   57732       6   57738
   57735       7   57744   57741       6   57747   57741       6   57747   57744
       7   57753   57750       6   57756   57750       6   57756   57753       7
   57762   57759       6   57765   57759       6   57765   57762       7   57771
   57768       6   57774   57768       6   57774   57771       7   57780   57777
       6   57783   57777       6   57783   57780       7   57789   57786       6
   57792   57786       6   57792   57789       7   57798   57795       6   57801
   57795       6   57801   57798       7   57807   57804       6   57810   57804
       6   57810   57807       7   57816   57813       6   57819   57813       6
   57819   57816       7   57825   57822       6   57828   57822       6   57828
   57825       7   57834   57831       6   57837   57831       6   57837   57834
       7   57843   57840       6   57846   57840       6   57846   57843       7
   57852   57849       6   57855   57849       6   57855   57852       7   57861
   57858       6   57864   57858       6   57864   57861       7   57870   57867
       6   57873   57867       6   57873   57870       7   57879   57876       6
   57882   57876       6   57882   57879       7   57888   57885       6   57891
   57885       6   57891   57888       7   57897   57894       6   57900   57894
       6   57900   57897       7   57906   57903       6   57909   57903       6
   57909   57906       7   57915   57912       6   57918   57912       6   57918
   57915       7   57924   57921       6   57927   57921       6   57927   57924
       7   57933   57930       6   57936   57930       6   57936   57933       7
   57942   57939       6   57945   57939       6   57945   57942       7   57951
   57948       6   57954   57948       6   57954   57951       7   57960   57957
       6   57963   57957       6   57963   57960       7   57969   57966       6
   57972   57966       6   57972   57969       7   57978   57975       6   57981
   57975       6   57981   57978       7   57987   57984       6   57990   57984
       6   57990   57987       7   57996   57993       6   57999   57993       6
   57999   57996       7   58005   58002       6   58008   58002       6   58008
   58005       7   58014   58011       6   58017   58011       6   58017   58014
       7   58023   58020       6   58026   58020       6   58026   58023       7
   58032   58029       6   58035   58029       6   58035   58032       7   58041
   58038       6   58044   58038       6   58044   58041       7   58050   58047
       6   58053   58047       6   58053   58050       7   58059   58056       6
   58062   58056       6   58062   58059       7   58068   58065       6   58071
   58065       6   58071   58068       7   58077   58074       6   58080   58074
       6   58080   58077       7   58086   58083       6   58089   58083       6
   58089   58086       7   58095   58092       6   58098   58092       6   58098
   58095       7   58104   58101       6   58107   58101       6   58107   58104
       7   58113   58110       6   58116   58110       6   58116   58113       7
   58122   58119       6   58125   58119       6   58125   58122       7   58131
   58128       6   58134   58128       6   58134   58131       7   58140   58137
       6   58143   58137       6   58143   58140       7   58149   58146       6
   58152   58146       6   58152   58149       7   58158   58155       6   58161
   58155       6   58161   58158       7   58167   58164       6   58170   58164
       6   58170   58167       7   58176   58173       6   58179   58173       6
   58179   58176       7   58185   58182       6   58188   58182       6   58188
   58185       7   58194   58191       6   58197   58191       6   58197   58194
       7   58203   58200       6   58206   58200       6   58206   58203       7
   58212   58209       6   58215   58209       6   58215   58212       7   58221
   58218       6   58224   58218       6   58224   58221       7   58230   58227
       6   58233   58227       6   58233   58230       7   58239   58236       6
   58242   58236       6   58242   58239       7   58248   58245       6   58251
   58245       6   58251   58248       7   58257   58254       6   58260   58254
       6   58260   58257       7   58266   58263       6   58269   58263       6
   58269   58266       7   58275   58272       6   58278   58272       6   58278
   58275       7   58284   58281       6   58287   58281       6   58287   58284
       7   58293   58290       6   58296   58290       6   58296   58293       7
   58302   58299       6   58305   58299       6   58305   58302       7   58311
   58308       6   58314   58308       6   58314   58311       7   58320   58317
       6   58323   58317       6   58323   58320       7   58329   58326       6
   58332   58326       6   58332   58329       7   58338   58335       6   58341
   58335       6   58341   58338       7   58347   58344       6   58350   58344
       6   58350   58347       7   58356   58353       6   58359   58353       6
   58359   58356       7   58365   58362       6   58368   58362       6   58368
   58365       7   58374   58371       6   58377   58371       6   58377   58374
       7   58383   58380       6   58386   58380       6   58386   58383       7
   58392   58389       6   58395   58389       6   58395   58392       7   58401
   58398       6   58404   58398       6   58404   58401       7   58410   58407
       6   58413   58407       6   58413   58410       7   58419   58416       6
   58422   58416       6   58422   58419       7   58428   58425       6   58431
   58425       6   58431   58428       7   58437   58434       6   58440   58434
       6   58440   58437       7   58446   58443       6   58449   58443       6
   58449   58446       7   58455   58452       6   58458   58452       6   58458
   58455       7   58464   58461       6   58467   58461       6   58467   58464
       7   58473   58470       6   58476   58470       6   58476   58473       7
   58482   58479       6   58485   58479       6   58485   58482       7   58491
   58488       6   58494   58488       6   58494   58491       7   58500   58497
       6   58503   58497       6   58503   58500       7   58509   58506       6
   58512   58506       6   58512   58509       7   58518   58515       6   58521
   58515       6   58521   58518       7   58527   58524       6   58530   58524
       6   58530   58527       7   58536   58533       6   58539   58533       6
   58539   58536       7   58545   58542       6   58548   58542       6   58548
   58545       7   58554   58551       6   58557   58551       6   58557   58554
       7   58563   58560       6   58566   58560       6   58566   58563       7
   58572   58569       6   58575   58569       6   58575   58572       7   58581
   58578       6   58584   58578       6   58584   58581       7   58590   58587
       6   58593   58587       6   58593   58590       7   58599   58596       6
   58602   58596       6   58602   58599       7   58608   58605       6   58611
   58605       6   58611   58608       7   58617   58614       6   58620   58614
       6   58620   58617       7   58626   58623       6   58629   58623       6
   58629   58626       7   58635   58632       6   58638   58632       6   58638
   58635       7   58644   58641       6   58647   58641       6   58647   58644
       7   58653   58650       6   58656   58650       6   58656   58653       7
   58662   58659       6   58665   58659       6   58665   58662       7   58671
   58668       6   58674   58668       6   58674   58671       7   58680   58677
       6   58683   58677       6   58683   58680       7   58689   58686       6
   58692   58686       6   58692   58689       7   58698   58695       6   58701
   58695       6   58701   58698       7   58707   58704       6   58710   58704
       6   58710   58707       7   58716   58713       6   58719   58713       6
   58719   58716       7   58725   58722       6   58728   58722       6   58728
   58725       7   58734   58731       6   58737   58731       6   58737   58734
       7   58743   58740       6   58746   58740       6   58746   58743       7
   58752   58749       6   58755   58749       6   58755   58752       7   58761
   58758       6   58764   58758       6   58764   58761       7   58770   58767
       6   58773   58767       6   58773   58770       7   58779   58776       6
   58782   58776       6   58782   58779       7   58788   58785       6   58791
   58785       6   58791   58788       7   58797   58794       6   58800   58794
       6   58800   58797       7   58806   58803       6   58809   58803       6
   58809   58806       7   58815   58812       6   58818   58812       6   58818
   58815       7   58824   58821       6   58827   58821       6   58827   58824
       7   58833   58830       6   58836   58830       6   58836   58833       7
   58842   58839       6   58845   58839       6   58845   58842       7   58851
   58848       6   58854   58848       6   58854   58851       7   58860   58857
       6   58863   58857       6   58863   58860       7   58869   58866       6
   58872   58866       6   58872   58869       7   58878   58875       6   58881
   58875       6   58881   58878       7   58887   58884       6   58890   58884
       6   58890   58887       7   58896   58893       6   58899   58893       6
   58899   58896       7   58905   58902       6   58908   58902       6   58908
   58905       7   58914   58911       6   58917   58911       6   58917   58914
       7   58923   58920       6   58926   58920       6   58926   58923       7
   58932   58929       6   58935   58929       6   58935   58932       7   58941
   58938       6   58944   58938       6   58944   58941       7   58950   58947
       6   58953   58947       6   58953   58950       7   58959   58956       6
   58962   58956       6   58962   58959       7   58968   58965       6   58971
   58965       6   58971   58968       7   58977   58974       6   58980   58974
       6   58980   58977       7   58986   58983       6   58989   58983       6
   58989   58986       7   58995   58992       6   58998   58992       6   58998
   58995       7   59004   59001       6   59007   59001       6   59007   59004
       7   59013   59010       6   59016   59010       6   59016   59013       7
   59022   59019       6   59025   59019       6   59025   59022       7   59031
   59028       6   59034   59028       6   59034   59031       7   59040   59037
       6   59043   59037       6   59043   59040       7   59049   59046       6
   59052   59046       6   59052   59049       7   59058   59055       6   59061
   59055       6   59061   59058       7   59067   59064       6   59070   59064
       6   59070   59067       7   59076   59073       6   59079   59073       6
   59079   59076       7   59085   59082       6   59088   59082       6   59088
   59085       7   59094   59091       6   59097   59091       6   59097   59094
       7   59103   59100       6   59106   59100       6   59106   59103       7
   59112   59109       6   59115   59109       6   59115   59112       7   59121
   59118       6   59124   59118       6   59124   59121       7   59130   59127
       6   59133   59127       6   59133   59130       7   59139   59136       6
   59142   59136       6   59142   59139       7   59148   59145       6   59151
   59145       6   59151   59148       7   59157   59154       6   59160   59154
       6   59160   59157       7   59166   59163       6   59169   59163       6
   59169   59166       7   59175   59172       6   59178   59172       6   59178
   59175       7   59184   59181       6   59187   59181       6   59187   59184
       7   59193   59190       6   59196   59190       6   59196   59193       7
   59202   59199       6   59205   59199       6   59205   59202       7   59211
   59208       6   59214   59208       6   59214   59211       7   59220   59217
       6   59223   59217       6   59223   59220       7   59229   59226       6
   59232   59226       6   59232   59229       7   59238   59235       6   59241
   59235       6   59241   59238       7   59247   59244       6   59250   59244
       6   59250   59247       7   59256   59253       6   59259   59253       6
   59259   59256       7   59265   59262       6   59268   59262       6   59268
   59265       7   59274   59271       6   59277   59271       6   59277   59274
       7   59283   59280       6   59286   59280       6   59286   59283       7
   59292   59289       6   59295   59289       6   59295   59292       7   59301
   59298       6   59304   59298       6   59304   59301       7   59310   59307
       6   59313   59307       6   59313   59310       7   59319   59316       6
   59322   59316       6   59322   59319       7   59328   59325       6   59331
   59325       6   59331   59328       7   59337   59334       6   59340   59334
       6   59340   59337       7   59346   59343       6   59349   59343       6
   59349   59346       7   59355   59352       6   59358   59352       6   59358
   59355       7   59364   59361       6   59367   59361       6   59367   59364
       7   59373   59370       6   59376   59370       6   59376   59373       7
   59382   59379       6   59385   59379       6   59385   59382       7   59391
   59388       6   59394   59388       6   59394   59391       7   59400   59397
       6   59403   59397       6   59403   59400       7   59409   59406       6
   59412   59406       6   59412   59409       7   59418   59415       6   59421
   59415       6   59421   59418       7   59427   59424       6   59430   59424
       6   59430   59427       7   59436   59433       6   59439   59433       6
   59439   59436       7   59445   59442       6   59448   59442       6   59448
   59445       7   59454   59451       6   59457   59451       6   59457   59454
       7   59463   59460       6   59466   59460       6   59466   59463       7
   59472   59469       6   59475   59469       6   59475   59472       7   59481
   59478       6   59484   59478       6   59484   59481       7   59490   59487
       6   59493   59487       6   59493   59490       7   59499   59496       6
   59502   59496       6   59502   59499       7   59508   59505       6   59511
   59505       6   59511   59508       7   59517   59514       6   59520   59514
       6   59520   59517       7   59526   59523       6   59529   59523       6
   59529   59526       7   59535   59532       6   59538   59532       6   59538
   59535       7   59544   59541       6   59547   59541       6   59547   59544
       7   59553   59550       6   59556   59550       6   59556   59553       7
   59562   59559       6   59565   59559       6   59565   59562       7   59571
   59568       6   59574   59568       6   59574   59571       7   59580   59577
       6   59583   59577       6   59583   59580       7   59589   59586       6
   59592   59586       6   59592   59589       7   59598   59595       6   59601
   59595       6   59601   59598       7   59607   59604       6   59610   59604
       6   59610   59607       7   59616   59613       6   59619   59613       6
   59619   59616       7   59625   59622       6   59628   59622       6   59628
   59625       7   59634   59631       6   59637   59631       6   59637   59634
       7   59643   59640       6   59646   59640       6   59646   59643       7
   59652   59649       6   59655   59649       6   59655   59652       7   59661
   59658       6   59664   59658       6   59664   59661       7   59670   59667
       6   59673   59667       6   59673   59670       7   59679   59676       6
   59682   59676       6   59682   59679       7   59688   59685       6   59691
   59685       6   59691   59688       7   59697   59694       6   59700   59694
       6   59700   59697       7   59706   59703       6   59709   59703       6
   59709   59706       7   59715   59712       6   59718   59712       6   59718
   59715       7   59724   59721       6   59727   59721       6   59727   59724
       7   59733   59730       6   59736   59730       6   59736   59733       7
   59742   59739       6   59745   59739       6   59745   59742       7   59751
   59748       6   59754   59748       6   59754   59751       7   59760   59757
       6   59763   59757       6   59763   59760       7   59769   59766       6
   59772   59766       6   59772   59769       7   59778   59775       6   59781
   59775       6   59781   59778       7   59787   59784       6   59790   59784
       6   59790   59787       7   59796   59793       6   59799   59793       6
   59799   59796       7   59805   59802       6   59808   59802       6   59808
   59805       7   59814   59811       6   59817   59811       6   59817   59814
       7   59823   59820       6   59826   59820       6   59826   59823       7
   59832   59829       6   59835   59829       6   59835   59832       7   59841
   59838       6   59844   59838       6   59844   59841       7   59850   59847
       6   59853   59847       6   59853   59850       7   59859   59856       6
   59862   59856       6   59862   59859       7   59868   59865       6   59871
   59865       6   59871   59868       7   59877   59874       6   59880   59874
       6   59880   59877       7   59886   59883       6   59889   59883       6
   59889   59886       7   59895   59892       6   59898   59892       6   59898
   59895       7   59904   59901       6   59907   59901       6   59907   59904
       7   59913   59910       6   59916   59910       6   59916   59913       7
   59922   59919       6   59925   59919       6   59925   59922       7   59931
   59928       6   59934   59928       6   59934   59931       7   59940   59937
       6   59943   59937       6   59943   59940       7   59949   59946       6
   59952   59946       6   59952   59949       7   59958   59955       6   59961
   59955       6   59961   59958       7   59967   59964       6   59970   59964
       6   59970   59967       7   59976   59973       6   59979   59973       6
   59979   59976       7   59985   59982       6   59988   59982       6   59988
   59985       7   59994   59991       6   59997   59991       6   59997   59994
       7   60003   60000       6   60006   60000       6   60006   60003       7
   60012   60009       6   60015   60009       6   60015   60012       7   60021
   60018       6   60024   60018       6   60024   60021       7   60030   60027
       6   60033   60027       6   60033   60030       7   60039   60036       6
   60042   60036       6   60042   60039       7   60048   60045       6   60051
   60045       6   60051   60048       7   60057   60054       6   60060   60054
       6   60060   60057       7   60066   60063       6   60069   60063       6
   60069   60066       7   60075   60072       6   60078   60072       6   60078
   60075       7   60084   60081       6   60087   60081       6   60087   60084
       7   60093   60090       6   60096   60090       6   60096   60093       7
   60102   60099       6   60105   60099       6   60105   60102       7   60111
   60108       6   60114   60108       6   60114   60111       7   60120   60117
       6   60123   60117       6   60123   60120       7   60129   60126       6
   60132   60126       6   60132   60129       7   60138   60135       6   60141
   60135       6   60141   60138       7   60147   60144       6   60150   60144
       6   60150   60147       7   60156   60153       6   60159   60153       6
   60159   60156       7   60165   60162       6   60168   60162       6   60168
   60165       7   60174   60171       6   60177   60171       6   60177   60174
       7   60183   60180       6   60186   60180       6   60186   60183       7
   60192   60189       6   60195   60189       6   60195   60192       7   60201
   60198       6   60204   60198       6   60204   60201       7   60210   60207
       6   60213   60207       6   60213   60210       7   60219   60216       6
   60222   60216       6   60222   60219       7   60228   60225       6   60231
   60225       6   60231   60228       7   60237   60234       6   60240   60234
       6   60240   60237       7   60246   60243       6   60249   60243       6
   60249   60246       7   60255   60252       6   60258   60252       6   60258
   60255       7   60264   60261       6   60267   60261       6   60267   60264
       7   60273   60270       6   60276   60270       6   60276   60273       7
   60282   60279       6   60285   60279       6   60285   60282       7   60291
   60288       6   60294   60288       6   60294   60291       7   60300   60297
       6   60303   60297       6   60303   60300       7   60309   60306       6
   60312   60306       6   60312   60309       7   60318   60315       6   60321
   60315       6   60321   60318       7   60327   60324       6   60330   60324
       6   60330   60327       7   60336   60333       6   60339   60333       6
   60339   60336       7   60345   60342       6   60348   60342       6   60348
   60345       7   60354   60351       6   60357   60351       6   60357   60354
       7   60363   60360       6   60366   60360       6   60366   60363       7
   60372   60369       6   60375   60369       6   60375   60372       7   60381
   60378       6   60384   60378       6   60384   60381       7   60390   60387
       6   60393   60387       6   60393   60390       7   60399   60396       6
   60402   60396       6   60402   60399       7   60408   60405       6   60411
   60405       6   60411   60408       7   60417   60414       6   60420   60414
       6   60420   60417       7   60426   60423       6   60429   60423       6
   60429   60426       7   60435   60432       6   60438   60432       6   60438
   60435       7   60444   60441       6   60447   60441       6   60447   60444
       7   60453   60450       6   60456   60450       6   60456   60453       7
   60462   60459       6   60465   60459       6   60465   60462       7   60471
   60468       6   60474   60468       6   60474   60471       7   60480   60477
       6   60483   60477       6   60483   60480       7   60489   60486       6
   60492   60486       6   60492   60489       7   60498   60495       6   60501
   60495       6   60501   60498       7   60507   60504       6   60510   60504
       6   60510   60507       7   60516   60513       6   60519   60513       6
   60519   60516       7   60525   60522       6   60528   60522       6   60528
   60525       7   60534   60531       6   60537   60531       6   60537   60534
       7   60543   60540       6   60546   60540       6   60546   60543       7
   60552   60549       6   60555   60549       6   60555   60552       7   60561
   60558       6   60564   60558       6   60564   60561       7   60570   60567
       6   60573   60567       6   60573   60570       7   60579   60576       6
   60582   60576       6   60582   60579       7   60588   60585       6   60591
   60585       6   60591   60588       7   60597   60594       6   60600   60594
       6   60600   60597       7   60606   60603       6   60609   60603       6
   60609   60606       7   60615   60612       6   60618   60612       6   60618
   60615       7   60624   60621       6   60627   60621       6   60627   60624
       7   60633   60630       6   60636   60630       6   60636   60633       7
   60642   60639       6   60645   60639       6   60645   60642       7   60651
   60648       6   60654   60648       6   60654   60651       7   60660   60657
       6   60663   60657       6   60663   60660       7   60669   60666       6
   60672   60666       6   60672   60669       7   60678   60675       6   60681
   60675       6   60681   60678       7   60687   60684       6   60690   60684
       6   60690   60687       7   60696   60693       6   60699   60693       6
   60699   60696       7   60705   60702       6   60708   60702       6   60708
   60705       7   60714   60711       6   60717   60711       6   60717   60714
       7   60723   60720       6   60726   60720       6   60726   60723       7
   60732   60729       6   60735   60729       6   60735   60732       7   60741
   60738       6   60744   60738       6   60744   60741       7   60750   60747
       6   60753   60747       6   60753   60750       7   60759   60756       6
   60762   60756       6   60762   60759       7   60768   60765       6   60771
   60765       6   60771   60768       7   60777   60774       6   60780   60774
       6   60780   60777       7   60786   60783       6   60789   60783       6
   60789   60786       7   60795   60792       6   60798   60792       6   60798
   60795       7   60804   60801       6   60807   60801       6   60807   60804
       7   60813   60810       6   60816   60810       6   60816   60813       7
   60822   60819       6   60825   60819       6   60825   60822       7   60831
   60828       6   60834   60828       6   60834   60831       7   60840   60837
       6   60843   60837       6   60843   60840       7   60849   60846       6
   60852   60846       6   60852   60849       7   60858   60855       6   60861
   60855       6   60861   60858       7   60867   60864       6   60870   60864
       6   60870   60867       7   60876   60873       6   60879   60873       6
   60879   60876       7   60885   60882       6   60888   60882       6   60888
   60885       7   60894   60891       6   60897   60891       6   60897   60894
       7   60903   60900       6   60906   60900       6   60906   60903       7
   60912   60909       6   60915   60909       6   60915   60912       7   60921
   60918       6   60924   60918       6   60924   60921       7   60930   60927
       6   60933   60927       6   60933   60930       7   60939   60936       6
   60942   60936       6   60942   60939       7   60948   60945       6   60951
   60945       6   60951   60948       7   60957   60954       6   60960   60954
       6   60960   60957       7   60966   60963       6   60969   60963       6
   60969   60966       7   60975   60972       6   60978   60972       6   60978
   60975       7   60984   60981       6   60987   60981       6   60987   60984
       7   60993   60990       6   60996   60990       6   60996   60993       7
   61002   60999       6   61005   60999       6   61005   61002       7   61011
   61008       6   61014   61008       6   61014   61011       7   61020   61017
       6   61023   61017       6   61023   61020       7   61029   61026       6
   61032   61026       6   61032   61029       7   61038   61035       6   61041
   61035       6   61041   61038       7   61047   61044       6   61050   61044
       6   61050   61047       7   61056   61053       6   61059   61053       6
   61059   61056       7   61065   61062       6   61068   61062       6   61068
   61065       7   61074   61071       6   61077   61071       6   61077   61074
       7   61083   61080       6   61086   61080       6   61086   61083       7
   61092   61089       6   61095   61089       6   61095   61092       7   61101
   61098       6   61104   61098       6   61104   61101       7   61110   61107
       6   61113   61107       6   61113   61110       7   61119   61116       6
   61122   61116       6   61122   61119       7   61128   61125       6   61131
   61125       6   61131   61128       7   61137   61134       6   61140   61134
       6   61140   61137       7   61146   61143       6   61149   61143       6
   61149   61146       7   61155   61152       6   61158   61152       6   61158
   61155       7   61164   61161       6   61167   61161       6   61167   61164
       7   61173   61170       6   61176   61170       6   61176   61173       7
   61182   61179       6   61185   61179       6   61185   61182       7   61191
   61188       6   61194   61188       6   61194   61191       7   61200   61197
       6   61203   61197       6   61203   61200       7   61209   61206       6
   61212   61206       6   61212   61209       7   61218   61215       6   61221
   61215       6   61221   61218       7   61227   61224       6   61230   61224
       6   61230   61227       7   61236   61233       6   61239   61233       6
   61239   61236       7   61245   61242       6   61248   61242       6   61248
   61245       7   61254   61251       6   61257   61251       6   61257   61254
       7   61263   61260       6   61266   61260       6   61266   61263       7
   61272   61269       6   61275   61269       6   61275   61272       7   61281
   61278       6   61284   61278       6   61284   61281       7   61290   61287
       6   61293   61287       6   61293   61290       7   61299   61296       6
   61302   61296       6   61302   61299       7   61308   61305       6   61311
   61305       6   61311   61308       7   61317   61314       6   61320   61314
       6   61320   61317       7   61326   61323       6   61329   61323       6
   61329   61326       7   61335   61332       6   61338   61332       6   61338
   61335       7   61344   61341       6   61347   61341       6   61347   61344
       7   61353   61350       6   61356   61350       6   61356   61353       7
   61362   61359       6   61365   61359       6   61365   61362       7   61371
   61368       6   61374   61368       6   61374   61371       7   61380   61377
       6   61383   61377       6   61383   61380       7   61389   61386       6
   61392   61386       6   61392   61389       7   61398   61395       6   61401
   61395       6   61401   61398       7   61407   61404       6   61410   61404
       6   61410   61407       7   61416   61413       6   61419   61413       6
   61419   61416       7   61425   61422       6   61428   61422       6   61428
   61425       7   61434   61431       6   61437   61431       6   61437   61434
       7   61443   61440       6   61446   61440       6   61446   61443       7
   61452   61449       6   61455   61449       6   61455   61452       7   61461
   61458       6   61464   61458       6   61464   61461       7   61470   61467
       6   61473   61467       6   61473   61470       7   61479   61476       6
   61482   61476       6   61482   61479       7   61488   61485       6   61491
   61485       6   61491   61488       7   61497   61494       6   61500   61494
       6   61500   61497       7   61506   61503       6   61509   61503       6
   61509   61506       7   61515   61512       6   61518   61512       6   61518
   61515       7   61524   61521       6   61527   61521       6   61527   61524
       7   61533   61530       6   61536   61530       6   61536   61533       7
   61542   61539       6   61545   61539       6   61545   61542       7   61551
   61548       6   61554   61548       6   61554   61551       7   61560   61557
       6   61563   61557       6   61563   61560       7   61569   61566       6
   61572   61566       6   61572   61569       7   61578   61575       6   61581
   61575       6   61581   61578       7   61587   61584       6   61590   61584
       6   61590   61587       7   61596   61593       6   61599   61593       6
   61599   61596       7   61605   61602       6   61608   61602       6   61608
   61605       7   61614   61611       6   61617   61611       6   61617   61614
       7   61623   61620       6   61626   61620       6   61626   61623       7
   61632   61629       6   61635   61629       6   61635   61632       7   61641
   61638       6   61644   61638       6   61644   61641       7   61650   61647
       6   61653   61647       6   61653   61650       7   61659   61656       6
   61662   61656       6   61662   61659       7   61668   61665       6   61671
   61665       6   61671   61668       7   61677   61674       6   61680   61674
       6   61680   61677       7   61686   61683       6   61689   61683       6
   61689   61686       7   61695   61692       6   61698   61692       6   61698
   61695       7   61704   61701       6   61707   61701       6   61707   61704
       7   61713   61710       6   61716   61710       6   61716   61713       7
   61722   61719       6   61725   61719       6   61725   61722       7   61731
   61728       6   61734   61728       6   61734   61731       7   61740   61737
       6   61743   61737       6   61743   61740       7   61749   61746       6
   61752   61746       6   61752   61749       7   61758   61755       6   61761
   61755       6   61761   61758       7   61767   61764       6   61770   61764
       6   61770   61767       7   61776   61773       6   61779   61773       6
   61779   61776       7   61785   61782       6   61788   61782       6   61788
   61785       7   61794   61791       6   61797   61791       6   61797   61794
       7   61803   61800       6   61806   61800       6   61806   61803       7
   61812   61809       6   61815   61809       6   61815   61812       7   61821
   61818       6   61824   61818       6   61824   61821       7   61830   61827
       6   61833   61827       6   61833   61830       7   61839   61836       6
   61842   61836       6   61842   61839       7   61848   61845       6   61851
   61845       6   61851   61848       7   61857   61854       6   61860   61854
       6   61860   61857       7   61866   61863       6   61869   61863       6
   61869   61866       7   61875   61872       6   61878   61872       6   61878
   61875       7   61884   61881       6   61887   61881       6   61887   61884
       7   61893   61890       6   61896   61890       6   61896   61893       7
   61902   61899       6   61905   61899       6   61905   61902       7   61911
   61908       6   61914   61908       6   61914   61911       7   61920   61917
       6   61923   61917       6   61923   61920       7   61929   61926       6
   61932   61926       6   61932   61929       7   61938   61935       6   61941
   61935       6   61941   61938       7   61947   61944       6   61950   61944
       6   61950   61947       7   61956   61953       6   61959   61953       6
   61959   61956       7   61965   61962       6   61968   61962       6   61968
   61965       7   61974   61971       6   61977   61971       6   61977   61974
       7   61983   61980       6   61986   61980       6   61986   61983       7
   61992   61989       6   61995   61989       6   61995   61992       7   62001
   61998       6   62004   61998       6   62004   62001       7   62010   62007
       6   62013   62007       6   62013   62010       7   62019   62016       6
   62022   62016       6   62022   62019       7   62028   62025       6   62031
   62025       6   62031   62028       7   62037   62034       6   62040   62034
       6   62040   62037       7   62046   62043       6   62049   62043       6
   62049   62046       7   62055   62052       6   62058   62052       6   62058
   62055       7   62064   62061       6   62067   62061       6   62067   62064
       7   62073   62070       6   62076   62070       6   62076   62073       7
   62082   62079       6   62085   62079       6   62085   62082       7   62091
   62088       6   62094   62088       6   62094   62091       7   62100   62097
       6   62103   62097       6   62103   62100       7   62109   62106       6
   62112   62106       6   62112   62109       7   62118   62115       6   62121
   62115       6   62121   62118       7   62127   62124       6   62130   62124
       6   62130   62127       7   62136   62133       6   62139   62133       6
   62139   62136       7   62145   62142       6   62148   62142       6   62148
   62145       7   62154   62151       6   62157   62151       6   62157   62154
       7   62163   62160       6   62166   62160       6   62166   62163       7
   62172   62169       6   62175   62169       6   62175   62172       7   62181
   62178       6   62184   62178       6   62184   62181       7   62190   62187
       6   62193   62187       6   62193   62190       7   62199   62196       6
   62202   62196       6   62202   62199       7   62208   62205       6   62211
   62205       6   62211   62208       7   62217   62214       6   62220   62214
       6   62220   62217       7   62226   62223       6   62229   62223       6
   62229   62226       7   62235   62232       6   62238   62232       6   62238
   62235       7   62244   62241       6   62247   62241       6   62247   62244
       7   62253   62250       6   62256   62250       6   62256   62253       7
   62262   62259       6   62265   62259       6   62265   62262       7   62271
   62268       6   62274   62268       6   62274   62271       7   62280   62277
       6   62283   62277       6   62283   62280       7   62289   62286       6
   62292   62286       6   62292   62289       7   62298   62295       6   62301
   62295       6   62301   62298       7   62307   62304       6   62310   62304
       6   62310   62307       7   62316   62313       6   62319   62313       6
   62319   62316       7   62325   62322       6   62328   62322       6   62328
   62325       7   62334   62331       6   62337   62331       6   62337   62334
       7   62343   62340       6   62346   62340       6   62346   62343       7
   62352   62349       6   62355   62349       6   62355   62352       7   62361
   62358       6   62364   62358       6   62364   62361       7   62370   62367
       6   62373   62367       6   62373   62370       7   62379   62376       6
   62382   62376       6   62382   62379       7   62388   62385       6   62391
   62385       6   62391   62388       7   62397   62394       6   62400   62394
       6   62400   62397       7   62406   62403       6   62409   62403       6
   62409   62406       7   62415   62412       6   62418   62412       6   62418
   62415       7   62424   62421       6   62427   62421       6   62427   62424
       7   62433   62430       6   62436   62430       6   62436   62433       7
   62442   62439       6   62445   62439       6   62445   62442       7   62451
   62448       6   62454   62448       6   62454   62451       7   62460   62457
       6   62463   62457       6   62463   62460       7   62469   62466       6
   62472   62466       6   62472   62469       7   62478   62475       6   62481
   62475       6   62481   62478       7   62487   62484       6   62490   62484
       6   62490   62487       7   62496   62493       6   62499   62493       6
   62499   62496       7   62505   62502       6   62508   62502       6   62508
   62505       7   62514   62511       6   62517   62511       6   62517   62514
       7   62523   62520       6   62526   62520       6   62526   62523       7
   62532   62529       6   62535   62529       6   62535   62532       7   62541
   62538       6   62544   62538       6   62544   62541       7   62550   62547
       6   62553   62547       6   62553   62550       7   62559   62556       6
   62562   62556       6   62562   62559       7   62568   62565       6   62571
   62565       6   62571   62568       7   62577   62574       6   62580   62574
       6   62580   62577       7   62586   62583       6   62589   62583       6
   62589   62586       7   62595   62592       6   62598   62592       6   62598
   62595       7   62604   62601       6   62607   62601       6   62607   62604
       7   62613   62610       6   62616   62610       6   62616   62613       7
   62622   62619       6   62625   62619       6   62625   62622       7   62631
   62628       6   62634   62628       6   62634   62631       7   62640   62637
       6   62643   62637       6   62643   62640       7   62649   62646       6
   62652   62646       6   62652   62649       7   62658   62655       6   62661
   62655       6   62661   62658       7   62667   62664       6   62670   62664
       6   62670   62667       7   62676   62673       6   62679   62673       6
   62679   62676       7   62685   62682       6   62688   62682       6   62688
   62685       7   62694   62691       6   62697   62691       6   62697   62694
       7   62703   62700       6   62706   62700       6   62706   62703       7
   62712   62709       6   62715   62709       6   62715   62712       7   62721
   62718       6   62724   62718       6   62724   62721       7   62730   62727
       6   62733   62727       6   62733   62730       7   62739   62736       6
   62742   62736       6   62742   62739       7   62748   62745       6   62751
   62745       6   62751   62748       7   62757   62754       6   62760   62754
       6   62760   62757       7   62766   62763       6   62769   62763       6
   62769   62766       7   62775   62772       6   62778   62772       6   62778
   62775       7   62784   62781       6   62787   62781       6   62787   62784
       7   62793   62790       6   62796   62790       6   62796   62793       7
   62802   62799       6   62805   62799       6   62805   62802       7   62811
   62808       6   62814   62808       6   62814   62811       7   62820   62817
       6   62823   62817       6   62823   62820       7   62829   62826       6
   62832   62826       6   62832   62829       7   62838   62835       6   62841
   62835       6   62841   62838       7   62847   62844       6   62850   62844
       6   62850   62847       7   62856   62853       6   62859   62853       6
   62859   62856       7   62865   62862       6   62868   62862       6   62868
   62865       7   62874   62871       6   62877   62871       6   62877   62874
       7   62883   62880       6   62886   62880       6   62886   62883       7
   62892   62889       6   62895   62889       6   62895   62892       7   62901
   62898       6   62904   62898       6   62904   62901       7   62910   62907
       6   62913   62907       6   62913   62910       7   62919   62916       6
   62922   62916       6   62922   62919       7   62928   62925       6   62931
   62925       6   62931   62928       7   62937   62934       6   62940   62934
       6   62940   62937       7   62946   62943       6   62949   62943       6
   62949   62946       7   62955   62952       6   62958   62952       6   62958
   62955       7   62964   62961       6   62967   62961       6   62967   62964
       7   62973   62970       6   62976   62970       6   62976   62973       7
   62982   62979       6   62985   62979       6   62985   62982       7   62991
   62988       6   62994   62988       6   62994   62991       7   63000   62997
       6   63003   62997       6   63003   63000       7   63009   63006       6
   63012   63006       6   63012   63009       7   63018   63015       6   63021
   63015       6   63021   63018       7   63027   63024       6   63030   63024
       6   63030   63027       7   63036   63033       6   63039   63033       6
   63039   63036       7   63045   63042       6   63048   63042       6   63048
   63045       7   63054   63051       6   63057   63051       6   63057   63054
       7   63063   63060       6   63066   63060       6   63066   63063       7
   63072   63069       6   63075   63069       6   63075   63072       7   63081
   63078       6   63084   63078       6   63084   63081       7   63090   63087
       6   63093   63087       6   63093   63090       7   63099   63096       6
   63102   63096       6   63102   63099       7   63108   63105       6   63111
   63105       6   63111   63108       7   63117   63114       6   63120   63114
       6   63120   63117       7   63126   63123       6   63129   63123       6
   63129   63126       7   63135   63132       6   63138   63132       6   63138
   63135       7   63144   63141       6   63147   63141       6   63147   63144
       7   63153   63150       6   63156   63150       6   63156   63153       7
   63162   63159       6   63165   63159       6   63165   63162       7   63171
   63168       6   63174   63168       6   63174   63171       7   63180   63177
       6   63183   63177       6   63183   63180       7   63189   63186       6
   63192   63186       6   63192   63189       7   63198   63195       6   63201
   63195       6   63201   63198       7   63207   63204       6   63210   63204
       6   63210   63207       7   63216   63213       6   63219   63213       6
   63219   63216       7   63225   63222       6   63228   63222       6   63228
   63225       7   63234   63231       6   63237   63231       6   63237   63234
       7   63243   63240       6   63246   63240       6   63246   63243       7
   63252   63249       6   63255   63249       6   63255   63252       7   63261
   63258       6   63264   63258       6   63264   63261       7   63270   63267
       6   63273   63267       6   63273   63270       7   63279   63276       6
   63282   63276       6   63282   63279       7   63288   63285       6   63291
   63285       6   63291   63288       7   63297   63294       6   63300   63294
       6   63300   63297       7   63306   63303       6   63309   63303       6
   63309   63306       7   63315   63312       6   63318   63312       6   63318
   63315       7   63324   63321       6   63327   63321       6   63327   63324
       7   63333   63330       6   63336   63330       6   63336   63333       7
   63342   63339       6   63345   63339       6   63345   63342       7   63351
   63348       6   63354   63348       6   63354   63351       7   63360   63357
       6   63363   63357       6   63363   63360       7   63369   63366       6
   63372   63366       6   63372   63369       7   63378   63375       6   63381
   63375       6   63381   63378       7   63387   63384       6   63390   63384
       6   63390   63387       7   63396   63393       6   63399   63393       6
   63399   63396       7   63405   63402       6   63408   63402       6   63408
   63405       7   63414   63411       6   63417   63411       6   63417   63414
       7   63423   63420       6   63426   63420       6   63426   63423       7
   63432   63429       6   63435   63429       6   63435   63432       7   63441
   63438       6   63444   63438       6   63444   63441       7   63450   63447
       6   63453   63447       6   63453   63450       7   63459   63456       6
   63462   63456       6   63462   63459       7   63468   63465       6   63471
   63465       6   63471   63468       7   63477   63474       6   63480   63474
       6   63480   63477       7   63486   63483       6   63489   63483       6
   63489   63486       7   63495   63492       6   63498   63492       6   63498
   63495       7   63504   63501       6   63507   63501       6   63507   63504
       7   63513   63510       6   63516   63510       6   63516   63513       7
   63522   63519       6   63525   63519       6   63525   63522       7   63531
   63528       6   63534   63528       6   63534   63531       7   63540   63537
       6   63543   63537       6   63543   63540       7   63549   63546       6
   63552   63546       6   63552   63549       7   63558   63555       6   63561
   63555       6   63561   63558       7   63567   63564       6   63570   63564
       6   63570   63567       7   63576   63573       6   63579   63573       6
   63579   63576       7   63585   63582       6   63588   63582       6   63588
   63585       7   63594   63591       6   63597   63591       6   63597   63594
       7   63603   63600       6   63606   63600       6   63606   63603       7
   63612   63609       6   63615   63609       6   63615   63612       7   63621
   63618       6   63624   63618       6   63624   63621       7   63630   63627
       6   63633   63627       6   63633   63630       7   63639   63636       6
   63642   63636       6   63642   63639       7   63648   63645       6   63651
   63645       6   63651   63648       7   63657   63654       6   63660   63654
       6   63660   63657       7   63666   63663       6   63669   63663       6
   63669   63666       7   63675   63672       6   63678   63672       6   63678
   63675       7   63684   63681       6   63687   63681       6   63687   63684
       7   63693   63690       6   63696   63690       6   63696   63693       7
   63702   63699       6   63705   63699       6   63705   63702       7   63711
   63708       6   63714   63708       6   63714   63711       7   63720   63717
       6   63723   63717       6   63723   63720       7   63729   63726       6
   63732   63726       6   63732   63729       7   63738   63735       6   63741
   63735       6   63741   63738       7   63747   63744       6   63750   63744
       6   63750   63747       7   63756   63753       6   63759   63753       6
   63759   63756       7   63765   63762       6   63768   63762       6   63768
   63765       7   63774   63771       6   63777   63771       6   63777   63774
       7   63783   63780       6   63786   63780       6   63786   63783       7
   63792   63789       6   63795   63789       6   63795   63792       7   63801
   63798       6   63804   63798       6   63804   63801       7   63810   63807
       6   63813   63807       6   63813   63810       7   63819   63816       6
   63822   63816       6   63822   63819       7   63828   63825       6   63831
   63825       6   63831   63828       7   63837   63834       6   63840   63834
       6   63840   63837       7   63846   63843       6   63849   63843       6
   63849   63846       7   63855   63852       6   63858   63852       6   63858
   63855       7   63864   63861       6   63867   63861       6   63867   63864
       7   63873   63870       6   63876   63870       6   63876   63873       7
   63882   63879       6   63885   63879       6   63885   63882       7   63891
   63888       6   63894   63888       6   63894   63891       7   63900   63897
       6   63903   63897       6   63903   63900       7   63909   63906       6
   63912   63906       6   63912   63909       7   63918   63915       6   63921
   63915       6   63921   63918       7   63927   63924       6   63930   63924
       6   63930   63927       7   63936   63933       6   63939   63933       6
   63939   63936       7   63945   63942       6   63948   63942       6   63948
   63945       7   63954   63951       6   63957   63951       6   63957   63954
       7   63963   63960       6   63966   63960       6   63966   63963       7
   63972   63969       6   63975   63969       6   63975   63972       7   63981
   63978       6   63984   63978       6   63984   63981       7   63990   63987
       6   63993   63987       6   63993   63990       7   63999   63996       6
   64002   63996       6   64002   63999       7   64008   64005       6   64011
   64005       6   64011   64008       7   64017   64014       6   64020   64014
       6   64020   64017       7   64026   64023       6   64029   64023       6
   64029   64026       7   64035   64032       6   64038   64032       6   64038
   64035       7   64044   64041       6   64047   64041       6   64047   64044
       7   64053   64050       6   64056   64050       6   64056   64053       7
   64062   64059       6   64065   64059       6   64065   64062       7   64071
   64068       6   64074   64068       6   64074   64071       7   64080   64077
       6   64083   64077       6   64083   64080       7   64089   64086       6
   64092   64086       6   64092   64089       7   64098   64095       6   64101
   64095       6   64101   64098       7   64107   64104       6   64110   64104
       6   64110   64107       7   64116   64113       6   64119   64113       6
   64119   64116       7   64125   64122       6   64128   64122       6   64128
   64125       7   64134   64131       6   64137   64131       6   64137   64134
       7   64143   64140       6   64146   64140       6   64146   64143       7
   64152   64149       6   64155   64149       6   64155   64152       7   64161
   64158       6   64164   64158       6   64164   64161       7   64170   64167
       6   64173   64167       6   64173   64170       7   64179   64176       6
   64182   64176       6   64182   64179       7   64188   64185       6   64191
   64185       6   64191   64188       7   64197   64194       6   64200   64194
       6   64200   64197       7   64206   64203       6   64209   64203       6
   64209   64206       7   64215   64212       6   64218   64212       6   64218
   64215       7   64224   64221       6   64227   64221       6   64227   64224
       7   64233   64230       6   64236   64230       6   64236   64233       7
   64242   64239       6   64245   64239       6   64245   64242       7   64251
   64248       6   64254   64248       6   64254   64251       7   64260   64257
       6   64263   64257       6   64263   64260       7   64269   64266       6
   64272   64266       6   64272   64269       7   64278   64275       6   64281
   64275       6   64281   64278       7   64287   64284       6   64290   64284
       6   64290   64287       7   64296   64293       6   64299   64293       6
   64299   64296       7   64305   64302       6   64308   64302       6   64308
   64305       7   64314   64311       6   64317   64311       6   64317   64314
       7   64323   64320       6   64326   64320       6   64326   64323       7
   64332   64329       6   64335   64329       6   64335   64332       7   64341
   64338       6   64344   64338       6   64344   64341       7   64350   64347
       6   64353   64347       6   64353   64350       7   64359   64356       6
   64362   64356       6   64362   64359       7   64368   64365       6   64371
   64365       6   64371   64368       7   64377   64374       6   64380   64374
       6   64380   64377       7   64386   64383       6   64389   64383       6
   64389   64386       7   64395   64392       6   64398   64392       6   64398
   64395       7   64404   64401       6   64407   64401       6   64407   64404
       7   64413   64410       6   64416   64410       6   64416   64413       7
   64422   64419       6   64425   64419       6   64425   64422       7   64431
   64428       6   64434   64428       6   64434   64431       7   64440   64437
       6   64443   64437       6   64443   64440       7   64449   64446       6
   64452   64446       6   64452   64449       7   64458   64455       6   64461
   64455       6   64461   64458       7   64467   64464       6   64470   64464
       6   64470   64467       7   64476   64473       6   64479   64473       6
   64479   64476       7   64485   64482       6   64488   64482       6   64488
   64485       7   64494   64491       6   64497   64491       6   64497   64494
       7   64503   64500       6   64506   64500       6   64506   64503       7
   64512   64509       6   64515   64509       6   64515   64512       7   64521
   64518       6   64524   64518       6   64524   64521       7   64530   64527
       6   64533   64527       6   64533   64530       7   64539   64536       6
   64542   64536       6   64542   64539       7   64548   64545       6   64551
   64545       6   64551   64548       7   64557   64554       6   64560   64554
       6   64560   64557       7   64566   64563       6   64569   64563       6
   64569   64566       7   64575   64572       6   64578   64572       6   64578
   64575       7   64584   64581       6   64587   64581       6   64587   64584
       7   64593   64590       6   64596   64590       6   64596   64593       7
   64602   64599       6   64605   64599       6   64605   64602       7   64611
   64608       6   64614   64608       6   64614   64611       7   64620   64617
       6   64623   64617       6   64623   64620       7   64629   64626       6
   64632   64626       6   64632   64629       7   64638   64635       6   64641
   64635       6   64641   64638       7   64647   64644       6   64650   64644
       6   64650   64647       7   64656   64653       6   64659   64653       6
   64659   64656       7   64665   64662       6   64668   64662       6   64668
   64665       7   64674   64671       6   64677   64671       6   64677   64674
       7   64683   64680       6   64686   64680       6   64686   64683       7
   64692   64689       6   64695   64689       6   64695   64692       7   64701
   64698       6   64704   64698       6   64704   64701       7   64710   64707
       6   64713   64707       6   64713   64710       7   64719   64716       6
   64722   64716       6   64722   64719       7   64728   64725       6   64731
   64725       6   64731   64728       7   64737   64734       6   64740   64734
       6   64740   64737       7   64746   64743       6   64749   64743       6
   64749   64746       7   64755   64752       6   64758   64752       6   64758
   64755       7   64764   64761       6   64767   64761       6   64767   64764
       7   64773   64770       6   64776   64770       6   64776   64773       7
   64782   64779       6   64785   64779       6   64785   64782       7   64791
   64788       6   64794   64788       6   64794   64791       7   64800   64797
       6   64803   64797       6   64803   64800       7   64809   64806       6
   64812   64806       6   64812   64809       7   64818   64815       6   64821
   64815       6   64821   64818       7   64827   64824       6   64830   64824
       6   64830   64827       7   64836   64833       6   64839   64833       6
   64839   64836       7   64845   64842       6   64848   64842       6   64848
   64845       7   64854   64851       6   64857   64851       6   64857   64854
       7   64863   64860       6   64866   64860       6   64866   64863       7
   64872   64869       6   64875   64869       6   64875   64872       7   64881
   64878       6   64884   64878       6   64884   64881       7   64890   64887
       6   64893   64887       6   64893   64890       7   64899   64896       6
   64902   64896       6   64902   64899       7   64908   64905       6   64911
   64905       6   64911   64908       7   64917   64914       6   64920   64914
       6   64920   64917       7   64926   64923       6   64929   64923       6
   64929   64926       7   64935   64932       6   64938   64932       6   64938
   64935       7   64944   64941       6   64947   64941       6   64947   64944
       7   64953   64950       6   64956   64950       6   64956   64953       7
   64962   64959       6   64965   64959       6   64965   64962       7   64971
   64968       6   64974   64968       6   64974   64971       7   64980   64977
       6   64983   64977       6   64983   64980       7   64989   64986       6
   64992   64986       6   64992   64989       7   64998   64995       6   65001
   64995       6   65001   64998       7   65007   65004       6   65010   65004
       6   65010   65007       7   65016   65013       6   65019   65013       6
   65019   65016       7   65025   65022       6   65028   65022       6   65028
   65025       7   65034   65031       6   65037   65031       6   65037   65034
       7   65043   65040       6   65046   65040       6   65046   65043       7
   65052   65049       6   65055   65049       6   65055   65052       7   65061
   65058       6   65064   65058       6   65064   65061       7   65070   65067
       6   65073   65067       6   65073   65070       7   65079   65076       6
   65082   65076       6   65082   65079       7   65088   65085       6   65091
   65085       6   65091   65088       7   65097   65094       6   65100   65094
       6   65100   65097       7   65106   65103       6   65109   65103       6
   65109   65106       7   65115   65112       6   65118   65112       6   65118
   65115       7   65124   65121       6   65127   65121       6   65127   65124
       7   65133   65130       6   65136   65130       6   65136   65133       7
   65142   65139       6   65145   65139       6   65145   65142       7   65151
   65148       6   65154   65148       6   65154   65151       7   65160   65157
       6   65163   65157       6   65163   65160       7   65169   65166       6
   65172   65166       6   65172   65169       7   65178   65175       6   65181
   65175       6   65181   65178       7   65187   65184       6   65190   65184
       6   65190   65187       7   65196   65193       6   65199   65193       6
   65199   65196       7   65205   65202       6   65208   65202       6   65208
   65205       7   65214   65211       6   65217   65211       6   65217   65214
       7   65223   65220       6   65226   65220       6   65226   65223       7
   65232   65229       6   65235   65229       6   65235   65232       7   65241
   65238       6   65244   65238       6   65244   65241       7   65250   65247
       6   65253   65247       6   65253   65250       7   65259   65256       6
   65262   65256       6   65262   65259       7   65268   65265       6   65271
   65265       6   65271   65268       7   65277   65274       6   65280   65274
       6   65280   65277       7   65286   65283       6   65289   65283       6
   65289   65286       7   65295   65292       6   65298   65292       6   65298
   65295       7   65304   65301       6   65307   65301       6   65307   65304
       7   65313   65310       6   65316   65310       6   65316   65313       7
   65322   65319       6   65325   65319       6   65325   65322       7   65331
   65328       6   65334   65328       6   65334   65331       7   65340   65337
       6   65343   65337       6   65343   65340       7   65349   65346       6
   65352   65346       6   65352   65349       7   65358   65355       6   65361
   65355       6   65361   65358       7   65367   65364       6   65370   65364
       6   65370   65367       7   65376   65373       6   65379   65373       6
   65379   65376       7   65385   65382       6   65388   65382       6   65388
   65385       7   65394   65391       6   65397   65391       6   65397   65394
       7   65403   65400       6   65406   65400       6   65406   65403       7
   65412   65409       6   65415   65409       6   65415   65412       7   65421
   65418       6   65424   65418       6   65424   65421       7   65430   65427
       6   65433   65427       6   65433   65430       7   65439   65436       6
   65442   65436       6   65442   65439       7   65448   65445       6   65451
   65445       6   65451   65448       7   65457   65454       6   65460   65454
       6   65460   65457       7   65466   65463       6   65469   65463       6
   65469   65466       7   65475   65472       6   65478   65472       6   65478
   65475       7   65484   65481       6   65487   65481       6   65487   65484
       7   65493   65490       6   65496   65490       6   65496   65493       7
   65502   65499       6   65505   65499       6   65505   65502       7   65511
   65508       6   65514   65508       6   65514   65511       7   65520   65517
       6   65523   65517       6   65523   65520       7   65529   65526       6
   65532   65526       6   65532   65529       7   65538   65535       6   65541
   65535       6   65541   65538       7   65547   65544       6   65550   65544
       6   65550   65547       7   65556   65553       6   65559   65553       6
   65559   65556       7   65565   65562       6   65568   65562       6   65568
   65565       7   65574   65571       6   65577   65571       6   65577   65574
       7   65583   65580       6   65586   65580       6   65586   65583       7
   65592   65589       6   65595   65589       6   65595   65592       7   65601
   65598       6   65604   65598       6   65604   65601       7   65610   65607
       6   65613   65607       6   65613   65610       7   65619   65616       6
   65622   65616       6   65622   65619       7   65628   65625       6   65631
   65625       6   65631   65628       7   65637   65634       6   65640   65634
       6   65640   65637       7   65646   65643       6   65649   65643       6
   65649   65646       7   65655   65652       6   65658   65652       6   65658
   65655       7   65664   65661       6   65667   65661       6   65667   65664
       7   65673   65670       6   65676   65670       6   65676   65673       7
   65682   65679       6   65685   65679       6   65685   65682       7   65691
   65688       6   65694   65688       6   65694   65691       7   65700   65697
       6   65703   65697       6   65703   65700       7   65709   65706       6
   65712   65706       6   65712   65709       7   65718   65715       6   65721
   65715       6   65721   65718       7   65727   65724       6   65730   65724
       6   65730   65727       7   65736   65733       6   65739   65733       6
   65739   65736       7   65745   65742       6   65748   65742       6   65748
   65745       7   65754   65751       6   65757   65751       6   65757   65754
       7   65763   65760       6   65766   65760       6   65766   65763       7
   65772   65769       6   65775   65769       6   65775   65772       7   65781
   65778       6   65784   65778       6   65784   65781       7   65790   65787
       6   65793   65787       6   65793   65790       7   65799   65796       6
   65802   65796       6   65802   65799       7   65808   65805       6   65811
   65805       6   65811   65808       7   65817   65814       6   65820   65814
       6   65820   65817       7   65826   65823       6   65829   65823       6
   65829   65826       7   65835   65832       6   65838   65832       6   65838
   65835       7   65844   65841       6   65847   65841       6   65847   65844
       7   65853   65850       6   65856   65850       6   65856   65853       7
   65862   65859       6   65865   65859       6   65865   65862       7   65871
   65868       6   65874   65868       6   65874   65871       7   65880   65877
       6   65883   65877       6   65883   65880       7   65889   65886       6
   65892   65886       6   65892   65889       7   65898   65895       6   65901
   65895       6   65901   65898       7   65907   65904       6   65910   65904
       6   65910   65907       7   65916   65913       6   65919   65913       6
   65919   65916       7   65925   65922       6   65928   65922       6   65928
   65925       7   65934   65931       6   65937   65931       6   65937   65934
       7   65943   65940       6   65946   65940       6   65946   65943       7
   65952   65949       6   65955   65949       6   65955   65952       7   65961
   65958       6   65964   65958       6   65964   65961       7   65970   65967
       6   65973   65967       6   65973   65970       7   65979   65976       6
   65982   65976       6   65982   65979       7   65988   65985       6   65991
   65985       6   65991   65988       7   65997   65994       6   66000   65994
       6   66000   65997       7   66006   66003       6   66009   66003       6
   66009   66006       7   66015   66012       6   66018   66012       6   66018
   66015       7   66024   66021       6   66027   66021       6   66027   66024
       7   66033   66030       6   66036   66030       6   66036   66033       7
   66042   66039       6   66045   66039       6   66045   66042       7   66051
   66048       6   66054   66048       6   66054   66051       7   66060   66057
       6   66063   66057       6   66063   66060       7   66069   66066       6
   66072   66066       6   66072   66069       7   66078   66075       6   66081
   66075       6   66081   66078       7   66087   66084       6   66090   66084
       6   66090   66087       7   66096   66093       6   66099   66093       6
   66099   66096       7   66105   66102       6   66108   66102       6   66108
   66105       7   66114   66111       6   66117   66111       6   66117   66114
       7   66123   66120       6   66126   66120       6   66126   66123       7
   66132   66129       6   66135   66129       6   66135   66132       7   66141
   66138       6   66144   66138       6   66144   66141       7   66150   66147
       6   66153   66147       6   66153   66150       7   66159   66156       6
   66162   66156       6   66162   66159       7   66168   66165       6   66171
   66165       6   66171   66168       7   66177   66174       6   66180   66174
       6   66180   66177       7   66186   66183       6   66189   66183       6
   66189   66186       7   66195   66192       6   66198   66192       6   66198
   66195       7   66204   66201       6   66207   66201       6   66207   66204
       7   66213   66210       6   66216   66210       6   66216   66213       7
   66222   66219       6   66225   66219       6   66225   66222       7   66231
   66228       6   66234   66228       6   66234   66231       7   66240   66237
       6   66243   66237       6   66243   66240       7   66249   66246       6
   66252   66246       6   66252   66249       7   66258   66255       6   66261
   66255       6   66261   66258       7   66267   66264       6   66270   66264
       6   66270   66267       7   66276   66273       6   66279   66273       6
   66279   66276       7   66285   66282       6   66288   66282       6   66288
   66285       7   66294   66291       6   66297   66291       6   66297   66294
       7   66303   66300       6   66306   66300       6   66306   66303       7
   66312   66309       6   66315   66309       6   66315   66312       7   66321
   66318       6   66324   66318       6   66324   66321       7   66330   66327
       6   66333   66327       6   66333   66330       7   66339   66336       6
   66342   66336       6   66342   66339       7   66348   66345       6   66351
   66345       6   66351   66348       7   66357   66354       6   66360   66354
       6   66360   66357       7   66366   66363       6   66369   66363       6
   66369   66366       7   66375   66372       6   66378   66372       6   66378
   66375       7   66384   66381       6   66387   66381       6   66387   66384
       7   66393   66390       6   66396   66390       6   66396   66393       7
   66402   66399       6   66405   66399       6   66405   66402       7   66411
   66408       6   66414   66408       6   66414   66411       7   66420   66417
       6   66423   66417       6   66423   66420       7   66429   66426       6
   66432   66426       6   66432   66429       7   66438   66435       6   66441
   66435       6   66441   66438       7   66447   66444       6   66450   66444
       6   66450   66447       7   66456   66453       6   66459   66453       6
   66459   66456       7   66465   66462       6   66468   66462       6   66468
   66465       7   66474   66471       6   66477   66471       6   66477   66474
       7   66483   66480       6   66486   66480       6   66486   66483       7
   66492   66489       6   66495   66489       6   66495   66492       7   66501
   66498       6   66504   66498       6   66504   66501       7   66510   66507
       6   66513   66507       6   66513   66510       7   66519   66516       6
   66522   66516       6   66522   66519       7   66528   66525       6   66531
   66525       6   66531   66528       7   66537   66534       6   66540   66534
       6   66540   66537       7   66546   66543       6   66549   66543       6
   66549   66546       7   66555   66552       6   66558   66552       6   66558
   66555       7   66564   66561       6   66567   66561       6   66567   66564
       7   66573   66570       6   66576   66570       6   66576   66573       7
   66582   66579       6   66585   66579       6   66585   66582       7   66591
   66588       6   66594   66588       6   66594   66591       7   66600   66597
       6   66603   66597       6   66603   66600       7   66609   66606       6
   66612   66606       6   66612   66609       7   66618   66615       6   66621
   66615       6   66621   66618       7   66627   66624       6   66630   66624
       6   66630   66627       7   66636   66633       6   66639   66633       6
   66639   66636       7   66645   66642       6   66648   66642       6   66648
   66645       7   66654   66651       6   66657   66651       6   66657   66654
       7   66663   66660       6   66666   66660       6   66666   66663       7
   66672   66669       6   66675   66669       6   66675   66672       7   66681
   66678       6   66684   66678       6   66684   66681       7   66690   66687
       6   66693   66687       6   66693   66690       7   66699   66696       6
   66702   66696       6   66702   66699       7   66708   66705       6   66711
   66705       6   66711   66708       7   66717   66714       6   66720   66714
       6   66720   66717       7   66726   66723       6   66729   66723       6
   66729   66726       7   66735   66732       6   66738   66732       6   66738
   66735       7   66744   66741       6   66747   66741       6   66747   66744
       7   66753   66750       6   66756   66750       6   66756   66753       7
   66762   66759       6   66765   66759       6   66765   66762       7   66771
   66768       6   66774   66768       6   66774   66771       7   66780   66777
       6   66783   66777       6   66783   66780       7   66789   66786       6
   66792   66786       6   66792   66789       7   66798   66795       6   66801
   66795       6   66801   66798       7   66807   66804       6   66810   66804
       6   66810   66807       7   66816   66813       6   66819   66813       6
   66819   66816       7   66825   66822       6   66828   66822       6   66828
   66825       7   66834   66831       6   66837   66831       6   66837   66834
       7   66843   66840       6   66846   66840       6   66846   66843       7
   66852   66849       6   66855   66849       6   66855   66852       7   66861
   66858       6   66864   66858       6   66864   66861       7   66870   66867
       6   66873   66867       6   66873   66870       7   66879   66876       6
   66882   66876       6   66882   66879       7   66888   66885       6   66891
   66885       6   66891   66888       7   66897   66894       6   66900   66894
       6   66900   66897       7   66906   66903       6   66909   66903       6
   66909   66906       7   66915   66912       6   66918   66912       6   66918
   66915       7   66924   66921       6   66927   66921       6   66927   66924
       7   66933   66930       6   66936   66930       6   66936   66933       7
   66942   66939       6   66945   66939       6   66945   66942       7   66951
   66948       6   66954   66948       6   66954   66951       7   66960   66957
       6   66963   66957       6   66963   66960       7   66969   66966       6
   66972   66966       6   66972   66969       7   66978   66975       6   66981
   66975       6   66981   66978       7   66987   66984       6   66990   66984
       6   66990   66987       7   66996   66993       6   66999   66993       6
   66999   66996       7   67005   67002       6   67008   67002       6   67008
   67005       7   67014   67011       6   67017   67011       6   67017   67014
       7   67023   67020       6   67026   67020       6   67026   67023       7
   67032   67029       6   67035   67029       6   67035   67032       7   67041
   67038       6   67044   67038       6   67044   67041       7   67050   67047
       6   67053   67047       6   67053   67050       7   67059   67056       6
   67062   67056       6   67062   67059       7   67068   67065       6   67071
   67065       6   67071   67068       7   67077   67074       6   67080   67074
       6   67080   67077       7   67086   67083       6   67089   67083       6
   67089   67086       7   67095   67092       6   67098   67092       6   67098
   67095       7   67104   67101       6   67107   67101       6   67107   67104
       7   67113   67110       6   67116   67110       6   67116   67113       7
   67122   67119       6   67125   67119       6   67125   67122       7   67131
   67128       6   67134   67128       6   67134   67131       7   67140   67137
       6   67143   67137       6   67143   67140       7   67149   67146       6
   67152   67146       6   67152   67149       7   67158   67155       6   67161
   67155       6   67161   67158       7   67167   67164       6   67170   67164
       6   67170   67167       7   67176   67173       6   67179   67173       6
   67179   67176       7   67185   67182       6   67188   67182       6   67188
   67185       7   67194   67191       6   67197   67191       6   67197   67194
       7   67203   67200       6   67206   67200       6   67206   67203       7
   67212   67209       6   67215   67209       6   67215   67212       7   67221
   67218       6   67224   67218       6   67224   67221       7   67230   67227
       6   67233   67227       6   67233   67230       7   67239   67236       6
   67242   67236       6   67242   67239       7   67248   67245       6   67251
   67245       6   67251   67248       7   67257   67254       6   67260   67254
       6   67260   67257       7   67266   67263       6   67269   67263       6
   67269   67266       7   67275   67272       6   67278   67272       6   67278
   67275       7   67284   67281       6   67287   67281       6   67287   67284
       7   67293   67290       6   67296   67290       6   67296   67293       7
   67302   67299       6   67305   67299       6   67305   67302       7   67311
   67308       6   67314   67308       6   67314   67311       7   67320   67317
       6   67323   67317       6   67323   67320       7   67329   67326       6
   67332   67326       6   67332   67329       7   67338   67335       6   67341
   67335       6   67341   67338       7   67347   67344       6   67350   67344
       6   67350   67347       7   67356   67353       6   67359   67353       6
   67359   67356       7   67365   67362       6   67368   67362       6   67368
   67365       7   67374   67371       6   67377   67371       6   67377   67374
       7   67383   67380       6   67386   67380       6   67386   67383       7
   67392   67389       6   67395   67389       6   67395   67392       7   67401
   67398       6   67404   67398       6   67404   67401       7   67410   67407
       6   67413   67407       6   67413   67410       7   67419   67416       6
   67422   67416       6   67422   67419       7   67428   67425       6   67431
   67425       6   67431   67428       7   67437   67434       6   67440   67434
       6   67440   67437       7   67446   67443       6   67449   67443       6
   67449   67446       7   67455   67452       6   67458   67452       6   67458
   67455       7   67464   67461       6   67467   67461       6   67467   67464
       7   67473   67470       6   67476   67470       6   67476   67473       7
   67482   67479       6   67485   67479       6   67485   67482       7   67491
   67488       6   67494   67488       6   67494   67491       7   67500   67497
       6   67503   67497       6   67503   67500       7   67509   67506       6
   67512   67506       6   67512   67509       7   67518   67515       6   67521
   67515       6   67521   67518       7   67527   67524       6   67530   67524
       6   67530   67527       7   67536   67533       6   67539   67533       6
   67539   67536       7   67545   67542       6   67548   67542       6   67548
   67545       7   67554   67551       6   67557   67551       6   67557   67554
       7   67563   67560       6   67566   67560       6   67566   67563       7
   67572   67569       6   67575   67569       6   67575   67572       7   67581
   67578       6   67584   67578       6   67584   67581       7   67590   67587
       6   67593   67587       6   67593   67590       7   67599   67596       6
   67602   67596       6   67602   67599       7   67608   67605       6   67611
   67605       6   67611   67608       7   67617   67614       6   67620   67614
       6   67620   67617       7   67626   67623       6   67629   67623       6
   67629   67626       7   67635   67632       6   67638   67632       6   67638
   67635       7   67644   67641       6   67647   67641       6   67647   67644
       7   67653   67650       6   67656   67650       6   67656   67653       7
   67662   67659       6   67665   67659       6   67665   67662       7   67671
   67668       6   67674   67668       6   67674   67671       7   67680   67677
       6   67683   67677       6   67683   67680       7   67689   67686       6
   67692   67686       6   67692   67689       7   67698   67695       6   67701
   67695       6   67701   67698       7   67707   67704       6   67710   67704
       6   67710   67707       7   67716   67713       6   67719   67713       6
   67719   67716       7   67725   67722       6   67728   67722       6   67728
   67725       7   67734   67731       6   67737   67731       6   67737   67734
       7   67743   67740       6   67746   67740       6   67746   67743       7
   67752   67749       6   67755   67749       6   67755   67752       7   67761
   67758       6   67764   67758       6   67764   67761       7   67770   67767
       6   67773   67767       6   67773   67770       7   67779   67776       6
   67782   67776       6   67782   67779       7   67788   67785       6   67791
   67785       6   67791   67788       7   67797   67794       6   67800   67794
       6   67800   67797       7   67806   67803       6   67809   67803       6
   67809   67806       7   67815   67812       6   67818   67812       6   67818
   67815       7   67824   67821       6   67827   67821       6   67827   67824
       7   67833   67830       6   67836   67830       6   67836   67833       7
   67842   67839       6   67845   67839       6   67845   67842       7   67851
   67848       6   67854   67848       6   67854   67851       7   67860   67857
       6   67863   67857       6   67863   67860       7   67869   67866       6
   67872   67866       6   67872   67869       7   67878   67875       6   67881
   67875       6   67881   67878       7   67887   67884       6   67890   67884
       6   67890   67887       7   67896   67893       6   67899   67893       6
   67899   67896       7   67905   67902       6   67908   67902       6   67908
   67905       7   67914   67911       6   67917   67911       6   67917   67914
       7   67923   67920       6   67926   67920       6   67926   67923       7
   67932   67929       6   67935   67929       6   67935   67932       7   67941
   67938       6   67944   67938       6   67944   67941       7   67950   67947
       6   67953   67947       6   67953   67950       7   67959   67956       6
   67962   67956       6   67962   67959       7   67968   67965       6   67971
   67965       6   67971   67968       7   67977   67974       6   67980   67974
       6   67980   67977       7   67986   67983       6   67989   67983       6
   67989   67986       7   67995   67992       6   67998   67992       6   67998
   67995       7   68004   68001       6   68007   68001       6   68007   68004
       7   68013   68010       6   68016   68010       6   68016   68013       7
   68022   68019       6   68025   68019       6   68025   68022       7   68031
   68028       6   68034   68028       6   68034   68031       7   68040   68037
       6   68043   68037       6   68043   68040       7   68049   68046       6
   68052   68046       6   68052   68049       7   68058   68055       6   68061
   68055       6   68061   68058       7   68067   68064       6   68070   68064
       6   68070   68067       7   68076   68073       6   68079   68073       6
   68079   68076       7   68085   68082       6   68088   68082       6   68088
   68085       7   68094   68091       6   68097   68091       6   68097   68094
       7   68103   68100       6   68106   68100       6   68106   68103       7
   68112   68109       6   68115   68109       6   68115   68112       7   68121
   68118       6   68124   68118       6   68124   68121       7   68130   68127
       6   68133   68127       6   68133   68130       7   68139   68136       6
   68142   68136       6   68142   68139       7   68148   68145       6   68151
   68145       6   68151   68148       7   68157   68154       6   68160   68154
       6   68160   68157       7   68166   68163       6   68169   68163       6
   68169   68166       7   68175   68172       6   68178   68172       6   68178
   68175       7   68184   68181       6   68187   68181       6   68187   68184
       7   68193   68190       6   68196   68190       6   68196   68193       7
   68202   68199       6   68205   68199       6   68205   68202       7   68211
   68208       6   68214   68208       6   68214   68211       7   68220   68217
       6   68223   68217       6   68223   68220       7   68229   68226       6
   68232   68226       6   68232   68229       7   68238   68235       6   68241
   68235       6   68241   68238       7   68247   68244       6   68250   68244
       6   68250   68247       7   68256   68253       6   68259   68253       6
   68259   68256       7   68265   68262       6   68268   68262       6   68268
   68265       7   68274   68271       6   68277   68271       6   68277   68274
       7   68283   68280       6   68286   68280       6   68286   68283       7
   68292   68289       6   68295   68289       6   68295   68292       7   68301
   68298       6   68304   68298       6   68304   68301       7   68310   68307
       6   68313   68307       6   68313   68310       7   68319   68316       6
   68322   68316       6   68322   68319       7   68328   68325       6   68331
   68325       6   68331   68328       7   68337   68334       6   68340   68334
       6   68340   68337       7   68346   68343       6   68349   68343       6
   68349   68346       7   68355   68352       6   68358   68352       6   68358
   68355       7   68364   68361       6   68367   68361       6   68367   68364
       7   68373   68370       6   68376   68370       6   68376   68373       7
   68382   68379       6   68385   68379       6   68385   68382       7   68391
   68388       6   68394   68388       6   68394   68391       7   68400   68397
       6   68403   68397       6   68403   68400       7   68409   68406       6
   68412   68406       6   68412   68409       7   68418   68415       6   68421
   68415       6   68421   68418       7   68427   68424       6   68430   68424
       6   68430   68427       7   68436   68433       6   68439   68433       6
   68439   68436       7   68445   68442       6   68448   68442       6   68448
   68445       7   68454   68451       6   68457   68451       6   68457   68454
       7   68463   68460       6   68466   68460       6   68466   68463       7
   68472   68469       6   68475   68469       6   68475   68472       7   68481
   68478       6   68484   68478       6   68484   68481       7   68490   68487
       6   68493   68487       6   68493   68490       7   68499   68496       6
   68502   68496       6   68502   68499       7   68508   68505       6   68511
   68505       6   68511   68508       7   68517   68514       6   68520   68514
       6   68520   68517       7   68526   68523       6   68529   68523       6
   68529   68526       7   68535   68532       6   68538   68532       6   68538
   68535       7   68544   68541       6   68547   68541       6   68547   68544
       7   68553   68550       6   68556   68550       6   68556   68553       7
   68562   68559       6   68565   68559       6   68565   68562       7   68571
   68568       6   68574   68568       6   68574   68571       7   68580   68577
       6   68583   68577       6   68583   68580       7   68589   68586       6
   68592   68586       6   68592   68589       7   68598   68595       6   68601
   68595       6   68601   68598       7   68607   68604       6   68610   68604
       6   68610   68607       7   68616   68613       6   68619   68613       6
   68619   68616       7   68625   68622       6   68628   68622       6   68628
   68625       7   68634   68631       6   68637   68631       6   68637   68634
       7   68643   68640       6   68646   68640       6   68646   68643       7
   68652   68649       6   68655   68649       6   68655   68652       7   68661
   68658       6   68664   68658       6   68664   68661       7   68670   68667
       6   68673   68667       6   68673   68670       7   68679   68676       6
   68682   68676       6   68682   68679       7   68688   68685       6   68691
   68685       6   68691   68688       7   68697   68694       6   68700   68694
       6   68700   68697       7   68706   68703       6   68709   68703       6
   68709   68706       7   68715   68712       6   68718   68712       6   68718
   68715       7   68724   68721       6   68727   68721       6   68727   68724
       7   68733   68730       6   68736   68730       6   68736   68733       7
   68742   68739       6   68745   68739       6   68745   68742       7   68751
   68748       6   68754   68748       6   68754   68751       7   68760   68757
       6   68763   68757       6   68763   68760       7   68769   68766       6
   68772   68766       6   68772   68769       7   68778   68775       6   68781
   68775       6   68781   68778       7   68787   68784       6   68790   68784
       6   68790   68787       7   68796   68793       6   68799   68793       6
   68799   68796       7   68805   68802       6   68808   68802       6   68808
   68805       7   68814   68811       6   68817   68811       6   68817   68814
       7   68823   68820       6   68826   68820       6   68826   68823       7
   68832   68829       6   68835   68829       6   68835   68832       7   68841
   68838       6   68844   68838       6   68844   68841       7   68850   68847
       6   68853   68847       6   68853   68850       7   68859   68856       6
   68862   68856       6   68862   68859       7   68868   68865       6   68871
   68865       6   68871   68868       7   68877   68874       6   68880   68874
       6   68880   68877       7   68886   68883       6   68889   68883       6
   68889   68886       7   68895   68892       6   68898   68892       6   68898
   68895       7   68904   68901       6   68907   68901       6   68907   68904
       7   68913   68910       6   68916   68910       6   68916   68913       7
   68922   68919       6   68925   68919       6   68925   68922       7   68931
   68928       6   68934   68928       6   68934   68931       7   68940   68937
       6   68943   68937       6   68943   68940       7   68949   68946       6
   68952   68946       6   68952   68949       7   68958   68955       6   68961
   68955       6   68961   68958       7   68967   68964       6   68970   68964
       6   68970   68967       7   68976   68973       6   68979   68973       6
   68979   68976       7   68985   68982       6   68988   68982       6   68988
   68985       7   68994   68991       6   68997   68991       6   68997   68994
       7   69003   69000       6   69006   69000       6   69006   69003       7
   69012   69009       6   69015   69009       6   69015   69012       7   69021
   69018       6   69024   69018       6   69024   69021       7   69030   69027
       6   69033   69027       6   69033   69030       7   69039   69036       6
   69042   69036       6   69042   69039       7   69048   69045       6   69051
   69045       6   69051   69048       7   69057   69054       6   69060   69054
       6   69060   69057       7   69066   69063       6   69069   69063       6
   69069   69066       7   69075   69072       6   69078   69072       6   69078
   69075       7   69084   69081       6   69087   69081       6   69087   69084
       7   69093   69090       6   69096   69090       6   69096   69093       7
   69102   69099       6   69105   69099       6   69105   69102       7   69111
   69108       6   69114   69108       6   69114   69111       7   69120   69117
       6   69123   69117       6   69123   69120       7   69129   69126       6
   69132   69126       6   69132   69129       7   69138   69135       6   69141
   69135       6   69141   69138       7   69147   69144       6   69150   69144
       6   69150   69147       7   69156   69153       6   69159   69153       6
   69159   69156       7   69165   69162       6   69168   69162       6   69168
   69165       7   69174   69171       6   69177   69171       6   69177   69174
       7   69183   69180       6   69186   69180       6   69186   69183       7
   69192   69189       6   69195   69189       6   69195   69192       7   69201
   69198       6   69204   69198       6   69204   69201       7   69210   69207
       6   69213   69207       6   69213   69210       7   69219   69216       6
   69222   69216       6   69222   69219       7   69228   69225       6   69231
   69225       6   69231   69228       7   69237   69234       6   69240   69234
       6   69240   69237       7   69246   69243       6   69249   69243       6
   69249   69246       7   69255   69252       6   69258   69252       6   69258
   69255       7   69264   69261       6   69267   69261       6   69267   69264
       7   69273   69270       6   69276   69270       6   69276   69273       7
   69282   69279       6   69285   69279       6   69285   69282       7   69291
   69288       6   69294   69288       6   69294   69291       7   69300   69297
       6   69303   69297       6   69303   69300       7   69309   69306       6
   69312   69306       6   69312   69309       7   69318   69315       6   69321
   69315       6   69321   69318       7   69327   69324       6   69330   69324
       6   69330   69327       7   69336   69333       6   69339   69333       6
   69339   69336       7   69345   69342       6   69348   69342       6   69348
   69345       7   69354   69351       6   69357   69351       6   69357   69354
       7   69363   69360       6   69366   69360       6   69366   69363       7
   69372   69369       6   69375   69369       6   69375   69372       7   69381
   69378       6   69384   69378       6   69384   69381       7   69390   69387
       6   69393   69387       6   69393   69390       7   69399   69396       6
   69402   69396       6   69402   69399       7   69408   69405       6   69411
   69405       6   69411   69408       7   69417   69414       6   69420   69414
       6   69420   69417       7   69426   69423       6   69429   69423       6
   69429   69426       7   69435   69432       6   69438   69432       6   69438
   69435       7   69444   69441       6   69447   69441       6   69447   69444
       7   69453   69450       6   69456   69450       6   69456   69453       7
   69462   69459       6   69465   69459       6   69465   69462       7   69471
   69468       6   69474   69468       6   69474   69471       7   69480   69477
       6   69483   69477       6   69483   69480       7   69489   69486       6
   69492   69486       6   69492   69489       7   69498   69495       6   69501
   69495       6   69501   69498       7   69507   69504       6   69510   69504
       6   69510   69507       7   69516   69513       6   69519   69513       6
   69519   69516       7   69525   69522       6   69528   69522       6   69528
   69525       7   69534   69531       6   69537   69531       6   69537   69534
       7   69543   69540       6   69546   69540       6   69546   69543       7
   69552   69549       6   69555   69549       6   69555   69552       7   69561
   69558       6   69564   69558       6   69564   69561       7   69570   69567
       6   69573   69567       6   69573   69570       7   69579   69576       6
   69582   69576       6   69582   69579       7   69588   69585       6   69591
   69585       6   69591   69588       7   69597   69594       6   69600   69594
       6   69600   69597       7   69606   69603       6   69609   69603       6
   69609   69606       7   69615   69612       6   69618   69612       6   69618
   69615       7   69624   69621       6   69627   69621       6   69627   69624
       7   69633   69630       6   69636   69630       6   69636   69633       7
   69642   69639       6   69645   69639       6   69645   69642       7   69651
   69648       6   69654   69648       6   69654   69651       7   69660   69657
       6   69663   69657       6   69663   69660       7   69669   69666       6
   69672   69666       6   69672   69669       7   69678   69675       6   69681
   69675       6   69681   69678       7   69687   69684       6   69690   69684
       6   69690   69687       7   69696   69693       6   69699   69693       6
   69699   69696       7   69705   69702       6   69708   69702       6   69708
   69705       7   69714   69711       6   69717   69711       6   69717   69714
       7   69723   69720       6   69726   69720       6   69726   69723       7
   69732   69729       6   69735   69729       6   69735   69732       7   69741
   69738       6   69744   69738       6   69744   69741       7   69750   69747
       6   69753   69747       6   69753   69750       7   69759   69756       6
   69762   69756       6   69762   69759       7   69768   69765       6   69771
   69765       6   69771   69768       7   69777   69774       6   69780   69774
       6   69780   69777       7   69786   69783       6   69789   69783       6
   69789   69786       7   69795   69792       6   69798   69792       6   69798
   69795       7   69804   69801       6   69807   69801       6   69807   69804
       7   69813   69810       6   69816   69810       6   69816   69813       7
   69822   69819       6   69825   69819       6   69825   69822       7   69831
   69828       6   69834   69828       6   69834   69831       7   69840   69837
       6   69843   69837       6   69843   69840       7   69849   69846       6
   69852   69846       6   69852   69849       7   69858   69855       6   69861
   69855       6   69861   69858       7   69867   69864       6   69870   69864
       6   69870   69867       7   69876   69873       6   69879   69873       6
   69879   69876       7   69885   69882       6   69888   69882       6   69888
   69885       7   69894   69891       6   69897   69891       6   69897   69894
       7   69903   69900       6   69906   69900       6   69906   69903       7
   69912   69909       6   69915   69909       6   69915   69912       7   69921
   69918       6   69924   69918       6   69924   69921       7   69930   69927
       6   69933   69927       6   69933   69930       7   69939   69936       6
   69942   69936       6   69942   69939       7   69948   69945       6   69951
   69945       6   69951   69948       7   69957   69954       6   69960   69954
       6   69960   69957       7   69966   69963       6   69969   69963       6
   69969   69966       7   69975   69972       6   69978   69972       6   69978
   69975       7   69984   69981       6   69987   69981       6   69987   69984
       7   69993   69990       6   69996   69990       6   69996   69993       7
   70002   69999       6   70005   69999       6   70005   70002       7   70011
   70008       6   70014   70008       6   70014   70011       7   70020   70017
       6   70023   70017       6   70023   70020       7   70029   70026       6
   70032   70026       6   70032   70029       7   70038   70035       6   70041
   70035       6   70041   70038       7   70047   70044       6   70050   70044
       6   70050   70047       7   70056   70053       6   70059   70053       6
   70059   70056       7   70065   70062       6   70068   70062       6   70068
   70065       7   70074   70071       6   70077   70071       6   70077   70074
       7   70083   70080       6   70086   70080       6   70086   70083       7
   70092   70089       6   70095   70089       6   70095   70092       7   70101
   70098       6   70104   70098       6   70104   70101       7   70110   70107
       6   70113   70107       6   70113   70110       7   70119   70116       6
   70122   70116       6   70122   70119       7   70128   70125       6   70131
   70125       6   70131   70128       7   70137   70134       6   70140   70134
       6   70140   70137       7   70146   70143       6   70149   70143       6
   70149   70146       7   70155   70152       6   70158   70152       6   70158
   70155       7   70164   70161       6   70167   70161       6   70167   70164
       7   70173   70170       6   70176   70170       6   70176   70173       7
   70182   70179       6   70185   70179       6   70185   70182       7   70191
   70188       6   70194   70188       6   70194   70191       7   70200   70197
       6   70203   70197       6   70203   70200       7   70209   70206       6
   70212   70206       6   70212   70209       7   70218   70215       6   70221
   70215       6   70221   70218       7   70227   70224       6   70230   70224
       6   70230   70227       7   70236   70233       6   70239   70233       6
   70239   70236       7   70245   70242       6   70248   70242       6   70248
   70245       7   70254   70251       6   70257   70251       6   70257   70254
       7   70263   70260       6   70266   70260       6   70266   70263       7
   70272   70269       6   70275   70269       6   70275   70272       7   70281
   70278       6   70284   70278       6   70284   70281       7   70290   70287
       6   70293   70287       6   70293   70290       7   70299   70296       6
   70302   70296       6   70302   70299       7   70308   70305       6   70311
   70305       6   70311   70308       7   70317   70314       6   70320   70314
       6   70320   70317       7   70326   70323       6   70329   70323       6
   70329   70326       7   70335   70332       6   70338   70332       6   70338
   70335       7   70344   70341       6   70347   70341       6   70347   70344
       7   70353   70350       6   70356   70350       6   70356   70353       7
   70362   70359       6   70365   70359       6   70365   70362       7   70371
   70368       6   70374   70368       6   70374   70371       7   70380   70377
       6   70383   70377       6   70383   70380       7   70389   70386       6
   70392   70386       6   70392   70389       7   70398   70395       6   70401
   70395       6   70401   70398       7   70407   70404       6   70410   70404
       6   70410   70407       7   70416   70413       6   70419   70413       6
   70419   70416       7   70425   70422       6   70428   70422       6   70428
   70425       7   70434   70431       6   70437   70431       6   70437   70434
       7   70443   70440       6   70446   70440       6   70446   70443       7
   70452   70449       6   70455   70449       6   70455   70452       7   70461
   70458       6   70464   70458       6   70464   70461       7   70470   70467
       6   70473   70467       6   70473   70470       7   70479   70476       6
   70482   70476       6   70482   70479       7   70488   70485       6   70491
   70485       6   70491   70488       7   70497   70494       6   70500   70494
       6   70500   70497       7   70506   70503       6   70509   70503       6
   70509   70506       7   70515   70512       6   70518   70512       6   70518
   70515       7   70524   70521       6   70527   70521       6   70527   70524
       7   70533   70530       6   70536   70530       6   70536   70533       7
   70542   70539       6   70545   70539       6   70545   70542       7   70551
   70548       6   70554   70548       6   70554   70551       7   70560   70557
       6   70563   70557       6   70563   70560       7   70569   70566       6
   70572   70566       6   70572   70569       7   70578   70575       6   70581
   70575       6   70581   70578       7   70587   70584       6   70590   70584
       6   70590   70587       7   70596   70593       6   70599   70593       6
   70599   70596       7   70605   70602       6   70608   70602       6   70608
   70605       7   70614   70611       6   70617   70611       6   70617   70614
       7   70623   70620       6   70626   70620       6   70626   70623       7
   70632   70629       6   70635   70629       6   70635   70632       7   70641
   70638       6   70644   70638       6   70644   70641       7   70650   70647
       6   70653   70647       6   70653   70650       7   70659   70656       6
   70662   70656       6   70662   70659       7   70668   70665       6   70671
   70665       6   70671   70668       7   70677   70674       6   70680   70674
       6   70680   70677       7   70686   70683       6   70689   70683       6
   70689   70686       7   70695   70692       6   70698   70692       6   70698
   70695       7   70704   70701       6   70707   70701       6   70707   70704
       7   70713   70710       6   70716   70710       6   70716   70713       7
   70722   70719       6   70725   70719       6   70725   70722       7   70731
   70728       6   70734   70728       6   70734   70731       7   70740   70737
       6   70743   70737       6   70743   70740       7   70749   70746       6
   70752   70746       6   70752   70749       7   70758   70755       6   70761
   70755       6   70761   70758       7   70767   70764       6   70770   70764
       6   70770   70767       7   70776   70773       6   70779   70773       6
   70779   70776       7   70785   70782       6   70788   70782       6   70788
   70785       7   70794   70791       6   70797   70791       6   70797   70794
       7   70803   70800       6   70806   70800       6   70806   70803       7
   70812   70809       6   70815   70809       6   70815   70812       7   70821
   70818       6   70824   70818       6   70824   70821       7   70830   70827
       6   70833   70827       6   70833   70830       7   70839   70836       6
   70842   70836       6   70842   70839       7   70848   70845       6   70851
   70845       6   70851   70848       7   70857   70854       6   70860   70854
       6   70860   70857       7   70866   70863       6   70869   70863       6
   70869   70866       7   70875   70872       6   70878   70872       6   70878
   70875       7   70884   70881       6   70887   70881       6   70887   70884
       7   70893   70890       6   70896   70890       6   70896   70893       7
   70902   70899       6   70905   70899       6   70905   70902       7   70911
   70908       6   70914   70908       6   70914   70911       7   70920   70917
       6   70923   70917       6   70923   70920       7   70929   70926       6
   70932   70926       6   70932   70929       7   70938   70935       6   70941
   70935       6   70941   70938       7   70947   70944       6   70950   70944
       6   70950   70947       7   70956   70953       6   70959   70953       6
   70959   70956       7   70965   70962       6   70968   70962       6   70968
   70965       7   70974   70971       6   70977   70971       6   70977   70974
       7   70983   70980       6   70986   70980       6   70986   70983       7
   70992   70989       6   70995   70989       6   70995   70992       7   71001
   70998       6   71004   70998       6   71004   71001       7   71010   71007
       6   71013   71007       6   71013   71010       7   71019   71016       6
   71022   71016       6   71022   71019       7   71028   71025       6   71031
   71025       6   71031   71028       7   71037   71034       6   71040   71034
       6   71040   71037       7   71046   71043       6   71049   71043       6
   71049   71046       7   71055   71052       6   71058   71052       6   71058
   71055       7   71064   71061       6   71067   71061       6   71067   71064
       7   71073   71070       6   71076   71070       6   71076   71073       7
   71082   71079       6   71085   71079       6   71085   71082       7   71091
   71088       6   71094   71088       6   71094   71091       7   71100   71097
       6   71103   71097       6   71103   71100       7   71109   71106       6
   71112   71106       6   71112   71109       7   71118   71115       6   71121
   71115       6   71121   71118       7   71127   71124       6   71130   71124
       6   71130   71127       7   71136   71133       6   71139   71133       6
   71139   71136       7   71145   71142       6   71148   71142       6   71148
   71145       7   71154   71151       6   71157   71151       6   71157   71154
       7   71163   71160       6   71166   71160       6   71166   71163       7
   71172   71169       6   71175   71169       6   71175   71172       7   71181
   71178       6   71184   71178       6   71184   71181       7   71190   71187
       6   71193   71187       6   71193   71190       7   71199   71196       6
   71202   71196       6   71202   71199       7   71208   71205       6   71211
   71205       6   71211   71208       7   71217   71214       6   71220   71214
       6   71220   71217       7   71226   71223       6   71229   71223       6
   71229   71226       7   71235   71232       6   71238   71232       6   71238
   71235       7   71244   71241       6   71247   71241       6   71247   71244
       7   71253   71250       6   71256   71250       6   71256   71253       7
   71262   71259       6   71265   71259       6   71265   71262       7   71271
   71268       6   71274   71268       6   71274   71271       7   71280   71277
       6   71283   71277       6   71283   71280       7   71289   71286       6
   71292   71286       6   71292   71289       7   71298   71295       6   71301
   71295       6   71301   71298       7   71307   71304       6   71310   71304
       6   71310   71307       7   71316   71313       6   71319   71313       6
   71319   71316       7   71325   71322       6   71328   71322       6   71328
   71325       7   71334   71331       6   71337   71331       6   71337   71334
       7   71343   71340       6   71346   71340       6   71346   71343       7
   71352   71349       6   71355   71349       6   71355   71352       7   71361
   71358       6   71364   71358       6   71364   71361       7   71370   71367
       6   71373   71367       6   71373   71370       7   71379   71376       6
   71382   71376       6   71382   71379       7   71388   71385       6   71391
   71385       6   71391   71388       7   71397   71394       6   71400   71394
       6   71400   71397       7   71406   71403       6   71409   71403       6
   71409   71406       7   71415   71412       6   71418   71412       6   71418
   71415       7   71424   71421       6   71427   71421       6   71427   71424
       7   71433   71430       6   71436   71430       6   71436   71433       7
   71442   71439       6   71445   71439       6   71445   71442       7   71451
   71448       6   71454   71448       6   71454   71451       7   71460   71457
       6   71463   71457       6   71463   71460       7   71469   71466       6
   71472   71466       6   71472   71469       7   71478   71475       6   71481
   71475       6   71481   71478       7   71487   71484       6   71490   71484
       6   71490   71487       7   71496   71493       6   71499   71493       6
   71499   71496       7   71505   71502       6   71508   71502       6   71508
   71505       7   71514   71511       6   71517   71511       6   71517   71514
       7   71523   71520       6   71526   71520       6   71526   71523       7
   71532   71529       6   71535   71529       6   71535   71532       7   71541
   71538       6   71544   71538       6   71544   71541       7   71550   71547
       6   71553   71547       6   71553   71550       7   71559   71556       6
   71562   71556       6   71562   71559       7   71568   71565       6   71571
   71565       6   71571   71568       7   71577   71574       6   71580   71574
       6   71580   71577       7   71586   71583       6   71589   71583       6
   71589   71586       7   71595   71592       6   71598   71592       6   71598
   71595       7   71604   71601       6   71607   71601       6   71607   71604
       7   71613   71610       6   71616   71610       6   71616   71613       7
   71622   71619       6   71625   71619       6   71625   71622       7   71631
   71628       6   71634   71628       6   71634   71631       7   71640   71637
       6   71643   71637       6   71643   71640       7   71649   71646       6
   71652   71646       6   71652   71649       7   71658   71655       6   71661
   71655       6   71661   71658       7   71667   71664       6   71670   71664
       6   71670   71667       7   71676   71673       6   71679   71673       6
   71679   71676       7   71685   71682       6   71688   71682       6   71688
   71685       7   71694   71691       6   71697   71691       6   71697   71694
       7   71703   71700       6   71706   71700       6   71706   71703       7
   71712   71709       6   71715   71709       6   71715   71712       7   71721
   71718       6   71724   71718       6   71724   71721       7   71730   71727
       6   71733   71727       6   71733   71730       7   71739   71736       6
   71742   71736       6   71742   71739       7   71748   71745       6   71751
   71745       6   71751   71748       7   71757   71754       6   71760   71754
       6   71760   71757       7   71766   71763       6   71769   71763       6
   71769   71766       7   71775   71772       6   71778   71772       6   71778
   71775       7   71784   71781       6   71787   71781       6   71787   71784
       7   71793   71790       6   71796   71790       6   71796   71793       7
   71802   71799       6   71805   71799       6   71805   71802       7   71811
   71808       6   71814   71808       6   71814   71811       7   71820   71817
       6   71823   71817       6   71823   71820       7   71829   71826       6
   71832   71826       6   71832   71829       7   71838   71835       6   71841
   71835       6   71841   71838       7   71847   71844       6   71850   71844
       6   71850   71847       7   71856   71853       6   71859   71853       6
   71859   71856       7   71865   71862       6   71868   71862       6   71868
   71865       7   71874   71871       6   71877   71871       6   71877   71874
       7   71883   71880       6   71886   71880       6   71886   71883       7
   71892   71889       6   71895   71889       6   71895   71892       7   71901
   71898       6   71904   71898       6   71904   71901       7   71910   71907
       6   71913   71907       6   71913   71910       7   71919   71916       6
   71922   71916       6   71922   71919       7   71928   71925       6   71931
   71925       6   71931   71928       7   71937   71934       6   71940   71934
       6   71940   71937       7   71946   71943       6   71949   71943       6
   71949   71946       7   71955   71952       6   71958   71952       6   71958
   71955       7   71964   71961       6   71967   71961       6   71967   71964
       7   71973   71970       6   71976   71970       6   71976   71973       7
   71982   71979       6   71985   71979       6   71985   71982       7   71991
   71988       6   71994   71988       6   71994   71991       7   72000   71997
       6   72003   71997       6   72003   72000       7   72009   72006       6
   72012   72006       6   72012   72009       7   72018   72015       6   72021
   72015       6   72021   72018       7   72027   72024       6   72030   72024
       6   72030   72027       7   72036   72033       6   72039   72033       6
   72039   72036       7   72045   72042       6   72048   72042       6   72048
   72045       7   72054   72051       6   72057   72051       6   72057   72054
       7   72063   72060       6   72066   72060       6   72066   72063       7
   72072   72069       6   72075   72069       6   72075   72072       7   72081
   72078       6   72084   72078       6   72084   72081       7   72090   72087
       6   72093   72087       6   72093   72090       7   72099   72096       6
   72102   72096       6   72102   72099       7   72108   72105       6   72111
   72105       6   72111   72108       7   72117   72114       6   72120   72114
       6   72120   72117       7   72126   72123       6   72129   72123       6
   72129   72126       7   72135   72132       6   72138   72132       6   72138
   72135       7   72144   72141       6   72147   72141       6   72147   72144
       7   72153   72150       6   72156   72150       6   72156   72153       7
   72162   72159       6   72165   72159       6   72165   72162       7   72171
   72168       6   72174   72168       6   72174   72171       7   72180   72177
       6   72183   72177       6   72183   72180       7   72189   72186       6
   72192   72186       6   72192   72189       7   72198   72195       6   72201
   72195       6   72201   72198       7   72207   72204       6   72210   72204
       6   72210   72207       7   72216   72213       6   72219   72213       6
   72219   72216       7   72225   72222       6   72228   72222       6   72228
   72225       7   72234   72231       6   72237   72231       6   72237   72234
       7   72243   72240       6   72246   72240       6   72246   72243       7
   72252   72249       6   72255   72249       6   72255   72252       7   72261
   72258       6   72264   72258       6   72264   72261       7   72270   72267
       6   72273   72267       6   72273   72270       7   72279   72276       6
   72282   72276       6   72282   72279       7   72288   72285       6   72291
   72285       6   72291   72288       7   72297   72294       6   72300   72294
       6   72300   72297       7   72306   72303       6   72309   72303       6
   72309   72306       7   72315   72312       6   72318   72312       6   72318
   72315       7   72324   72321       6   72327   72321       6   72327   72324
       7   72333   72330       6   72336   72330       6   72336   72333       7
   72342   72339       6   72345   72339       6   72345   72342       7   72351
   72348       6   72354   72348       6   72354   72351       7   72360   72357
       6   72363   72357       6   72363   72360       7   72369   72366       6
   72372   72366       6   72372   72369       7   72378   72375       6   72381
   72375       6   72381   72378       7   72387   72384       6   72390   72384
       6   72390   72387       7   72396   72393       6   72399   72393       6
   72399   72396       7   72405   72402       6   72408   72402       6   72408
   72405       7   72414   72411       6   72417   72411       6   72417   72414
       7   72423   72420       6   72426   72420       6   72426   72423       7
   72432   72429       6   72435   72429       6   72435   72432       7   72441
   72438       6   72444   72438       6   72444   72441       7   72450   72447
       6   72453   72447       6   72453   72450       7   72459   72456       6
   72462   72456       6   72462   72459       7   72468   72465       6   72471
   72465       6   72471   72468       7   72477   72474       6   72480   72474
       6   72480   72477       7   72486   72483       6   72489   72483       6
   72489   72486       7   72495   72492       6   72498   72492       6   72498
   72495       7   72504   72501       6   72507   72501       6   72507   72504
       7   72513   72510       6   72516   72510       6   72516   72513       7
   72522   72519       6   72525   72519       6   72525   72522       7   72531
   72528       6   72534   72528       6   72534   72531       7   72540   72537
       6   72543   72537       6   72543   72540       7   72549   72546       6
   72552   72546       6   72552   72549       7   72558   72555       6   72561
   72555       6   72561   72558       7   72567   72564       6   72570   72564
       6   72570   72567       7   72576   72573       6   72579   72573       6
   72579   72576       7   72585   72582       6   72588   72582       6   72588
   72585       7   72594   72591       6   72597   72591       6   72597   72594
       7   72603   72600       6   72606   72600       6   72606   72603       7
   72612   72609       6   72615   72609       6   72615   72612       7   72621
   72618       6   72624   72618       6   72624   72621       7   72630   72627
       6   72633   72627       6   72633   72630       7   72639   72636       6
   72642   72636       6   72642   72639       7   72648   72645       6   72651
   72645       6   72651   72648       7   72657   72654       6   72660   72654
       6   72660   72657       7   72666   72663       6   72669   72663       6
   72669   72666       7   72675   72672       6   72678   72672       6   72678
   72675       7   72684   72681       6   72687   72681       6   72687   72684
       7   72693   72690       6   72696   72690       6   72696   72693       7
   72702   72699       6   72705   72699       6   72705   72702       7   72711
   72708       6   72714   72708       6   72714   72711       7   72720   72717
       6   72723   72717       6   72723   72720       7   72729   72726       6
   72732   72726       6   72732   72729       7   72738   72735       6   72741
   72735       6   72741   72738       7   72747   72744       6   72750   72744
       6   72750   72747       7   72756   72753       6   72759   72753       6
   72759   72756       7   72765   72762       6   72768   72762       6   72768
   72765       7   72774   72771       6   72777   72771       6   72777   72774
       7   72783   72780       6   72786   72780       6   72786   72783       7
   72792   72789       6   72795   72789       6   72795   72792       7   72801
   72798       6   72804   72798       6   72804   72801       7   72810   72807
       6   72813   72807       6   72813   72810       7   72819   72816       6
   72822   72816       6   72822   72819       7   72828   72825       6   72831
   72825       6   72831   72828       7   72837   72834       6   72840   72834
       6   72840   72837       7   72846   72843       6   72849   72843       6
   72849   72846       7   72855   72852       6   72858   72852       6   72858
   72855       7   72864   72861       6   72867   72861       6   72867   72864
       7   72873   72870       6   72876   72870       6   72876   72873       7
   72882   72879       6   72885   72879       6   72885   72882       7   72891
   72888       6   72894   72888       6   72894   72891       7   72900   72897
       6   72903   72897       6   72903   72900       7   72909   72906       6
   72912   72906       6   72912   72909       7   72918   72915       6   72921
   72915       6   72921   72918       7   72927   72924       6   72930   72924
       6   72930   72927       7   72936   72933       6   72939   72933       6
   72939   72936       7   72945   72942       6   72948   72942       6   72948
   72945       7   72954   72951       6   72957   72951       6   72957   72954
       7   72963   72960       6   72966   72960       6   72966   72963       7
   72972   72969       6   72975   72969       6   72975   72972       7   72981
   72978       6   72984   72978       6   72984   72981       7   72990   72987
       6   72993   72987       6   72993   72990       7   72999   72996       6
   73002   72996       6   73002   72999       7   73008   73005       6   73011
   73005       6   73011   73008       7   73017   73014       6   73020   73014
       6   73020   73017       7   73026   73023       6   73029   73023       6
   73029   73026       7   73035   73032       6   73038   73032       6   73038
   73035       7   73044   73041       6   73047   73041       6   73047   73044
       7   73053   73050       6   73056   73050       6   73056   73053       7
   73062   73059       6   73065   73059       6   73065   73062       7   73071
   73068       6   73074   73068       6   73074   73071       7   73080   73077
       6   73083   73077       6   73083   73080       7   73089   73086       6
   73092   73086       6   73092   73089       7   73098   73095       6   73101
   73095       6   73101   73098       7   73107   73104       6   73110   73104
       6   73110   73107       7   73116   73113       6   73119   73113       6
   73119   73116       7   73125   73122       6   73128   73122       6   73128
   73125       7   73134   73131       6   73137   73131       6   73137   73134
       7   73143   73140       6   73146   73140       6   73146   73143       7
   73152   73149       6   73155   73149       6   73155   73152       7   73161
   73158       6   73164   73158       6   73164   73161       7   73170   73167
       6   73173   73167       6   73173   73170       7   73179   73176       6
   73182   73176       6   73182   73179       7   73188   73185       6   73191
   73185       6   73191   73188       7   73197   73194       6   73200   73194
       6   73200   73197       7   73206   73203       6   73209   73203       6
   73209   73206       7   73215   73212       6   73218   73212       6   73218
   73215       7   73224   73221       6   73227   73221       6   73227   73224
       7   73233   73230       6   73236   73230       6   73236   73233       7
   73242   73239       6   73245   73239       6   73245   73242       7   73251
   73248       6   73254   73248       6   73254   73251       7   73260   73257
       6   73263   73257       6   73263   73260       7   73269   73266       6
   73272   73266       6   73272   73269       7   73278   73275       6   73281
   73275       6   73281   73278       7   73287   73284       6   73290   73284
       6   73290   73287       7   73296   73293       6   73299   73293       6
   73299   73296       7   73305   73302       6   73308   73302       6   73308
   73305       7   73314   73311       6   73317   73311       6   73317   73314
       7   73323   73320       6   73326   73320       6   73326   73323       7
   73332   73329       6   73335   73329       6   73335   73332       7   73341
   73338       6   73344   73338       6   73344   73341       7   73350   73347
       6   73353   73347       6   73353   73350       7   73359   73356       6
   73362   73356       6   73362   73359       7   73368   73365       6   73371
   73365       6   73371   73368       7   73377   73374       6   73380   73374
       6   73380   73377       7   73386   73383       6   73389   73383       6
   73389   73386       7   73395   73392       6   73398   73392       6   73398
   73395       7   73404   73401       6   73407   73401       6   73407   73404
       7   73413   73410       6   73416   73410       6   73416   73413       7
   73422   73419       6   73425   73419       6   73425   73422       7   73431
   73428       6   73434   73428       6   73434   73431       7   73440   73437
       6   73443   73437       6   73443   73440       7   73449   73446       6
   73452   73446       6   73452   73449       7   73458   73455       6   73461
   73455       6   73461   73458       7   73467   73464       6   73470   73464
       6   73470   73467       7   73476   73473       6   73479   73473       6
   73479   73476       7   73485   73482       6   73488   73482       6   73488
   73485       7   73494   73491       6   73497   73491       6   73497   73494
       7   73503   73500       6   73506   73500       6   73506   73503       7
   73512   73509       6   73515   73509       6   73515   73512       7   73521
   73518       6   73524   73518       6   73524   73521       7   73530   73527
       6   73533   73527       6   73533   73530       7   73539   73536       6
   73542   73536       6   73542   73539       7   73548   73545       6   73551
   73545       6   73551   73548       7   73557   73554       6   73560   73554
       6   73560   73557       7   73566   73563       6   73569   73563       6
   73569   73566       7   73575   73572       6   73578   73572       6   73578
   73575       7   73584   73581       6   73587   73581       6   73587   73584
       7   73593   73590       6   73596   73590       6   73596   73593       7
   73602   73599       6   73605   73599       6   73605   73602       7   73611
   73608       6   73614   73608       6   73614   73611       7   73620   73617
       6   73623   73617       6   73623   73620       7   73629   73626       6
   73632   73626       6   73632   73629       7   73638   73635       6   73641
   73635       6   73641   73638       7   73647   73644       6   73650   73644
       6   73650   73647       7   73656   73653       6   73659   73653       6
   73659   73656       7   73665   73662       6   73668   73662       6   73668
   73665       7   73674   73671       6   73677   73671       6   73677   73674
       7   73683   73680       6   73686   73680       6   73686   73683       7
   73692   73689       6   73695   73689       6   73695   73692       7   73701
   73698       6   73704   73698       6   73704   73701       7   73710   73707
       6   73713   73707       6   73713   73710       7   73719   73716       6
   73722   73716       6   73722   73719       7   73728   73725       6   73731
   73725       6   73731   73728       7   73737   73734       6   73740   73734
       6   73740   73737       7   73746   73743       6   73749   73743       6
   73749   73746       7   73755   73752       6   73758   73752       6   73758
   73755       7   73764   73761       6   73767   73761       6   73767   73764
       7   73773   73770       6   73776   73770       6   73776   73773       7
   73782   73779       6   73785   73779       6   73785   73782       7   73791
   73788       6   73794   73788       6   73794   73791       7   73800   73797
       6   73803   73797       6   73803   73800       7   73809   73806       6
   73812   73806       6   73812   73809       7   73818   73815       6   73821
   73815       6   73821   73818       7   73827   73824       6   73830   73824
       6   73830   73827       7   73836   73833       6   73839   73833       6
   73839   73836       7   73845   73842       6   73848   73842       6   73848
   73845       7   73854   73851       6   73857   73851       6   73857   73854
       7   73863   73860       6   73866   73860       6   73866   73863       7
   73872   73869       6   73875   73869       6   73875   73872       7   73881
   73878       6   73884   73878       6   73884   73881       7   73890   73887
       6   73893   73887       6   73893   73890       7   73899   73896       6
   73902   73896       6   73902   73899       7   73908   73905       6   73911
   73905       6   73911   73908       7   73917   73914       6   73920   73914
       6   73920   73917       7   73926   73923       6   73929   73923       6
   73929   73926       7   73935   73932       6   73938   73932       6   73938
   73935       7   73944   73941       6   73947   73941       6   73947   73944
       7   73953   73950       6   73956   73950       6   73956   73953       7
   73962   73959       6   73965   73959       6   73965   73962       7   73971
   73968       6   73974   73968       6   73974   73971       7   73980   73977
       6   73983   73977       6   73983   73980       7   73989   73986       6
   73992   73986       6   73992   73989       7   73998   73995       6   74001
   73995       6   74001   73998       7   74007   74004       6   74010   74004
       6   74010   74007       7   74016   74013       6   74019   74013       6
   74019   74016       7   74025   74022       6   74028   74022       6   74028
   74025       7   74034   74031       6   74037   74031       6   74037   74034
       7   74043   74040       6   74046   74040       6   74046   74043       7
   74052   74049       6   74055   74049       6   74055   74052       7   74061
   74058       6   74064   74058       6   74064   74061       7   74070   74067
       6   74073   74067       6   74073   74070       7   74079   74076       6
   74082   74076       6   74082   74079       7   74088   74085       6   74091
   74085       6   74091   74088       7   74097   74094       6   74100   74094
       6   74100   74097       7   74106   74103       6   74109   74103       6
   74109   74106       7   74115   74112       6   74118   74112       6   74118
   74115       7   74124   74121       6   74127   74121       6   74127   74124
       7   74133   74130       6   74136   74130       6   74136   74133       7
   74142   74139       6   74145   74139       6   74145   74142       7   74151
   74148       6   74154   74148       6   74154   74151       7   74160   74157
       6   74163   74157       6   74163   74160       7   74169   74166       6
   74172   74166       6   74172   74169       7   74178   74175       6   74181
   74175       6   74181   74178       7   74187   74184       6   74190   74184
       6   74190   74187       7   74196   74193       6   74199   74193       6
   74199   74196       7   74205   74202       6   74208   74202       6   74208
   74205       7   74214   74211       6   74217   74211       6   74217   74214
       7   74223   74220       6   74226   74220       6   74226   74223       7
   74232   74229       6   74235   74229       6   74235   74232       7   74241
   74238       6   74244   74238       6   74244   74241       7   74250   74247
       6   74253   74247       6   74253   74250       7   74259   74256       6
   74262   74256       6   74262   74259       7   74268   74265       6   74271
   74265       6   74271   74268       7   74277   74274       6   74280   74274
       6   74280   74277       7   74286   74283       6   74289   74283       6
   74289   74286       7   74295   74292       6   74298   74292       6   74298
   74295       7   74304   74301       6   74307   74301       6   74307   74304
       7   74313   74310       6   74316   74310       6   74316   74313       7
   74322   74319       6   74325   74319       6   74325   74322       7   74331
   74328       6   74334   74328       6   74334   74331       7   74340   74337
       6   74343   74337       6   74343   74340       7   74349   74346       6
   74352   74346       6   74352   74349       7   74358   74355       6   74361
   74355       6   74361   74358       7   74367   74364       6   74370   74364
       6   74370   74367       7   74376   74373       6   74379   74373       6
   74379   74376       7   74385   74382       6   74388   74382       6   74388
   74385       7   74394   74391       6   74397   74391       6   74397   74394
       7   74403   74400       6   74406   74400       6   74406   74403       7
   74412   74409       6   74415   74409       6   74415   74412       7   74421
   74418       6   74424   74418       6   74424   74421       7   74430   74427
       6   74433   74427       6   74433   74430       7   74439   74436       6
   74442   74436       6   74442   74439       7   74448   74445       6   74451
   74445       6   74451   74448       7   74457   74454       6   74460   74454
       6   74460   74457       7   74466   74463       6   74469   74463       6
   74469   74466       7   74475   74472       6   74478   74472       6   74478
   74475       7   74484   74481       6   74487   74481       6   74487   74484
       7   74493   74490       6   74496   74490       6   74496   74493       7
   74502   74499       6   74505   74499       6   74505   74502       7   74511
   74508       6   74514   74508       6   74514   74511       7   74520   74517
       6   74523   74517       6   74523   74520       7   74529   74526       6
   74532   74526       6   74532   74529       7   74538   74535       6   74541
   74535       6   74541   74538       7   74547   74544       6   74550   74544
       6   74550   74547       7   74556   74553       6   74559   74553       6
   74559   74556       7   74565   74562       6   74568   74562       6   74568
   74565       7   74574   74571       6   74577   74571       6   74577   74574
       7   74583   74580       6   74586   74580       6   74586   74583       7
   74592   74589       6   74595   74589       6   74595   74592       7   74601
   74598       6   74604   74598       6   74604   74601       7   74610   74607
       6   74613   74607       6   74613   74610       7   74619   74616       6
   74622   74616       6   74622   74619       7   74628   74625       6   74631
   74625       6   74631   74628       7   74637   74634       6   74640   74634
       6   74640   74637       7   74646   74643       6   74649   74643       6
   74649   74646       7   74655   74652       6   74658   74652       6   74658
   74655       7   74664   74661       6   74667   74661       6   74667   74664
       7   74673   74670       6   74676   74670       6   74676   74673       7
   74682   74679       6   74685   74679       6   74685   74682       7   74691
   74688       6   74694   74688       6   74694   74691       7   74700   74697
       6   74703   74697       6   74703   74700       7   74709   74706       6
   74712   74706       6   74712   74709       7   74718   74715       6   74721
   74715       6   74721   74718       7   74727   74724       6   74730   74724
       6   74730   74727       7   74736   74733       6   74739   74733       6
   74739   74736       7   74745   74742       6   74748   74742       6   74748
   74745       7   74754   74751       6   74757   74751       6   74757   74754
       7   74763   74760       6   74766   74760       6   74766   74763       7
   74772   74769       6   74775   74769       6   74775   74772       7   74781
   74778       6   74784   74778       6   74784   74781       7   74790   74787
       6   74793   74787       6   74793   74790       7   74799   74796       6
   74802   74796       6   74802   74799       7   74808   74805       6   74811
   74805       6   74811   74808       7   74817   74814       6   74820   74814
       6   74820   74817       7   74826   74823       6   74829   74823       6
   74829   74826       7   74835   74832       6   74838   74832       6   74838
   74835       7   74844   74841       6   74847   74841       6   74847   74844
       7   74853   74850       6   74856   74850       6   74856   74853       7
   74862   74859       6   74865   74859       6   74865   74862       7   74871
   74868       6   74874   74868       6   74874   74871       7   74880   74877
       6   74883   74877       6   74883   74880       7   74889   74886       6
   74892   74886       6   74892   74889       7   74898   74895       6   74901
   74895       6   74901   74898       7   74907   74904       6   74910   74904
       6   74910   74907       7   74916   74913       6   74919   74913       6
   74919   74916       7   74925   74922       6   74928   74922       6   74928
   74925       7   74934   74931       6   74937   74931       6   74937   74934
       7   74943   74940       6   74946   74940       6   74946   74943       7
   74952   74949       6   74955   74949       6   74955   74952       7   74961
   74958       6   74964   74958       6   74964   74961       7   74970   74967
       6   74973   74967       6   74973   74970       7   74979   74976       6
   74982   74976       6   74982   74979       7   74988   74985       6   74991
   74985       6   74991   74988       7   74997   74994       6   75000   74994
       6   75000   74997       7   75006   75003       6   75009   75003       6
   75009   75006       7   75015   75012       6   75018   75012       6   75018
   75015       7   75024   75021       6   75027   75021       6   75027   75024
       7   75033   75030       6   75036   75030       6   75036   75033       7
   75042   75039       6   75045   75039       6   75045   75042       7   75051
   75048       6   75054   75048       6   75054   75051       7   75060   75057
       6   75063   75057       6   75063   75060       7   75069   75066       6
   75072   75066       6   75072   75069       7   75078   75075       6   75081
   75075       6   75081   75078       7   75087   75084       6   75090   75084
       6   75090   75087       7   75096   75093       6   75099   75093       6
   75099   75096       7   75105   75102       6   75108   75102       6   75108
   75105       7   75114   75111       6   75117   75111       6   75117   75114
       7   75123   75120       6   75126   75120       6   75126   75123       7
   75132   75129       6   75135   75129       6   75135   75132       7   75141
   75138       6   75144   75138       6   75144   75141       7   75150   75147
       6   75153   75147       6   75153   75150       7   75159   75156       6
   75162   75156       6   75162   75159       7   75168   75165       6   75171
   75165       6   75171   75168       7   75177   75174       6   75180   75174
       6   75180   75177       7   75186   75183       6   75189   75183       6
   75189   75186       7   75195   75192       6   75198   75192       6   75198
   75195       7   75204   75201       6   75207   75201       6   75207   75204
       7   75213   75210       6   75216   75210       6   75216   75213       7
   75222   75219       6   75225   75219       6   75225   75222       7   75231
   75228       6   75234   75228       6   75234   75231       7   75240   75237
       6   75243   75237       6   75243   75240       7   75249   75246       6
   75252   75246       6   75252   75249       7   75258   75255       6   75261
   75255       6   75261   75258       7   75267   75264       6   75270   75264
       6   75270   75267       7   75276   75273       6   75279   75273       6
   75279   75276       7   75285   75282       6   75288   75282       6   75288
   75285       7   75294   75291       6   75297   75291       6   75297   75294
       7   75303   75300       6   75306   75300       6   75306   75303       7
   75312   75309       6   75315   75309       6   75315   75312       7   75321
   75318       6   75324   75318       6   75324   75321       7   75330   75327
       6   75333   75327       6   75333   75330       7   75339   75336       6
   75342   75336       6   75342   75339       7   75348   75345       6   75351
   75345       6   75351   75348       7   75357   75354       6   75360   75354
       6   75360   75357       7   75366   75363       6   75369   75363       6
   75369   75366       7   75375   75372       6   75378   75372       6   75378
   75375       7   75384   75381       6   75387   75381       6   75387   75384
       7   75393   75390       6   75396   75390       6   75396   75393       7
   75402   75399       6   75405   75399       6   75405   75402       7   75411
   75408       6   75414   75408       6   75414   75411       7   75420   75417
       6   75423   75417       6   75423   75420       7   75429   75426       6
   75432   75426       6   75432   75429       7   75438   75435       6   75441
   75435       6   75441   75438       7   75447   75444       6   75450   75444
       6   75450   75447       7   75456   75453       6   75459   75453       6
   75459   75456       7   75465   75462       6   75468   75462       6   75468
   75465       7   75474   75471       6   75477   75471       6   75477   75474
       7   75483   75480       6   75486   75480       6   75486   75483       7
   75492   75489       6   75495   75489       6   75495   75492       7   75501
   75498       6   75504   75498       6   75504   75501       7   75510   75507
       6   75513   75507       6   75513   75510       7   75519   75516       6
   75522   75516       6   75522   75519       7   75528   75525       6   75531
   75525       6   75531   75528       7   75537   75534       6   75540   75534
       6   75540   75537       7   75546   75543       6   75549   75543       6
   75549   75546       7   75555   75552       6   75558   75552       6   75558
   75555       7   75564   75561       6   75567   75561       6   75567   75564
       7   75573   75570       6   75576   75570       6   75576   75573       7
   75582   75579       6   75585   75579       6   75585   75582       7   75591
   75588       6   75594   75588       6   75594   75591       7   75600   75597
       6   75603   75597       6   75603   75600       7   75609   75606       6
   75612   75606       6   75612   75609       7   75618   75615       6   75621
   75615       6   75621   75618       7   75627   75624       6   75630   75624
       6   75630   75627       7   75636   75633       6   75639   75633       6
   75639   75636       7   75645   75642       6   75648   75642       6   75648
   75645       7   75654   75651       6   75657   75651       6   75657   75654
       7   75663   75660       6   75666   75660       6   75666   75663       7
   75672   75669       6   75675   75669       6   75675   75672       7   75681
   75678       6   75684   75678       6   75684   75681       7   75690   75687
       6   75693   75687       6   75693   75690       7   75699   75696       6
   75702   75696       6   75702   75699       7   75708   75705       6   75711
   75705       6   75711   75708       7   75717   75714       6   75720   75714
       6   75720   75717       7   75726   75723       6   75729   75723       6
   75729   75726       7   75735   75732       6   75738   75732       6   75738
   75735       7   75744   75741       6   75747   75741       6   75747   75744
       7   75753   75750       6   75756   75750       6   75756   75753       7
   75762   75759       6   75765   75759       6   75765   75762       7   75771
   75768       6   75774   75768       6   75774   75771       7   75780   75777
       6   75783   75777       6   75783   75780       7   75789   75786       6
   75792   75786       6   75792   75789       7   75798   75795       6   75801
   75795       6   75801   75798       7   75807   75804       6   75810   75804
       6   75810   75807       7   75816   75813       6   75819   75813       6
   75819   75816       7   75825   75822       6   75828   75822       6   75828
   75825       7   75834   75831       6   75837   75831       6   75837   75834
       7   75843   75840       6   75846   75840       6   75846   75843       7
   75852   75849       6   75855   75849       6   75855   75852       7   75861
   75858       6   75864   75858       6   75864   75861       7   75870   75867
       6   75873   75867       6   75873   75870       7   75879   75876       6
   75882   75876       6   75882   75879       7   75888   75885       6   75891
   75885       6   75891   75888       7   75897   75894       6   75900   75894
       6   75900   75897       7   75906   75903       6   75909   75903       6
   75909   75906       7   75915   75912       6   75918   75912       6   75918
   75915       7   75924   75921       6   75927   75921       6   75927   75924
       7   75933   75930       6   75936   75930       6   75936   75933       7
   75942   75939       6   75945   75939       6   75945   75942       7   75951
   75948       6   75954   75948       6   75954   75951       7   75960   75957
       6   75963   75957       6   75963   75960       7   75969   75966       6
   75972   75966       6   75972   75969       7   75978   75975       6   75981
   75975       6   75981   75978       7   75987   75984       6   75990   75984
       6   75990   75987       7   75996   75993       6   75999   75993       6
   75999   75996       7   76005   76002       6   76008   76002       6   76008
   76005       7   76014   76011       6   76017   76011       6   76017   76014
       7   76023   76020       6   76026   76020       6   76026   76023       7
   76032   76029       6   76035   76029       6   76035   76032       7   76041
   76038       6   76044   76038       6   76044   76041       7   76050   76047
       6   76053   76047       6   76053   76050       7   76059   76056       6
   76062   76056       6   76062   76059       7   76068   76065       6   76071
   76065       6   76071   76068       7   76077   76074       6   76080   76074
       6   76080   76077       7   76086   76083       6   76089   76083       6
   76089   76086       7   76095   76092       6   76098   76092       6   76098
   76095       7   76104   76101       6   76107   76101       6   76107   76104
       7   76113   76110       6   76116   76110       6   76116   76113       7
   76122   76119       6   76125   76119       6   76125   76122       7   76131
   76128       6   76134   76128       6   76134   76131       7   76140   76137
       6   76143   76137       6   76143   76140       7   76149   76146       6
   76152   76146       6   76152   76149       7   76158   76155       6   76161
   76155       6   76161   76158       7   76167   76164       6   76170   76164
       6   76170   76167       7   76176   76173       6   76179   76173       6
   76179   76176       7   76185   76182       6   76188   76182       6   76188
   76185       7   76194   76191       6   76197   76191       6   76197   76194
       7   76203   76200       6   76206   76200       6   76206   76203       7
   76212   76209       6   76215   76209       6   76215   76212       7   76221
   76218       6   76224   76218       6   76224   76221       7   76230   76227
       6   76233   76227       6   76233   76230       7   76239   76236       6
   76242   76236       6   76242   76239       7   76248   76245       6   76251
   76245       6   76251   76248       7   76257   76254       6   76260   76254
       6   76260   76257       7   76266   76263       6   76269   76263       6
   76269   76266       7   76275   76272       6   76278   76272       6   76278
   76275       7   76284   76281       6   76287   76281       6   76287   76284
       7   76293   76290       6   76296   76290       6   76296   76293       7
   76302   76299       6   76305   76299       6   76305   76302       7   76311
   76308       6   76314   76308       6   76314   76311       7   76320   76317
       6   76323   76317       6   76323   76320       7   76329   76326       6
   76332   76326       6   76332   76329       7   76338   76335       6   76341
   76335       6   76341   76338       7   76347   76344       6   76350   76344
       6   76350   76347       7   76356   76353       6   76359   76353       6
   76359   76356       7   76365   76362       6   76368   76362       6   76368
   76365       7   76374   76371       6   76377   76371       6   76377   76374
       7   76383   76380       6   76386   76380       6   76386   76383       7
   76392   76389       6   76395   76389       6   76395   76392       7   76401
   76398       6   76404   76398       6   76404   76401       7   76410   76407
       6   76413   76407       6   76413   76410       7   76419   76416       6
   76422   76416       6   76422   76419       7   76428   76425       6   76431
   76425       6   76431   76428       7   76437   76434       6   76440   76434
       6   76440   76437       7   76446   76443       6   76449   76443       6
   76449   76446       7   76455   76452       6   76458   76452       6   76458
   76455       7   76464   76461       6   76467   76461       6   76467   76464
       7   76473   76470       6   76476   76470       6   76476   76473       7
   76482   76479       6   76485   76479       6   76485   76482       7   76491
   76488       6   76494   76488       6   76494   76491       7   76500   76497
       6   76503   76497       6   76503   76500       7   76509   76506       6
   76512   76506       6   76512   76509       7   76518   76515       6   76521
   76515       6   76521   76518       7   76527   76524       6   76530   76524
       6   76530   76527       7   76536   76533       6   76539   76533       6
   76539   76536       7   76545   76542       6   76548   76542       6   76548
   76545       7   76554   76551       6   76557   76551       6   76557   76554
       7   76563   76560       6   76566   76560       6   76566   76563       7
   76572   76569       6   76575   76569       6   76575   76572       7   76581
   76578       6   76584   76578       6   76584   76581       7   76590   76587
       6   76593   76587       6   76593   76590       7   76599   76596       6
   76602   76596       6   76602   76599       7   76608   76605       6   76611
   76605       6   76611   76608       7   76617   76614       6   76620   76614
       6   76620   76617       7   76626   76623       6   76629   76623       6
   76629   76626       7   76635   76632       6   76638   76632       6   76638
   76635       7   76644   76641       6   76647   76641       6   76647   76644
       7   76653   76650       6   76656   76650       6   76656   76653       7
   76662   76659       6   76665   76659       6   76665   76662       7   76671
   76668       6   76674   76668       6   76674   76671       7   76680   76677
       6   76683   76677       6   76683   76680       7   76689   76686       6
   76692   76686       6   76692   76689       7   76698   76695       6   76701
   76695       6   76701   76698       7   76707   76704       6   76710   76704
       6   76710   76707       7   76716   76713       6   76719   76713       6
   76719   76716       7   76725   76722       6   76728   76722       6   76728
   76725       7   76734   76731       6   76737   76731       6   76737   76734
       7   76743   76740       6   76746   76740       6   76746   76743       7
   76752   76749       6   76755   76749       6   76755   76752       7   76761
   76758       6   76764   76758       6   76764   76761       7   76770   76767
       6   76773   76767       6   76773   76770       7   76779   76776       6
   76782   76776       6   76782   76779       7   76788   76785       6   76791
   76785       6   76791   76788       7   76797   76794       6   76800   76794
       6   76800   76797       7   76806   76803       6   76809   76803       6
   76809   76806       7   76815   76812       6   76818   76812       6   76818
   76815       7   76824   76821       6   76827   76821       6   76827   76824
       7   76833   76830       6   76836   76830       6   76836   76833       7
   76842   76839       6   76845   76839       6   76845   76842       7   76851
   76848       6   76854   76848       6   76854   76851       7   76860   76857
       6   76863   76857       6   76863   76860       7   76869   76866       6
   76872   76866       6   76872   76869       7   76878   76875       6   76881
   76875       6   76881   76878       7   76887   76884       6   76890   76884
       6   76890   76887       7   76896   76893       6   76899   76893       6
   76899   76896       7   76905   76902       6   76908   76902       6   76908
   76905       7   76914   76911       6   76917   76911       6   76917   76914
       7   76923   76920       6   76926   76920       6   76926   76923       7
   76932   76929       6   76935   76929       6   76935   76932       7   76941
   76938       6   76944   76938       6   76944   76941       7   76950   76947
       6   76953   76947       6   76953   76950       7   76959   76956       6
   76962   76956       6   76962   76959       7   76968   76965       6   76971
   76965       6   76971   76968       7   76977   76974       6   76980   76974
       6   76980   76977       7   76986   76983       6   76989   76983       6
   76989   76986       7   76995   76992       6   76998   76992       6   76998
   76995       7   77004   77001       6   77007   77001       6   77007   77004
       7   77013   77010       6   77016   77010       6   77016   77013       7
   77022   77019       6   77025   77019       6   77025   77022       7   77031
   77028       6   77034   77028       6   77034   77031       7   77040   77037
       6   77043   77037       6   77043   77040       7   77049   77046       6
   77052   77046       6   77052   77049       7   77058   77055       6   77061
   77055       6   77061   77058       7   77067   77064       6   77070   77064
       6   77070   77067       7   77076   77073       6   77079   77073       6
   77079   77076       7   77085   77082       6   77088   77082       6   77088
   77085       7   77094   77091       6   77097   77091       6   77097   77094
       7   77103   77100       6   77106   77100       6   77106   77103       7
   77112   77109       6   77115   77109       6   77115   77112       7   77121
   77118       6   77124   77118       6   77124   77121       7   77130   77127
       6   77133   77127       6   77133   77130       7   77139   77136       6
   77142   77136       6   77142   77139       7   77148   77145       6   77151
   77145       6   77151   77148       7   77157   77154       6   77160   77154
       6   77160   77157       7   77166   77163       6   77169   77163       6
   77169   77166       7   77175   77172       6   77178   77172       6   77178
   77175       7   77184   77181       6   77187   77181       6   77187   77184
       7   77193   77190       6   77196   77190       6   77196   77193       7
   77202   77199       6   77205   77199       6   77205   77202       7   77211
   77208       6   77214   77208       6   77214   77211       7   77220   77217
       6   77223   77217       6   77223   77220       7   77229   77226       6
   77232   77226       6   77232   77229       7   77238   77235       6   77241
   77235       6   77241   77238       7   77247   77244       6   77250   77244
       6   77250   77247       7   77256   77253       6   77259   77253       6
   77259   77256       7   77265   77262       6   77268   77262       6   77268
   77265       7   77274   77271       6   77277   77271       6   77277   77274
       7   77283   77280       6   77286   77280       6   77286   77283       7
   77292   77289       6   77295   77289       6   77295   77292       7   77301
   77298       6   77304   77298       6   77304   77301       7   77310   77307
       6   77313   77307       6   77313   77310       7   77319   77316       6
   77322   77316       6   77322   77319       7   77328   77325       6   77331
   77325       6   77331   77328       7   77337   77334       6   77340   77334
       6   77340   77337       7   77346   77343       6   77349   77343       6
   77349   77346       7   77355   77352       6   77358   77352       6   77358
   77355       7   77364   77361       6   77367   77361       6   77367   77364
       7   77373   77370       6   77376   77370       6   77376   77373       7
   77382   77379       6   77385   77379       6   77385   77382       7   77391
   77388       6   77394   77388       6   77394   77391       7   77400   77397
       6   77403   77397       6   77403   77400       7   77409   77406       6
   77412   77406       6   77412   77409       7   77418   77415       6   77421
   77415       6   77421   77418       7   77427   77424       6   77430   77424
       6   77430   77427       7   77436   77433       6   77439   77433       6
   77439   77436       7   77445   77442       6   77448   77442       6   77448
   77445       7   77454   77451       6   77457   77451       6   77457   77454
       7   77463   77460       6   77466   77460       6   77466   77463       7
   77472   77469       6   77475   77469       6   77475   77472       7   77481
   77478       6   77484   77478       6   77484   77481       7   77490   77487
       6   77493   77487       6   77493   77490       7   77499   77496       6
   77502   77496       6   77502   77499       7   77508   77505       6   77511
   77505       6   77511   77508       7   77517   77514       6   77520   77514
       6   77520   77517       7   77526   77523       6   77529   77523       6
   77529   77526       7   77535   77532       6   77538   77532       6   77538
   77535       7   77544   77541       6   77547   77541       6   77547   77544
       7   77553   77550       6   77556   77550       6   77556   77553       7
   77562   77559       6   77565   77559       6   77565   77562       7   77571
   77568       6   77574   77568       6   77574   77571       7   77580   77577
       6   77583   77577       6   77583   77580       7   77589   77586       6
   77592   77586       6   77592   77589       7   77598   77595       6   77601
   77595       6   77601   77598       7   77607   77604       6   77610   77604
       6   77610   77607       7   77616   77613       6   77619   77613       6
   77619   77616       7   77625   77622       6   77628   77622       6   77628
   77625       7   77634   77631       6   77637   77631       6   77637   77634
       7   77643   77640       6   77646   77640       6   77646   77643       7
   77652   77649       6   77655   77649       6   77655   77652       7   77661
   77658       6   77664   77658       6   77664   77661       7   77670   77667
       6   77673   77667       6   77673   77670       7   77679   77676       6
   77682   77676       6   77682   77679       7   77688   77685       6   77691
   77685       6   77691   77688       7   77697   77694       6   77700   77694
       6   77700   77697       7   77706   77703       6   77709   77703       6
   77709   77706       7   77715   77712       6   77718   77712       6   77718
   77715       7   77724   77721       6   77727   77721       6   77727   77724
       7   77733   77730       6   77736   77730       6   77736   77733       7
   77742   77739       6   77745   77739       6   77745   77742       7   77751
   77748       6   77754   77748       6   77754   77751       7   77760   77757
       6   77763   77757       6   77763   77760       7   77769   77766       6
   77772   77766       6   77772   77769       7   77778   77775       6   77781
   77775       6   77781   77778       7   77787   77784       6   77790   77784
       6   77790   77787       7   77796   77793       6   77799   77793       6
   77799   77796       7   77805   77802       6   77808   77802       6   77808
   77805       7   77814   77811       6   77817   77811       6   77817   77814
       7   77823   77820       6   77826   77820       6   77826   77823       7
   77832   77829       6   77835   77829       6   77835   77832       7   77841
   77838       6   77844   77838       6   77844   77841       7   77850   77847
       6   77853   77847       6   77853   77850       7   77859   77856       6
   77862   77856       6   77862   77859       7   77868   77865       6   77871
   77865       6   77871   77868       7   77877   77874       6   77880   77874
       6   77880   77877       7   77886   77883       6   77889   77883       6
   77889   77886       7   77895   77892       6   77898   77892       6   77898
   77895       7   77904   77901       6   77907   77901       6   77907   77904
       7   77913   77910       6   77916   77910       6   77916   77913       7
   77922   77919       6   77925   77919       6   77925   77922       7   77931
   77928       6   77934   77928       6   77934   77931       7   77940   77937
       6   77943   77937       6   77943   77940       7   77949   77946       6
   77952   77946       6   77952   77949       7   77958   77955       6   77961
   77955       6   77961   77958       7   77967   77964       6   77970   77964
       6   77970   77967       7   77976   77973       6   77979   77973       6
   77979   77976       7   77985   77982       6   77988   77982       6   77988
   77985       7   77994   77991       6   77997   77991       6   77997   77994
       7   78003   78000       6   78006   78000       6   78006   78003       7
   78012   78009       6   78015   78009       6   78015   78012       7   78021
   78018       6   78024   78018       6   78024   78021       7   78030   78027
       6   78033   78027       6   78033   78030       7   78039   78036       6
   78042   78036       6   78042   78039       7   78048   78045       6   78051
   78045       6   78051   78048       7   78057   78054       6   78060   78054
       6   78060   78057       7   78066   78063       6   78069   78063       6
   78069   78066       7   78075   78072       6   78078   78072       6   78078
   78075       7   78084   78081       6   78087   78081       6   78087   78084
       7   78093   78090       6   78096   78090       6   78096   78093       7
   78102   78099       6   78105   78099       6   78105   78102       7   78111
   78108       6   78114   78108       6   78114   78111       7   78120   78117
       6   78123   78117       6   78123   78120       7   78129   78126       6
   78132   78126       6   78132   78129       7   78138   78135       6   78141
   78135       6   78141   78138       7   78147   78144       6   78150   78144
       6   78150   78147       7   78156   78153       6   78159   78153       6
   78159   78156       7   78165   78162       6   78168   78162       6   78168
   78165       7   78174   78171       6   78177   78171       6   78177   78174
       7   78183   78180       6   78186   78180       6   78186   78183       7
   78192   78189       6   78195   78189       6   78195   78192       7   78201
   78198       6   78204   78198       6   78204   78201       7   78210   78207
       6   78213   78207       6   78213   78210       7   78219   78216       6
   78222   78216       6   78222   78219       7   78228   78225       6   78231
   78225       6   78231   78228       7   78237   78234       6   78240   78234
       6   78240   78237       7   78246   78243       6   78249   78243       6
   78249   78246       7   78255   78252       6   78258   78252       6   78258
   78255       7   78264   78261       6   78267   78261       6   78267   78264
       7   78273   78270       6   78276   78270       6   78276   78273       7
   78282   78279       6   78285   78279       6   78285   78282       7   78291
   78288       6   78294   78288       6   78294   78291       7   78300   78297
       6   78303   78297       6   78303   78300       7   78309   78306       6
   78312   78306       6   78312   78309       7   78318   78315       6   78321
   78315       6   78321   78318       7   78327   78324       6   78330   78324
       6   78330   78327       7   78336   78333       6   78339   78333       6
   78339   78336       7   78345   78342       6   78348   78342       6   78348
   78345       7   78354   78351       6   78357   78351       6   78357   78354
       7   78363   78360       6   78366   78360       6   78366   78363       7
   78372   78369       6   78375   78369       6   78375   78372       7   78381
   78378       6   78384   78378       6   78384   78381       7   78390   78387
       6   78393   78387       6   78393   78390       7   78399   78396       6
   78402   78396       6   78402   78399       7   78408   78405       6   78411
   78405       6   78411   78408       7   78417   78414       6   78420   78414
       6   78420   78417       7   78426   78423       6   78429   78423       6
   78429   78426       7   78435   78432       6   78438   78432       6   78438
   78435       7   78444   78441       6   78447   78441       6   78447   78444
       7   78453   78450       6   78456   78450       6   78456   78453       7
   78462   78459       6   78465   78459       6   78465   78462       7   78471
   78468       6   78474   78468       6   78474   78471       7   78480   78477
       6   78483   78477       6   78483   78480       7   78489   78486       6
   78492   78486       6   78492   78489       7   78498   78495       6   78501
   78495       6   78501   78498       7   78507   78504       6   78510   78504
       6   78510   78507       7   78516   78513       6   78519   78513       6
   78519   78516       7   78525   78522       6   78528   78522       6   78528
   78525       7   78534   78531       6   78537   78531       6   78537   78534
       7   78543   78540       6   78546   78540       6   78546   78543       7
   78552   78549       6   78555   78549       6   78555   78552       7   78561
   78558       6   78564   78558       6   78564   78561       7   78570   78567
       6   78573   78567       6   78573   78570       7   78579   78576       6
   78582   78576       6   78582   78579       7   78588   78585       6   78591
   78585       6   78591   78588       7   78597   78594       6   78600   78594
       6   78600   78597       7   78606   78603       6   78609   78603       6
   78609   78606       7   78615   78612       6   78618   78612       6   78618
   78615       7   78624   78621       6   78627   78621       6   78627   78624
       7   78633   78630       6   78636   78630       6   78636   78633       7
   78642   78639       6   78645   78639       6   78645   78642       7   78651
   78648       6   78654   78648       6   78654   78651       7   78660   78657
       6   78663   78657       6   78663   78660       7   78669   78666       6
   78672   78666       6   78672   78669       7   78678   78675       6   78681
   78675       6   78681   78678       7   78687   78684       6   78690   78684
       6   78690   78687       7   78696   78693       6   78699   78693       6
   78699   78696       7   78705   78702       6   78708   78702       6   78708
   78705       7   78714   78711       6   78717   78711       6   78717   78714
       7   78723   78720       6   78726   78720       6   78726   78723       7
   78732   78729       6   78735   78729       6   78735   78732       7   78741
   78738       6   78744   78738       6   78744   78741       7   78750   78747
       6   78753   78747       6   78753   78750       7   78759   78756       6
   78762   78756       6   78762   78759       7   78768   78765       6   78771
   78765       6   78771   78768       7   78777   78774       6   78780   78774
       6   78780   78777       7   78786   78783       6   78789   78783       6
   78789   78786       7   78795   78792       6   78798   78792       6   78798
   78795       7   78804   78801       6   78807   78801       6   78807   78804
       7   78813   78810       6   78816   78810       6   78816   78813       7
   78822   78819       6   78825   78819       6   78825   78822       7   78831
   78828       6   78834   78828       6   78834   78831       7   78840   78837
       6   78843   78837       6   78843   78840       7   78849   78846       6
   78852   78846       6   78852   78849       7   78858   78855       6   78861
   78855       6   78861   78858       7   78867   78864       6   78870   78864
       6   78870   78867       7   78876   78873       6   78879   78873       6
   78879   78876       7   78885   78882       6   78888   78882       6   78888
   78885       7   78894   78891       6   78897   78891       6   78897   78894
       7   78903   78900       6   78906   78900       6   78906   78903       7
   78912   78909       6   78915   78909       6   78915   78912       7   78921
   78918       6   78924   78918       6   78924   78921       7   78930   78927
       6   78933   78927       6   78933   78930       7   78939   78936       6
   78942   78936       6   78942   78939       7   78948   78945       6   78951
   78945       6   78951   78948       7   78957   78954       6   78960   78954
       6   78960   78957       7   78966   78963       6   78969   78963       6
   78969   78966       7   78975   78972       6   78978   78972       6   78978
   78975       7   78984   78981       6   78987   78981       6   78987   78984
       7   78993   78990       6   78996   78990       6   78996   78993       7
   79002   78999       6   79005   78999       6   79005   79002       7   79011
   79008       6   79014   79008       6   79014   79011       7   79020   79017
       6   79023   79017       6   79023   79020       7   79029   79026       6
   79032   79026       6   79032   79029       7   79038   79035       6   79041
   79035       6   79041   79038       7   79047   79044       6   79050   79044
       6   79050   79047       7   79056   79053       6   79059   79053       6
   79059   79056       7   79065   79062       6   79068   79062       6   79068
   79065       7   79074   79071       6   79077   79071       6   79077   79074
       7   79083   79080       6   79086   79080       6   79086   79083       7
   79092   79089       6   79095   79089       6   79095   79092       7   79101
   79098       6   79104   79098       6   79104   79101       7   79110   79107
       6   79113   79107       6   79113   79110       7   79119   79116       6
   79122   79116       6   79122   79119       7   79128   79125       6   79131
   79125       6   79131   79128       7   79137   79134       6   79140   79134
       6   79140   79137       7   79146   79143       6   79149   79143       6
   79149   79146       7   79155   79152       6   79158   79152       6   79158
   79155       7   79164   79161       6   79167   79161       6   79167   79164
       7   79173   79170       6   79176   79170       6   79176   79173       7
   79182   79179       6   79185   79179       6   79185   79182       7   79191
   79188       6   79194   79188       6   79194   79191       7   79200   79197
       6   79203   79197       6   79203   79200       7   79209   79206       6
   79212   79206       6   79212   79209       7   79218   79215       6   79221
   79215       6   79221   79218       7   79227   79224       6   79230   79224
       6   79230   79227       7   79236   79233       6   79239   79233       6
   79239   79236       7   79245   79242       6   79248   79242       6   79248
   79245       7   79254   79251       6   79257   79251       6   79257   79254
       7   79263   79260       6   79266   79260       6   79266   79263       7
   79272   79269       6   79275   79269       6   79275   79272       7   79281
   79278       6   79284   79278       6   79284   79281       7   79290   79287
       6   79293   79287       6   79293   79290       7   79299   79296       6
   79302   79296       6   79302   79299       7   79308   79305       6   79311
   79305       6   79311   79308       7   79317   79314       6   79320   79314
       6   79320   79317       7   79326   79323       6   79329   79323       6
   79329   79326       7   79335   79332       6   79338   79332       6   79338
   79335       7   79344   79341       6   79347   79341       6   79347   79344
       7   79353   79350       6   79356   79350       6   79356   79353       7
   79362   79359       6   79365   79359       6   79365   79362       7   79371
   79368       6   79374   79368       6   79374   79371       7   79380   79377
       6   79383   79377       6   79383   79380       7   79389   79386       6
   79392   79386       6   79392   79389       7   79398   79395       6   79401
   79395       6   79401   79398       7   79407   79404       6   79410   79404
       6   79410   79407       7   79416   79413       6   79419   79413       6
   79419   79416       7   79425   79422       6   79428   79422       6   79428
   79425       7   79434   79431       6   79437   79431       6   79437   79434
       7   79443   79440       6   79446   79440       6   79446   79443       7
   79452   79449       6   79455   79449       6   79455   79452       7   79461
   79458       6   79464   79458       6   79464   79461       7   79470   79467
       6   79473   79467       6   79473   79470       7   79479   79476       6
   79482   79476       6   79482   79479       7   79488   79485       6   79491
   79485       6   79491   79488       7   79497   79494       6   79500   79494
       6   79500   79497       7   79506   79503       6   79509   79503       6
   79509   79506       7   79515   79512       6   79518   79512       6   79518
   79515       7   79524   79521       6   79527   79521       6   79527   79524
       7   79533   79530       6   79536   79530       6   79536   79533       7
   79542   79539       6   79545   79539       6   79545   79542       7   79551
   79548       6   79554   79548       6   79554   79551       7   79560   79557
       6   79563   79557       6   79563   79560       7   79569   79566       6
   79572   79566       6   79572   79569       7   79578   79575       6   79581
   79575       6   79581   79578       7   79587   79584       6   79590   79584
       6   79590   79587       7   79596   79593       6   79599   79593       6
   79599   79596       7   79605   79602       6   79608   79602       6   79608
   79605       7   79614   79611       6   79617   79611       6   79617   79614
       7   79623   79620       6   79626   79620       6   79626   79623       7
   79632   79629       6   79635   79629       6   79635   79632       7   79641
   79638       6   79644   79638       6   79644   79641       7   79650   79647
       6   79653   79647       6   79653   79650       7   79659   79656       6
   79662   79656       6   79662   79659       7   79668   79665       6   79671
   79665       6   79671   79668       7   79677   79674       6   79680   79674
       6   79680   79677       7   79686   79683       6   79689   79683       6
   79689   79686       7   79695   79692       6   79698   79692       6   79698
   79695       7   79704   79701       6   79707   79701       6   79707   79704
       7   79713   79710       6   79716   79710       6   79716   79713       7
   79722   79719       6   79725   79719       6   79725   79722       7   79731
   79728       6   79734   79728       6   79734   79731       7   79740   79737
       6   79743   79737       6   79743   79740       7   79749   79746       6
   79752   79746       6   79752   79749       7   79758   79755       6   79761
   79755       6   79761   79758       7   79767   79764       6   79770   79764
       6   79770   79767       7   79776   79773       6   79779   79773       6
   79779   79776       7   79785   79782       6   79788   79782       6   79788
   79785       7   79794   79791       6   79797   79791       6   79797   79794
       7   79803   79800       6   79806   79800       6   79806   79803       7
   79812   79809       6   79815   79809       6   79815   79812       7   79821
   79818       6   79824   79818       6   79824   79821       7   79830   79827
       6   79833   79827       6   79833   79830       7   79839   79836       6
   79842   79836       6   79842   79839       7   79848   79845       6   79851
   79845       6   79851   79848       7   79857   79854       6   79860   79854
       6   79860   79857       7   79866   79863       6   79869   79863       6
   79869   79866       7   79875   79872       6   79878   79872       6   79878
   79875       7   79884   79881       6   79887   79881       6   79887   79884
       7   79893   79890       6   79896   79890       6   79896   79893       7
   79902   79899       6   79905   79899       6   79905   79902       7   79911
   79908       6   79914   79908       6   79914   79911       7   79920   79917
       6   79923   79917       6   79923   79920       7   79929   79926       6
   79932   79926       6   79932   79929       7   79938   79935       6   79941
   79935       6   79941   79938       7   79947   79944       6   79950   79944
       6   79950   79947       7   79956   79953       6   79959   79953       6
   79959   79956       7   79965   79962       6   79968   79962       6   79968
   79965       7   79974   79971       6   79977   79971       6   79977   79974
       7   79983   79980       6   79986   79980       6   79986   79983       7
   79992   79989       6   79995   79989       6   79995   79992       7   80001
   79998       6   80004   79998       6   80004   80001       7   80010   80007
       6   80013   80007       6   80013   80010       7   80019   80016       6
   80022   80016       6   80022   80019       7   80028   80025       6   80031
   80025       6   80031   80028       7   80037   80034       6   80040   80034
       6   80040   80037       7   80046   80043       6   80049   80043       6
   80049   80046       7   80055   80052       6   80058   80052       6   80058
   80055       7   80064   80061       6   80067   80061       6   80067   80064
       7   80073   80070       6   80076   80070       6   80076   80073       7
   80082   80079       6   80085   80079       6   80085   80082       7   80091
   80088       6   80094   80088       6   80094   80091       7   80100   80097
       6   80103   80097       6   80103   80100       7   80109   80106       6
   80112   80106       6   80112   80109       7   80118   80115       6   80121
   80115       6   80121   80118       7   80127   80124       6   80130   80124
       6   80130   80127       7   80136   80133       6   80139   80133       6
   80139   80136       7   80145   80142       6   80148   80142       6   80148
   80145       7   80154   80151       6   80157   80151       6   80157   80154
       7   80163   80160       6   80166   80160       6   80166   80163       7
   80172   80169       6   80175   80169       6   80175   80172       7   80181
   80178       6   80184   80178       6   80184   80181       7   80190   80187
       6   80193   80187       6   80193   80190       7   80199   80196       6
   80202   80196       6   80202   80199       7   80208   80205       6   80211
   80205       6   80211   80208       7   80217   80214       6   80220   80214
       6   80220   80217       7   80226   80223       6   80229   80223       6
   80229   80226       7   80235   80232       6   80238   80232       6   80238
   80235       7   80244   80241       6   80247   80241       6   80247   80244
       7   80253   80250       6   80256   80250       6   80256   80253       7
   80262   80259       6   80265   80259       6   80265   80262       7   80271
   80268       6   80274   80268       6   80274   80271       7   80280   80277
       6   80283   80277       6   80283   80280       7   80289   80286       6
   80292   80286       6   80292   80289       7   80298   80295       6   80301
   80295       6   80301   80298       7   80307   80304       6   80310   80304
       6   80310   80307       7   80316   80313       6   80319   80313       6
   80319   80316       7   80325   80322       6   80328   80322       6   80328
   80325       7   80334   80331       6   80337   80331       6   80337   80334
       7   80343   80340       6   80346   80340       6   80346   80343       7
   80352   80349       6   80355   80349       6   80355   80352       7   80361
   80358       6   80364   80358       6   80364   80361       7   80370   80367
       6   80373   80367       6   80373   80370       7   80379   80376       6
   80382   80376       6   80382   80379       7   80388   80385       6   80391
   80385       6   80391   80388       7   80397   80394       6   80400   80394
       6   80400   80397       7   80406   80403       6   80409   80403       6
   80409   80406       7   80415   80412       6   80418   80412       6   80418
   80415       7   80424   80421       6   80427   80421       6   80427   80424
       7   80433   80430       6   80436   80430       6   80436   80433       7
   80442   80439       6   80445   80439       6   80445   80442       7   80451
   80448       6   80454   80448       6   80454   80451       7   80460   80457
       6   80463   80457       6   80463   80460       7   80469   80466       6
   80472   80466       6   80472   80469       7   80478   80475       6   80481
   80475       6   80481   80478       7   80487   80484       6   80490   80484
       6   80490   80487       7   80496   80493       6   80499   80493       6
   80499   80496       7   80505   80502       6   80508   80502       6   80508
   80505       7   80514   80511       6   80517   80511       6   80517   80514
       7   80523   80520       6   80526   80520       6   80526   80523       7
   80532   80529       6   80535   80529       6   80535   80532       7   80541
   80538       6   80544   80538       6   80544   80541       7   80550   80547
       6   80553   80547       6   80553   80550       7   80559   80556       6
   80562   80556       6   80562   80559       7   80568   80565       6   80571
   80565       6   80571   80568       7   80577   80574       6   80580   80574
       6   80580   80577       7   80586   80583       6   80589   80583       6
   80589   80586       7   80595   80592       6   80598   80592       6   80598
   80595       7   80604   80601       6   80607   80601       6   80607   80604
       7   80613   80610       6   80616   80610       6   80616   80613       7
   80622   80619       6   80625   80619       6   80625   80622       7   80631
   80628       6   80634   80628       6   80634   80631       7   80640   80637
       6   80643   80637       6   80643   80640       7   80649   80646       6
   80652   80646       6   80652   80649       7   80658   80655       6   80661
   80655       6   80661   80658       7   80667   80664       6   80670   80664
       6   80670   80667       7   80676   80673       6   80679   80673       6
   80679   80676       7   80685   80682       6   80688   80682       6   80688
   80685       7   80694   80691       6   80697   80691       6   80697   80694
       7   80703   80700       6   80706   80700       6   80706   80703       7
   80712   80709       6   80715   80709       6   80715   80712       7   80721
   80718       6   80724   80718       6   80724   80721       7   80730   80727
       6   80733   80727       6   80733   80730       7   80739   80736       6
   80742   80736       6   80742   80739       7   80748   80745       6   80751
   80745       6   80751   80748       7   80757   80754       6   80760   80754
       6   80760   80757       7   80766   80763       6   80769   80763       6
   80769   80766       7   80775   80772       6   80778   80772       6   80778
   80775       7   80784   80781       6   80787   80781       6   80787   80784
       7   80793   80790       6   80796   80790       6   80796   80793       7
   80802   80799       6   80805   80799       6   80805   80802       7   80811
   80808       6   80814   80808       6   80814   80811       7   80820   80817
       6   80823   80817       6   80823   80820       7   80829   80826       6
   80832   80826       6   80832   80829       7   80838   80835       6   80841
   80835       6   80841   80838       7   80847   80844       6   80850   80844
       6   80850   80847       7   80856   80853       6   80859   80853       6
   80859   80856       7   80865   80862       6   80868   80862       6   80868
   80865       7   80874   80871       6   80877   80871       6   80877   80874
       7   80883   80880       6   80886   80880       6   80886   80883       7
   80892   80889       6   80895   80889       6   80895   80892       7   80901
   80898       6   80904   80898       6   80904   80901       7   80910   80907
       6   80913   80907       6   80913   80910       7   80919   80916       6
   80922   80916       6   80922   80919       7   80928   80925       6   80931
   80925       6   80931   80928       7   80937   80934       6   80940   80934
       6   80940   80937       7   80946   80943       6   80949   80943       6
   80949   80946       7   80955   80952       6   80958   80952       6   80958
   80955       7   80964   80961       6   80967   80961       6   80967   80964
       7   80973   80970       6   80976   80970       6   80976   80973       7
   80982   80979       6   80985   80979       6   80985   80982       7   80991
   80988       6   80994   80988       6   80994   80991       7   81000   80997
       6   81003   80997       6   81003   81000       7   81009   81006       6
   81012   81006       6   81012   81009       7   81018   81015       6   81021
   81015       6   81021   81018       7   81027   81024       6   81030   81024
       6   81030   81027       7   81036   81033       6   81039   81033       6
   81039   81036       7   81045   81042       6   81048   81042       6   81048
   81045       7   81054   81051       6   81057   81051       6   81057   81054
       7   81063   81060       6   81066   81060       6   81066   81063       7
   81072   81069       6   81075   81069       6   81075   81072       7   81081
   81078       6   81084   81078       6   81084   81081       7   81090   81087
       6   81093   81087       6   81093   81090       7   81099   81096       6
   81102   81096       6   81102   81099       7   81108   81105       6   81111
   81105       6   81111   81108       7   81117   81114       6   81120   81114
       6   81120   81117       7   81126   81123       6   81129   81123       6
   81129   81126       7   81135   81132       6   81138   81132       6   81138
   81135       7   81144   81141       6   81147   81141       6   81147   81144
       7   81153   81150       6   81156   81150       6   81156   81153       7
   81162   81159       6   81165   81159       6   81165   81162       7   81171
   81168       6   81174   81168       6   81174   81171       7   81180   81177
       6   81183   81177       6   81183   81180       7   81189   81186       6
   81192   81186       6   81192   81189       7   81198   81195       6   81201
   81195       6   81201   81198       7   81207   81204       6   81210   81204
       6   81210   81207       7   81216   81213       6   81219   81213       6
   81219   81216       7   81225   81222       6   81228   81222       6   81228
   81225       7   81234   81231       6   81237   81231       6   81237   81234
       7   81243   81240       6   81246   81240       6   81246   81243       7
   81252   81249       6   81255   81249       6   81255   81252       7   81261
   81258       6   81264   81258       6   81264   81261       7   81270   81267
       6   81273   81267       6   81273   81270       7   81279   81276       6
   81282   81276       6   81282   81279       7   81288   81285       6   81291
   81285       6   81291   81288       7   81297   81294       6   81300   81294
       6   81300   81297       7   81306   81303       6   81309   81303       6
   81309   81306       7   81315   81312       6   81318   81312       6   81318
   81315       7   81324   81321       6   81327   81321       6   81327   81324
       7   81333   81330       6   81336   81330       6   81336   81333       7
   81342   81339       6   81345   81339       6   81345   81342       7   81351
   81348       6   81354   81348       6   81354   81351       7   81360   81357
       6   81363   81357       6   81363   81360       7   81369   81366       6
   81372   81366       6   81372   81369       7   81378   81375       6   81381
   81375       6   81381   81378       7   81387   81384       6   81390   81384
       6   81390   81387       7   81396   81393       6   81399   81393       6
   81399   81396       7   81405   81402       6   81408   81402       6   81408
   81405       7   81414   81411       6   81417   81411       6   81417   81414
       7   81423   81420       6   81426   81420       6   81426   81423       7
   81432   81429       6   81435   81429       6   81435   81432       7   81441
   81438       6   81444   81438       6   81444   81441       7   81450   81447
       6   81453   81447       6   81453   81450       7   81459   81456       6
   81462   81456       6   81462   81459       7   81468   81465       6   81471
   81465       6   81471   81468       7   81477   81474       6   81480   81474
       6   81480   81477       7   81486   81483       6   81489   81483       6
   81489   81486       7   81495   81492       6   81498   81492       6   81498
   81495       7   81504   81501       6   81507   81501       6   81507   81504
       7   81513   81510       6   81516   81510       6   81516   81513       7
   81522   81519       6   81525   81519       6   81525   81522       7   81531
   81528       6   81534   81528       6   81534   81531       7   81540   81537
       6   81543   81537       6   81543   81540       7   81549   81546       6
   81552   81546       6   81552   81549       7   81558   81555       6   81561
   81555       6   81561   81558       7   81567   81564       6   81570   81564
       6   81570   81567       7   81576   81573       6   81579   81573       6
   81579   81576       7   81585   81582       6   81588   81582       6   81588
   81585       7   81594   81591       6   81597   81591       6   81597   81594
       7   81603   81600       6   81606   81600       6   81606   81603       7
   81612   81609       6   81615   81609       6   81615   81612       7   81621
   81618       6   81624   81618       6   81624   81621       7   81630   81627
       6   81633   81627       6   81633   81630       7   81639   81636       6
   81642   81636       6   81642   81639       7   81648   81645       6   81651
   81645       6   81651   81648       7   81657   81654       6   81660   81654
       6   81660   81657       7   81666   81663       6   81669   81663       6
   81669   81666       7   81675   81672       6   81678   81672       6   81678
   81675       7   81684   81681       6   81687   81681       6   81687   81684
       7   81693   81690       6   81696   81690       6   81696   81693       7
   81702   81699       6   81705   81699       6   81705   81702       7   81711
   81708       6   81714   81708       6   81714   81711       7   81720   81717
       6   81723   81717       6   81723   81720       7   81729   81726       6
   81732   81726       6   81732   81729       7   81738   81735       6   81741
   81735       6   81741   81738       7   81747   81744       6   81750   81744
       6   81750   81747       7   81756   81753       6   81759   81753       6
   81759   81756       7   81765   81762       6   81768   81762       6   81768
   81765       7   81774   81771       6   81777   81771       6   81777   81774
       7   81783   81780       6   81786   81780       6   81786   81783       7
   81792   81789       6   81795   81789       6   81795   81792       7   81801
   81798       6   81804   81798       6   81804   81801       7   81810   81807
       6   81813   81807       6   81813   81810       7   81819   81816       6
   81822   81816       6   81822   81819       7   81828   81825       6   81831
   81825       6   81831   81828       7   81837   81834       6   81840   81834
       6   81840   81837       7   81846   81843       6   81849   81843       6
   81849   81846       7   81855   81852       6   81858   81852       6   81858
   81855       7   81864   81861       6   81867   81861       6   81867   81864
       7   81873   81870       6   81876   81870       6   81876   81873       7
   81882   81879       6   81885   81879       6   81885   81882       7   81891
   81888       6   81894   81888       6   81894   81891       7   81900   81897
       6   81903   81897       6   81903   81900       7   81909   81906       6
   81912   81906       6   81912   81909       7   81918   81915       6   81921
   81915       6   81921   81918       7   81927   81924       6   81930   81924
       6   81930   81927       7   81936   81933       6   81939   81933       6
   81939   81936       7   81945   81942       6   81948   81942       6   81948
   81945       7   81954   81951       6   81957   81951       6   81957   81954
       7   81963   81960       6   81966   81960       6   81966   81963       7
   81972   81969       6   81975   81969       6   81975   81972       7   81981
   81978       6   81984   81978       6   81984   81981       7   81990   81987
       6   81993   81987       6   81993   81990       7   81999   81996       6
   82002   81996       6   82002   81999       7   82008   82005       6   82011
   82005       6   82011   82008       7   82017   82014       6   82020   82014
       6   82020   82017       7   82026   82023       6   82029   82023       6
   82029   82026       7   82035   82032       6   82038   82032       6   82038
   82035       7   82044   82041       6   82047   82041       6   82047   82044
       7   82053   82050       6   82056   82050       6   82056   82053       7
   82062   82059       6   82065   82059       6   82065   82062       7   82071
   82068       6   82074   82068       6   82074   82071       7   82080   82077
       6   82083   82077       6   82083   82080       7   82089   82086       6
   82092   82086       6   82092   82089       7   82098   82095       6   82101
   82095       6   82101   82098       7   82107   82104       6   82110   82104
       6   82110   82107       7   82116   82113       6   82119   82113       6
   82119   82116       7   82125   82122       6   82128   82122       6   82128
   82125       7   82134   82131       6   82137   82131       6   82137   82134
       7   82143   82140       6   82146   82140       6   82146   82143       7
   82152   82149       6   82155   82149       6   82155   82152       7   82161
   82158       6   82164   82158       6   82164   82161       7   82170   82167
       6   82173   82167       6   82173   82170       7   82179   82176       6
   82182   82176       6   82182   82179       7   82188   82185       6   82191
   82185       6   82191   82188       7   82197   82194       6   82200   82194
       6   82200   82197       7   82206   82203       6   82209   82203       6
   82209   82206       7   82215   82212       6   82218   82212       6   82218
   82215       7   82224   82221       6   82227   82221       6   82227   82224
       7   82233   82230       6   82236   82230       6   82236   82233       7
   82242   82239       6   82245   82239       6   82245   82242       7   82251
   82248       6   82254   82248       6   82254   82251       7   82260   82257
       6   82263   82257       6   82263   82260       7   82269   82266       6
   82272   82266       6   82272   82269       7   82278   82275       6   82281
   82275       6   82281   82278       7   82287   82284       6   82290   82284
       6   82290   82287       7   82296   82293       6   82299   82293       6
   82299   82296       7   82305   82302       6   82308   82302       6   82308
   82305       7   82314   82311       6   82317   82311       6   82317   82314
       7   82323   82320       6   82326   82320       6   82326   82323       7
   82332   82329       6   82335   82329       6   82335   82332       7   82341
   82338       6   82344   82338       6   82344   82341       7   82350   82347
       6   82353   82347       6   82353   82350       7   82359   82356       6
   82362   82356       6   82362   82359       7   82368   82365       6   82371
   82365       6   82371   82368       7   82377   82374       6   82380   82374
       6   82380   82377       7   82386   82383       6   82389   82383       6
   82389   82386       7   82395   82392       6   82398   82392       6   82398
   82395       7   82404   82401       6   82407   82401       6   82407   82404
       7   82413   82410       6   82416   82410       6   82416   82413       7
   82422   82419       6   82425   82419       6   82425   82422       7   82431
   82428       6   82434   82428       6   82434   82431       7   82440   82437
       6   82443   82437       6   82443   82440       7   82449   82446       6
   82452   82446       6   82452   82449       7   82458   82455       6   82461
   82455       6   82461   82458       7   82467   82464       6   82470   82464
       6   82470   82467       7   82476   82473       6   82479   82473       6
   82479   82476       7   82485   82482       6   82488   82482       6   82488
   82485       7   82494   82491       6   82497   82491       6   82497   82494
       7   82503   82500       6   82506   82500       6   82506   82503       7
   82512   82509       6   82515   82509       6   82515   82512       7   82521
   82518       6   82524   82518       6   82524   82521       7   82530   82527
       6   82533   82527       6   82533   82530       7   82539   82536       6
   82542   82536       6   82542   82539       7   82548   82545       6   82551
   82545       6   82551   82548       7   82557   82554       6   82560   82554
       6   82560   82557       7   82566   82563       6   82569   82563       6
   82569   82566       7   82575   82572       6   82578   82572       6   82578
   82575       7   82584   82581       6   82587   82581       6   82587   82584
       7   82593   82590       6   82596   82590       6   82596   82593       7
   82602   82599       6   82605   82599       6   82605   82602       7   82611
   82608       6   82614   82608       6   82614   82611       7   82620   82617
       6   82623   82617       6   82623   82620       7   82629   82626       6
   82632   82626       6   82632   82629       7   82638   82635       6   82641
   82635       6   82641   82638       7   82647   82644       6   82650   82644
       6   82650   82647       7   82656   82653       6   82659   82653       6
   82659   82656       7   82665   82662       6   82668   82662       6   82668
   82665       7   82674   82671       6   82677   82671       6   82677   82674
       7   82683   82680       6   82686   82680       6   82686   82683       7
   82692   82689       6   82695   82689       6   82695   82692       7   82701
   82698       6   82704   82698       6   82704   82701       7   82710   82707
       6   82713   82707       6   82713   82710       7   82719   82716       6
   82722   82716       6   82722   82719       7   82728   82725       6   82731
   82725       6   82731   82728       7   82737   82734       6   82740   82734
       6   82740   82737       7   82746   82743       6   82749   82743       6
   82749   82746       7   82755   82752       6   82758   82752       6   82758
   82755       7   82764   82761       6   82767   82761       6   82767   82764
       7   82773   82770       6   82776   82770       6   82776   82773       7
   82782   82779       6   82785   82779       6   82785   82782       7   82791
   82788       6   82794   82788       6   82794   82791       7   82800   82797
       6   82803   82797       6   82803   82800       7   82809   82806       6
   82812   82806       6   82812   82809       7   82818   82815       6   82821
   82815       6   82821   82818       7   82827   82824       6   82830   82824
       6   82830   82827       7   82836   82833       6   82839   82833       6
   82839   82836       7   82845   82842       6   82848   82842       6   82848
   82845       7   82854   82851       6   82857   82851       6   82857   82854
       7   82863   82860       6   82866   82860       6   82866   82863       7
   82872   82869       6   82875   82869       6   82875   82872       7   82881
   82878       6   82884   82878       6   82884   82881       7   82890   82887
       6   82893   82887       6   82893   82890       7   82899   82896       6
   82902   82896       6   82902   82899       7   82908   82905       6   82911
   82905       6   82911   82908       7   82917   82914       6   82920   82914
       6   82920   82917       7   82926   82923       6   82929   82923       6
   82929   82926       7   82935   82932       6   82938   82932       6   82938
   82935       7   82944   82941       6   82947   82941       6   82947   82944
       7   82953   82950       6   82956   82950       6   82956   82953       7
   82962   82959       6   82965   82959       6   82965   82962       7   82971
   82968       6   82974   82968       6   82974   82971       7   82980   82977
       6   82983   82977       6   82983   82980       7   82989   82986       6
   82992   82986       6   82992   82989       7   82998   82995       6   83001
   82995       6   83001   82998       7   83007   83004       6   83010   83004
       6   83010   83007       7   83016   83013       6   83019   83013       6
   83019   83016       7   83025   83022       6   83028   83022       6   83028
   83025       7   83034   83031       6   83037   83031       6   83037   83034
       7   83043   83040       6   83046   83040       6   83046   83043       7
   83052   83049       6   83055   83049       6   83055   83052       7   83061
   83058       6   83064   83058       6   83064   83061       7   83070   83067
       6   83073   83067       6   83073   83070       7   83079   83076       6
   83082   83076       6   83082   83079       7   83088   83085       6   83091
   83085       6   83091   83088       7   83097   83094       6   83100   83094
       6   83100   83097       7   83106   83103       6   83109   83103       6
   83109   83106       7   83115   83112       6   83118   83112       6   83118
   83115       7   83124   83121       6   83127   83121       6   83127   83124
       7   83133   83130       6   83136   83130       6   83136   83133       7
   83142   83139       6   83145   83139       6   83145   83142       7   83151
   83148       6   83154   83148       6   83154   83151       7   83160   83157
       6   83163   83157       6   83163   83160       7   83169   83166       6
   83172   83166       6   83172   83169       7   83178   83175       6   83181
   83175       6   83181   83178       7   83187   83184       6   83190   83184
       6   83190   83187       7   83196   83193       6   83199   83193       6
   83199   83196       7   83205   83202       6   83208   83202       6   83208
   83205       7   83214   83211       6   83217   83211       6   83217   83214
       7   83223   83220       6   83226   83220       6   83226   83223       7
   83232   83229       6   83235   83229       6   83235   83232       7   83241
   83238       6   83244   83238       6   83244   83241       7   83250   83247
       6   83253   83247       6   83253   83250       7   83259   83256       6
   83262   83256       6   83262   83259       7   83268   83265       6   83271
   83265       6   83271   83268       7   83277   83274       6   83280   83274
       6   83280   83277       7   83286   83283       6   83289   83283       6
   83289   83286       7   83295   83292       6   83298   83292       6   83298
   83295       7   83304   83301       6   83307   83301       6   83307   83304
       7   83313   83310       6   83316   83310       6   83316   83313       7
   83322   83319       6   83325   83319       6   83325   83322       7   83331
   83328       6   83334   83328       6   83334   83331       7   83340   83337
       6   83343   83337       6   83343   83340       7   83349   83346       6
   83352   83346       6   83352   83349       7   83358   83355       6   83361
   83355       6   83361   83358       7   83367   83364       6   83370   83364
       6   83370   83367       7   83376   83373       6   83379   83373       6
   83379   83376       7   83385   83382       6   83388   83382       6   83388
   83385       7   83394   83391       6   83397   83391       6   83397   83394
       7   83403   83400       6   83406   83400       6   83406   83403       7
   83412   83409       6   83415   83409       6   83415   83412       7   83421
   83418       6   83424   83418       6   83424   83421       7   83430   83427
       6   83433   83427       6   83433   83430       7   83439   83436       6
   83442   83436       6   83442   83439       7   83448   83445       6   83451
   83445       6   83451   83448       7   83457   83454       6   83460   83454
       6   83460   83457       7   83466   83463       6   83469   83463       6
   83469   83466       7   83475   83472       6   83478   83472       6   83478
   83475       7   83484   83481       6   83487   83481       6   83487   83484
       7   83493   83490       6   83496   83490       6   83496   83493       7
   83502   83499       6   83505   83499       6   83505   83502       7   83511
   83508       6   83514   83508       6   83514   83511       7   83520   83517
       6   83523   83517       6   83523   83520       7   83529   83526       6
   83532   83526       6   83532   83529       7   83538   83535       6   83541
   83535       6   83541   83538       7   83547   83544       6   83550   83544
       6   83550   83547       7   83556   83553       6   83559   83553       6
   83559   83556       7   83565   83562       6   83568   83562       6   83568
   83565       7   83574   83571       6   83577   83571       6   83577   83574
       7   83583   83580       6   83586   83580       6   83586   83583       7
   83592   83589       6   83595   83589       6   83595   83592       7   83601
   83598       6   83604   83598       6   83604   83601       7   83610   83607
       6   83613   83607       6   83613   83610       7   83619   83616       6
   83622   83616       6   83622   83619       7   83628   83625       6   83631
   83625       6   83631   83628       7   83637   83634       6   83640   83634
       6   83640   83637       7   83646   83643       6   83649   83643       6
   83649   83646       7   83655   83652       6   83658   83652       6   83658
   83655       7   83664   83661       6   83667   83661       6   83667   83664
       7   83673   83670       6   83676   83670       6   83676   83673       7
   83682   83679       6   83685   83679       6   83685   83682       7   83691
   83688       6   83694   83688       6   83694   83691       7   83700   83697
       6   83703   83697       6   83703   83700       7   83709   83706       6
   83712   83706       6   83712   83709       7   83718   83715       6   83721
   83715       6   83721   83718       7   83727   83724       6   83730   83724
       6   83730   83727       7   83736   83733       6   83739   83733       6
   83739   83736       7   83745   83742       6   83748   83742       6   83748
   83745       7   83754   83751       6   83757   83751       6   83757   83754
       7   83763   83760       6   83766   83760       6   83766   83763       7
   83772   83769       6   83775   83769       6   83775   83772       7   83781
   83778       6   83784   83778       6   83784   83781       7   83790   83787
       6   83793   83787       6   83793   83790       7   83799   83796       6
   83802   83796       6   83802   83799       7   83808   83805       6   83811
   83805       6   83811   83808       7   83817   83814       6   83820   83814
       6   83820   83817       7   83826   83823       6   83829   83823       6
   83829   83826       7   83835   83832       6   83838   83832       6   83838
   83835       7   83844   83841       6   83847   83841       6   83847   83844
       7   83853   83850       6   83856   83850       6   83856   83853       7
   83862   83859       6   83865   83859       6   83865   83862       7   83871
   83868       6   83874   83868       6   83874   83871       7   83880   83877
       6   83883   83877       6   83883   83880       7   83889   83886       6
   83892   83886       6   83892   83889       7   83898   83895       6   83901
   83895       6   83901   83898       7   83907   83904       6   83910   83904
       6   83910   83907       7   83916   83913       6   83919   83913       6
   83919   83916       7   83925   83922       6   83928   83922       6   83928
   83925       7   83934   83931       6   83937   83931       6   83937   83934
       7   83943   83940       6   83946   83940       6   83946   83943       7
   83952   83949       6   83955   83949       6   83955   83952       7   83961
   83958       6   83964   83958       6   83964   83961       7   83970   83967
       6   83973   83967       6   83973   83970       7   83979   83976       6
   83982   83976       6   83982   83979       7   83988   83985       6   83991
   83985       6   83991   83988       7   83997   83994       6   84000   83994
       6   84000   83997       7   84006   84003       6   84009   84003       6
   84009   84006       7   84015   84012       6   84018   84012       6   84018
   84015       7   84024   84021       6   84027   84021       6   84027   84024
       7   84033   84030       6   84036   84030       6   84036   84033       7
   84042   84039       6   84045   84039       6   84045   84042       7   84051
   84048       6   84054   84048       6   84054   84051       7   84060   84057
       6   84063   84057       6   84063   84060       7   84069   84066       6
   84072   84066       6   84072   84069       7   84078   84075       6   84081
   84075       6   84081   84078       7   84087   84084       6   84090   84084
       6   84090   84087       7   84096   84093       6   84099   84093       6
   84099   84096       7   84105   84102       6   84108   84102       6   84108
   84105       7   84114   84111       6   84117   84111       6   84117   84114
       7   84123   84120       6   84126   84120       6   84126   84123       7
   84132   84129       6   84135   84129       6   84135   84132       7   84141
   84138       6   84144   84138       6   84144   84141       7   84150   84147
       6   84153   84147       6   84153   84150       7   84159   84156       6
   84162   84156       6   84162   84159       7   84168   84165       6   84171
   84165       6   84171   84168       7   84177   84174       6   84180   84174
       6   84180   84177       7   84186   84183       6   84189   84183       6
   84189   84186       7   84195   84192       6   84198   84192       6   84198
   84195       7   84204   84201       6   84207   84201       6   84207   84204
       7   84213   84210       6   84216   84210       6   84216   84213       7
   84222   84219       6   84225   84219       6   84225   84222       7   84231
   84228       6   84234   84228       6   84234   84231       7   84240   84237
       6   84243   84237       6   84243   84240       7   84249   84246       6
   84252   84246       6   84252   84249       7   84258   84255       6   84261
   84255       6   84261   84258       7   84267   84264       6   84270   84264
       6   84270   84267       7   84276   84273       6   84279   84273       6
   84279   84276       7   84285   84282       6   84288   84282       6   84288
   84285       7   84294   84291       6   84297   84291       6   84297   84294
       7   84303   84300       6   84306   84300       6   84306   84303       7
   84312   84309       6   84315   84309       6   84315   84312       7   84321
   84318       6   84324   84318       6   84324   84321       7   84330   84327
       6   84333   84327       6   84333   84330       7   84339   84336       6
   84342   84336       6   84342   84339       7   84348   84345       6   84351
   84345       6   84351   84348       7   84357   84354       6   84360   84354
       6   84360   84357       7   84366   84363       6   84369   84363       6
   84369   84366       7   84375   84372       6   84378   84372       6   84378
   84375       7   84384   84381       6   84387   84381       6   84387   84384
       7   84393   84390       6   84396   84390       6   84396   84393       7
   84402   84399       6   84405   84399       6   84405   84402       7   84411
   84408       6   84414   84408       6   84414   84411       7   84420   84417
       6   84423   84417       6   84423   84420       7   84429   84426       6
   84432   84426       6   84432   84429       7   84438   84435       6   84441
   84435       6   84441   84438       7   84447   84444       6   84450   84444
       6   84450   84447       7   84456   84453       6   84459   84453       6
   84459   84456       7   84465   84462       6   84468   84462       6   84468
   84465       7   84474   84471       6   84477   84471       6   84477   84474
       7   84483   84480       6   84486   84480       6   84486   84483       7
   84492   84489       6   84495   84489       6   84495   84492       7   84501
   84498       6   84504   84498       6   84504   84501       7   84510   84507
       6   84513   84507       6   84513   84510       7   84519   84516       6
   84522   84516       6   84522   84519       7   84528   84525       6   84531
   84525       6   84531   84528       7   84537   84534       6   84540   84534
       6   84540   84537       7   84546   84543       6   84549   84543       6
   84549   84546       7   84555   84552       6   84558   84552       6   84558
   84555       7   84564   84561       6   84567   84561       6   84567   84564
       7   84573   84570       6   84576   84570       6   84576   84573       7
   84582   84579       6   84585   84579       6   84585   84582       7   84591
   84588       6   84594   84588       6   84594   84591       7   84600   84597
       6   84603   84597       6   84603   84600       7   84609   84606       6
   84612   84606       6   84612   84609       7   84618   84615       6   84621
   84615       6   84621   84618       7   84627   84624       6   84630   84624
       6   84630   84627       7   84636   84633       6   84639   84633       6
   84639   84636       7   84645   84642       6   84648   84642       6   84648
   84645       7   84654   84651       6   84657   84651       6   84657   84654
       7   84663   84660       6   84666   84660       6   84666   84663       7
   84672   84669       6   84675   84669       6   84675   84672       7   84681
   84678       6   84684   84678       6   84684   84681       7   84690   84687
       6   84693   84687       6   84693   84690       7   84699   84696       6
   84702   84696       6   84702   84699       7   84708   84705       6   84711
   84705       6   84711   84708       7   84717   84714       6   84720   84714
       6   84720   84717       7   84726   84723       6   84729   84723       6
   84729   84726       7   84735   84732       6   84738   84732       6   84738
   84735       7   84744   84741       6   84747   84741       6   84747   84744
       7   84753   84750       6   84756   84750       6   84756   84753       7
   84762   84759       6   84765   84759       6   84765   84762       7   84771
   84768       6   84774   84768       6   84774   84771       7   84780   84777
       6   84783   84777       6   84783   84780       7   84789   84786       6
   84792   84786       6   84792   84789       7   84798   84795       6   84801
   84795       6   84801   84798       7   84807   84804       6   84810   84804
       6   84810   84807       7   84816   84813       6   84819   84813       6
   84819   84816       7   84825   84822       6   84828   84822       6   84828
   84825       7   84834   84831       6   84837   84831       6   84837   84834
       7   84843   84840       6   84846   84840       6   84846   84843       7
   84852   84849       6   84855   84849       6   84855   84852       7   84861
   84858       6   84864   84858       6   84864   84861       7   84870   84867
       6   84873   84867       6   84873   84870       7   84879   84876       6
   84882   84876       6   84882   84879       7   84888   84885       6   84891
   84885       6   84891   84888       7   84897   84894       6   84900   84894
       6   84900   84897       7   84906   84903       6   84909   84903       6
   84909   84906       7   84915   84912       6   84918   84912       6   84918
   84915       7   84924   84921       6   84927   84921       6   84927   84924
       7   84933   84930       6   84936   84930       6   84936   84933       7
   84942   84939       6   84945   84939       6   84945   84942       7   84951
   84948       6   84954   84948       6   84954   84951       7   84960   84957
       6   84963   84957       6   84963   84960       7   84969   84966       6
   84972   84966       6   84972   84969       7   84978   84975       6   84981
   84975       6   84981   84978       7   84987   84984       6   84990   84984
       6   84990   84987       7   84996   84993       6   84999   84993       6
   84999   84996       7   85005   85002       6   85008   85002       6   85008
   85005       7   85014   85011       6   85017   85011       6   85017   85014
       7   85023   85020       6   85026   85020       6   85026   85023       7
   85032   85029       6   85035   85029       6   85035   85032       7   85041
   85038       6   85044   85038       6   85044   85041       7   85050   85047
       6   85053   85047       6   85053   85050       7   85059   85056       6
   85062   85056       6   85062   85059       7   85068   85065       6   85071
   85065       6   85071   85068       7   85077   85074       6   85080   85074
       6   85080   85077       7   85086   85083       6   85089   85083       6
   85089   85086       7   85095   85092       6   85098   85092       6   85098
   85095       7   85104   85101       6   85107   85101       6   85107   85104
       7   85113   85110       6   85116   85110       6   85116   85113       7
   85122   85119       6   85125   85119       6   85125   85122       7   85131
   85128       6   85134   85128       6   85134   85131       7   85140   85137
       6   85143   85137       6   85143   85140       7   85149   85146       6
   85152   85146       6   85152   85149       7   85158   85155       6   85161
   85155       6   85161   85158       7   85167   85164       6   85170   85164
       6   85170   85167       7   85176   85173       6   85179   85173       6
   85179   85176       7   85185   85182       6   85188   85182       6   85188
   85185       7   85194   85191       6   85197   85191       6   85197   85194
       7   85203   85200       6   85206   85200       6   85206   85203       7
   85212   85209       6   85215   85209       6   85215   85212       7   85221
   85218       6   85224   85218       6   85224   85221       7   85230   85227
       6   85233   85227       6   85233   85230       7   85239   85236       6
   85242   85236       6   85242   85239       7   85248   85245       6   85251
   85245       6   85251   85248       7   85257   85254       6   85260   85254
       6   85260   85257       7   85266   85263       6   85269   85263       6
   85269   85266       7   85275   85272       6   85278   85272       6   85278
   85275       7   85284   85281       6   85287   85281       6   85287   85284
       7   85293   85290       6   85296   85290       6   85296   85293       7
   85302   85299       6   85305   85299       6   85305   85302       7   85311
   85308       6   85314   85308       6   85314   85311       7   85320   85317
       6   85323   85317       6   85323   85320       7   85329   85326       6
   85332   85326       6   85332   85329       7   85338   85335       6   85341
   85335       6   85341   85338       7   85347   85344       6   85350   85344
       6   85350   85347       7   85356   85353       6   85359   85353       6
   85359   85356       7   85365   85362       6   85368   85362       6   85368
   85365       7   85374   85371       6   85377   85371       6   85377   85374
       7   85383   85380       6   85386   85380       6   85386   85383       7
   85392   85389       6   85395   85389       6   85395   85392       7   85401
   85398       6   85404   85398       6   85404   85401       7   85410   85407
       6   85413   85407       6   85413   85410       7   85419   85416       6
   85422   85416       6   85422   85419       7   85428   85425       6   85431
   85425       6   85431   85428       7   85437   85434       6   85440   85434
       6   85440   85437       7   85446   85443       6   85449   85443       6
   85449   85446       7   85455   85452       6   85458   85452       6   85458
   85455       7   85464   85461       6   85467   85461       6   85467   85464
       7   85473   85470       6   85476   85470       6   85476   85473       7
   85482   85479       6   85485   85479       6   85485   85482       7   85491
   85488       6   85494   85488       6   85494   85491       7   85500   85497
       6   85503   85497       6   85503   85500       7   85509   85506       6
   85512   85506       6   85512   85509       7   85518   85515       6   85521
   85515       6   85521   85518       7   85527   85524       6   85530   85524
       6   85530   85527       7   85536   85533       6   85539   85533       6
   85539   85536       7   85545   85542       6   85548   85542       6   85548
   85545       7   85554   85551       6   85557   85551       6   85557   85554
       7   85563   85560       6   85566   85560       6   85566   85563       7
   85572   85569       6   85575   85569       6   85575   85572       7   85581
   85578       6   85584   85578       6   85584   85581       7   85590   85587
       6   85593   85587       6   85593   85590       7   85599   85596       6
   85602   85596       6   85602   85599       7   85608   85605       6   85611
   85605       6   85611   85608       7   85617   85614       6   85620   85614
       6   85620   85617       7   85626   85623       6   85629   85623       6
   85629   85626       7   85635   85632       6   85638   85632       6   85638
   85635       7   85644   85641       6   85647   85641       6   85647   85644
       7   85653   85650       6   85656   85650       6   85656   85653       7
   85662   85659       6   85665   85659       6   85665   85662       7   85671
   85668       6   85674   85668       6   85674   85671       7   85680   85677
       6   85683   85677       6   85683   85680       7   85689   85686       6
   85692   85686       6   85692   85689       7   85698   85695       6   85701
   85695       6   85701   85698       7   85707   85704       6   85710   85704
       6   85710   85707       7   85716   85713       6   85719   85713       6
   85719   85716       7   85725   85722       6   85728   85722       6   85728
   85725       7   85734   85731       6   85737   85731       6   85737   85734
       7   85743   85740       6   85746   85740       6   85746   85743       7
   85752   85749       6   85755   85749       6   85755   85752       7   85761
   85758       6   85764   85758       6   85764   85761       7   85770   85767
       6   85773   85767       6   85773   85770       7   85779   85776       6
   85782   85776       6   85782   85779       7   85788   85785       6   85791
   85785       6   85791   85788       7   85797   85794       6   85800   85794
       6   85800   85797       7   85806   85803       6   85809   85803       6
   85809   85806       7   85815   85812       6   85818   85812       6   85818
   85815       7   85824   85821       6   85827   85821       6   85827   85824
       7   85833   85830       6   85836   85830       6   85836   85833       7
   85842   85839       6   85845   85839       6   85845   85842       7   85851
   85848       6   85854   85848       6   85854   85851       7   85860   85857
       6   85863   85857       6   85863   85860       7   85869   85866       6
   85872   85866       6   85872   85869       7   85878   85875       6   85881
   85875       6   85881   85878       7   85887   85884       6   85890   85884
       6   85890   85887       7   85896   85893       6   85899   85893       6
   85899   85896       7   85905   85902       6   85908   85902       6   85908
   85905       7   85914   85911       6   85917   85911       6   85917   85914
       7   85923   85920       6   85926   85920       6   85926   85923       7
   85932   85929       6   85935   85929       6   85935   85932       7   85941
   85938       6   85944   85938       6   85944   85941       7   85950   85947
       6   85953   85947       6   85953   85950       7   85959   85956       6
   85962   85956       6   85962   85959       7   85968   85965       6   85971
   85965       6   85971   85968       7   85977   85974       6   85980   85974
       6   85980   85977       7   85986   85983       6   85989   85983       6
   85989   85986       7   85995   85992       6   85998   85992       6   85998
   85995       7   86004   86001       6   86007   86001       6   86007   86004
       7   86013   86010       6   86016   86010       6   86016   86013       7
   86022   86019       6   86025   86019       6   86025   86022       7   86031
   86028       6   86034   86028       6   86034   86031       7   86040   86037
       6   86043   86037       6   86043   86040       7   86049   86046       6
   86052   86046       6   86052   86049       7   86058   86055       6   86061
   86055       6   86061   86058       7   86067   86064       6   86070   86064
       6   86070   86067       7   86076   86073       6   86079   86073       6
   86079   86076       7   86085   86082       6   86088   86082       6   86088
   86085       7   86094   86091       6   86097   86091       6   86097   86094
       7   86103   86100       6   86106   86100       6   86106   86103       7
   86112   86109       6   86115   86109       6   86115   86112       7   86121
   86118       6   86124   86118       6   86124   86121       7   86130   86127
       6   86133   86127       6   86133   86130       7   86139   86136       6
   86142   86136       6   86142   86139       7   86148   86145       6   86151
   86145       6   86151   86148       7   86157   86154       6   86160   86154
       6   86160   86157       7   86166   86163       6   86169   86163       6
   86169   86166       7   86175   86172       6   86178   86172       6   86178
   86175       7   86184   86181       6   86187   86181       6   86187   86184
       7   86193   86190       6   86196   86190       6   86196   86193       7
   86202   86199       6   86205   86199       6   86205   86202       7   86211
   86208       6   86214   86208       6   86214   86211       7   86220   86217
       6   86223   86217       6   86223   86220       7   86229   86226       6
   86232   86226       6   86232   86229       7   86238   86235       6   86241
   86235       6   86241   86238       7   86247   86244       6   86250   86244
       6   86250   86247       7   86256   86253       6   86259   86253       6
   86259   86256       7   86265   86262       6   86268   86262       6   86268
   86265       7   86274   86271       6   86277   86271       6   86277   86274
       7   86283   86280       6   86286   86280       6   86286   86283       7
   86292   86289       6   86295   86289       6   86295   86292       7   86301
   86298       6   86304   86298       6   86304   86301       7   86310   86307
       6   86313   86307       6   86313   86310       7   86319   86316       6
   86322   86316       6   86322   86319       7   86328   86325       6   86331
   86325       6   86331   86328       7   86337   86334       6   86340   86334
       6   86340   86337       7   86346   86343       6   86349   86343       6
   86349   86346       7   86355   86352       6   86358   86352       6   86358
   86355       7   86364   86361       6   86367   86361       6   86367   86364
       7   86373   86370       6   86376   86370       6   86376   86373       7
   86382   86379       6   86385   86379       6   86385   86382       7   86391
   86388       6   86394   86388       6   86394   86391       7   86400   86397
       6   86403   86397       6   86403   86400       7   86409   86406       6
   86412   86406       6   86412   86409       7   86418   86415       6   86421
   86415       6   86421   86418       7   86427   86424       6   86430   86424
       6   86430   86427       7   86436   86433       6   86439   86433       6
   86439   86436       7   86445   86442       6   86448   86442       6   86448
   86445       7   86454   86451       6   86457   86451       6   86457   86454
       7   86463   86460       6   86466   86460       6   86466   86463       7
   86472   86469       6   86475   86469       6   86475   86472       7   86481
   86478       6   86484   86478       6   86484   86481       7   86490   86487
       6   86493   86487       6   86493   86490       7   86499   86496       6
   86502   86496       6   86502   86499       7   86508   86505       6   86511
   86505       6   86511   86508       7   86517   86514       6   86520   86514
       6   86520   86517       7   86526   86523       6   86529   86523       6
   86529   86526       7   86535   86532       6   86538   86532       6   86538
   86535       7   86544   86541       6   86547   86541       6   86547   86544
       7   86553   86550       6   86556   86550       6   86556   86553       7
   86562   86559       6   86565   86559       6   86565   86562       7   86571
   86568       6   86574   86568       6   86574   86571       7   86580   86577
       6   86583   86577       6   86583   86580       7   86589   86586       6
   86592   86586       6   86592   86589       7   86598   86595       6   86601
   86595       6   86601   86598       7   86607   86604       6   86610   86604
       6   86610   86607       7   86616   86613       6   86619   86613       6
   86619   86616       7   86625   86622       6   86628   86622       6   86628
   86625       7   86634   86631       6   86637   86631       6   86637   86634
       7   86643   86640       6   86646   86640       6   86646   86643       7
   86652   86649       6   86655   86649       6   86655   86652       7   86661
   86658       6   86664   86658       6   86664   86661       7   86670   86667
       6   86673   86667       6   86673   86670       7   86679   86676       6
   86682   86676       6   86682   86679       7   86688   86685       6   86691
   86685       6   86691   86688       7   86697   86694       6   86700   86694
       6   86700   86697       7   86706   86703       6   86709   86703       6
   86709   86706       7   86715   86712       6   86718   86712       6   86718
   86715       7   86724   86721       6   86727   86721       6   86727   86724
       7   86733   86730       6   86736   86730       6   86736   86733       7
   86742   86739       6   86745   86739       6   86745   86742       7   86751
   86748       6   86754   86748       6   86754   86751       7   86760   86757
       6   86763   86757       6   86763   86760       7   86769   86766       6
   86772   86766       6   86772   86769       7   86778   86775       6   86781
   86775       6   86781   86778       7   86787   86784       6   86790   86784
       6   86790   86787       7   86796   86793       6   86799   86793       6
   86799   86796       7   86805   86802       6   86808   86802       6   86808
   86805       7   86814   86811       6   86817   86811       6   86817   86814
       7   86823   86820       6   86826   86820       6   86826   86823       7
   86832   86829       6   86835   86829       6   86835   86832       7   86841
   86838       6   86844   86838       6   86844   86841       7   86850   86847
       6   86853   86847       6   86853   86850       7   86859   86856       6
   86862   86856       6   86862   86859       7   86868   86865       6   86871
   86865       6   86871   86868       7   86877   86874       6   86880   86874
       6   86880   86877       7   86886   86883       6   86889   86883       6
   86889   86886       7   86895   86892       6   86898   86892       6   86898
   86895       7   86904   86901       6   86907   86901       6   86907   86904
       7   86913   86910       6   86916   86910       6   86916   86913       7
   86922   86919       6   86925   86919       6   86925   86922       7   86931
   86928       6   86934   86928       6   86934   86931       7   86940   86937
       6   86943   86937       6   86943   86940       7   86949   86946       6
   86952   86946       6   86952   86949       7   86958   86955       6   86961
   86955       6   86961   86958       7   86967   86964       6   86970   86964
       6   86970   86967       7   86976   86973       6   86979   86973       6
   86979   86976       7   86985   86982       6   86988   86982       6   86988
   86985       7   86994   86991       6   86997   86991       6   86997   86994
       7   87003   87000       6   87006   87000       6   87006   87003       7
   87012   87009       6   87015   87009       6   87015   87012       7   87021
   87018       6   87024   87018       6   87024   87021       7   87030   87027
       6   87033   87027       6   87033   87030       7   87039   87036       6
   87042   87036       6   87042   87039       7   87048   87045       6   87051
   87045       6   87051   87048       7   87057   87054       6   87060   87054
       6   87060   87057       7   87066   87063       6   87069   87063       6
   87069   87066       7   87075   87072       6   87078   87072       6   87078
   87075       7   87084   87081       6   87087   87081       6   87087   87084
       7   87093   87090       6   87096   87090       6   87096   87093       7
   87102   87099       6   87105   87099       6   87105   87102       7   87111
   87108       6   87114   87108       6   87114   87111       7   87120   87117
       6   87123   87117       6   87123   87120       7   87129   87126       6
   87132   87126       6   87132   87129       7   87138   87135       6   87141
   87135       6   87141   87138       7   87147   87144       6   87150   87144
       6   87150   87147       7   87156   87153       6   87159   87153       6
   87159   87156       7   87165   87162       6   87168   87162       6   87168
   87165       7   87174   87171       6   87177   87171       6   87177   87174
       7   87183   87180       6   87186   87180       6   87186   87183       7
   87192   87189       6   87195   87189       6   87195   87192       7   87201
   87198       6   87204   87198       6   87204   87201       7   87210   87207
       6   87213   87207       6   87213   87210       7   87219   87216       6
   87222   87216       6   87222   87219       7   87228   87225       6   87231
   87225       6   87231   87228       7   87237   87234       6   87240   87234
       6   87240   87237       7   87246   87243       6   87249   87243       6
   87249   87246       7   87255   87252       6   87258   87252       6   87258
   87255       7   87264   87261       6   87267   87261       6   87267   87264
       7   87273   87270       6   87276   87270       6   87276   87273       7
   87282   87279       6   87285   87279       6   87285   87282       7   87291
   87288       6   87294   87288       6   87294   87291       7   87300   87297
       6   87303   87297       6   87303   87300       7   87309   87306       6
   87312   87306       6   87312   87309       7   87318   87315       6   87321
   87315       6   87321   87318       7   87327   87324       6   87330   87324
       6   87330   87327       7   87336   87333       6   87339   87333       6
   87339   87336       7   87345   87342       6   87348   87342       6   87348
   87345       7   87354   87351       6   87357   87351       6   87357   87354
       7   87363   87360       6   87366   87360       6   87366   87363       7
   87372   87369       6   87375   87369       6   87375   87372       7   87381
   87378       6   87384   87378       6   87384   87381       7   87390   87387
       6   87393   87387       6   87393   87390       7   87399   87396       6
   87402   87396       6   87402   87399       7   87408   87405       6   87411
   87405       6   87411   87408       7   87417   87414       6   87420   87414
       6   87420   87417       7   87426   87423       6   87429   87423       6
   87429   87426       7   87435   87432       6   87438   87432       6   87438
   87435       7   87444   87441       6   87447   87441       6   87447   87444
       7   87453   87450       6   87456   87450       6   87456   87453       7
   87462   87459       6   87465   87459       6   87465   87462       7   87471
   87468       6   87474   87468       6   87474   87471       7   87480   87477
       6   87483   87477       6   87483   87480       7   87489   87486       6
   87492   87486       6   87492   87489       7   87498   87495       6   87501
   87495       6   87501   87498       7   87507   87504       6   87510   87504
       6   87510   87507       7   87516   87513       6   87519   87513       6
   87519   87516       7   87525   87522       6   87528   87522       6   87528
   87525       7   87534   87531       6   87537   87531       6   87537   87534
       7   87543   87540       6   87546   87540       6   87546   87543       7
   87552   87549       6   87555   87549       6   87555   87552       7   87561
   87558       6   87564   87558       6   87564   87561       7   87570   87567
       6   87573   87567       6   87573   87570       7   87579   87576       6
   87582   87576       6   87582   87579       7   87588   87585       6   87591
   87585       6   87591   87588       7   87597   87594       6   87600   87594
       6   87600   87597       7   87606   87603       6   87609   87603       6
   87609   87606       7   87615   87612       6   87618   87612       6   87618
   87615       7   87624   87621       6   87627   87621       6   87627   87624
       7   87633   87630       6   87636   87630       6   87636   87633       7
   87642   87639       6   87645   87639       6   87645   87642       7   87651
   87648       6   87654   87648       6   87654   87651       7   87660   87657
       6   87663   87657       6   87663   87660       7   87669   87666       6
   87672   87666       6   87672   87669       7   87678   87675       6   87681
   87675       6   87681   87678       7   87687   87684       6   87690   87684
       6   87690   87687       7   87696   87693       6   87699   87693       6
   87699   87696       7   87705   87702       6   87708   87702       6   87708
   87705       7   87714   87711       6   87717   87711       6   87717   87714
       7   87723   87720       6   87726   87720       6   87726   87723       7
   87732   87729       6   87735   87729       6   87735   87732       7   87741
   87738       6   87744   87738       6   87744   87741       7   87750   87747
       6   87753   87747       6   87753   87750       7   87759   87756       6
   87762   87756       6   87762   87759       7   87768   87765       6   87771
   87765       6   87771   87768       7   87777   87774       6   87780   87774
       6   87780   87777       7   87786   87783       6   87789   87783       6
   87789   87786       7   87795   87792       6   87798   87792       6   87798
   87795       7   87804   87801       6   87807   87801       6   87807   87804
       7   87813   87810       6   87816   87810       6   87816   87813       7
   87822   87819       6   87825   87819       6   87825   87822       7   87831
   87828       6   87834   87828       6   87834   87831       7   87840   87837
       6   87843   87837       6   87843   87840       7   87849   87846       6
   87852   87846       6   87852   87849       7   87858   87855       6   87861
   87855       6   87861   87858       7   87867   87864       6   87870   87864
       6   87870   87867       7   87876   87873       6   87879   87873       6
   87879   87876       7   87885   87882       6   87888   87882       6   87888
   87885       7   87894   87891       6   87897   87891       6   87897   87894
       7   87903   87900       6   87906   87900       6   87906   87903       7
   87912   87909       6   87915   87909       6   87915   87912       7   87921
   87918       6   87924   87918       6   87924   87921       7   87930   87927
       6   87933   87927       6   87933   87930       7   87939   87936       6
   87942   87936       6   87942   87939       7   87948   87945       6   87951
   87945       6   87951   87948       7   87957   87954       6   87960   87954
       6   87960   87957       7   87966   87963       6   87969   87963       6
   87969   87966       7   87975   87972       6   87978   87972       6   87978
   87975       7   87984   87981       6   87987   87981       6   87987   87984
       7   87993   87990       6   87996   87990       6   87996   87993       7
   88002   87999       6   88005   87999       6   88005   88002       7   88011
   88008       6   88014   88008       6   88014   88011       7   88020   88017
       6   88023   88017       6   88023   88020       7   88029   88026       6
   88032   88026       6   88032   88029       7   88038   88035       6   88041
   88035       6   88041   88038       7   88047   88044       6   88050   88044
       6   88050   88047       7   88056   88053       6   88059   88053       6
   88059   88056       7   88065   88062       6   88068   88062       6   88068
   88065       7   88074   88071       6   88077   88071       6   88077   88074
       7   88083   88080       6   88086   88080       6   88086   88083       7
   88092   88089       6   88095   88089       6   88095   88092       7   88101
   88098       6   88104   88098       6   88104   88101       7   88110   88107
       6   88113   88107       6   88113   88110       7   88119   88116       6
   88122   88116       6   88122   88119       7   88128   88125       6   88131
   88125       6   88131   88128       7   88137   88134       6   88140   88134
       6   88140   88137       7   88146   88143       6   88149   88143       6
   88149   88146       7   88155   88152       6   88158   88152       6   88158
   88155       7   88164   88161       6   88167   88161       6   88167   88164
       7   88173   88170       6   88176   88170       6   88176   88173       7
   88182   88179       6   88185   88179       6   88185   88182       7   88191
   88188       6   88194   88188       6   88194   88191       7   88200   88197
       6   88203   88197       6   88203   88200       7   88209   88206       6
   88212   88206       6   88212   88209       7   88218   88215       6   88221
   88215       6   88221   88218       7   88227   88224       6   88230   88224
       6   88230   88227       7   88236   88233       6   88239   88233       6
   88239   88236       7   88245   88242       6   88248   88242       6   88248
   88245       7   88254   88251       6   88257   88251       6   88257   88254
       7   88263   88260       6   88266   88260       6   88266   88263       7
   88272   88269       6   88275   88269       6   88275   88272       7   88281
   88278       6   88284   88278       6   88284   88281       7   88290   88287
       6   88293   88287       6   88293   88290       7   88299   88296       6
   88302   88296       6   88302   88299       7   88308   88305       6   88311
   88305       6   88311   88308       7   88317   88314       6   88320   88314
       6   88320   88317       7   88326   88323       6   88329   88323       6
   88329   88326       7   88335   88332       6   88338   88332       6   88338
   88335       7   88344   88341       6   88347   88341       6   88347   88344
       7   88353   88350       6   88356   88350       6   88356   88353       7
   88362   88359       6   88365   88359       6   88365   88362       7   88371
   88368       6   88374   88368       6   88374   88371       7   88380   88377
       6   88383   88377       6   88383   88380       7   88389   88386       6
   88392   88386       6   88392   88389       7   88398   88395       6   88401
   88395       6   88401   88398       7   88407   88404       6   88410   88404
       6   88410   88407       7   88416   88413       6   88419   88413       6
   88419   88416       7   88425   88422       6   88428   88422       6   88428
   88425       7   88434   88431       6   88437   88431       6   88437   88434
       7   88443   88440       6   88446   88440       6   88446   88443       7
   88452   88449       6   88455   88449       6   88455   88452       7   88461
   88458       6   88464   88458       6   88464   88461       7   88470   88467
       6   88473   88467       6   88473   88470       7   88479   88476       6
   88482   88476       6   88482   88479       7   88488   88485       6   88491
   88485       6   88491   88488       7   88497   88494       6   88500   88494
       6   88500   88497       7   88506   88503       6   88509   88503       6
   88509   88506       7   88515   88512       6   88518   88512       6   88518
   88515       7   88524   88521       6   88527   88521       6   88527   88524
       7   88533   88530       6   88536   88530       6   88536   88533       7
   88542   88539       6   88545   88539       6   88545   88542       7   88551
   88548       6   88554   88548       6   88554   88551       7   88560   88557
       6   88563   88557       6   88563   88560       7   88569   88566       6
   88572   88566       6   88572   88569       7   88578   88575       6   88581
   88575       6   88581   88578       7   88587   88584       6   88590   88584
       6   88590   88587       7   88596   88593       6   88599   88593       6
   88599   88596       7   88605   88602       6   88608   88602       6   88608
   88605       7   88614   88611       6   88617   88611       6   88617   88614
       7   88623   88620       6   88626   88620       6   88626   88623       7
   88632   88629       6   88635   88629       6   88635   88632       7   88641
   88638       6   88644   88638       6   88644   88641       7   88650   88647
       6   88653   88647       6   88653   88650       7   88659   88656       6
   88662   88656       6   88662   88659       7   88668   88665       6   88671
   88665       6   88671   88668       7   88677   88674       6   88680   88674
       6   88680   88677       7   88686   88683       6   88689   88683       6
   88689   88686       7   88695   88692       6   88698   88692       6   88698
   88695       7   88704   88701       6   88707   88701       6   88707   88704
       7   88713   88710       6   88716   88710       6   88716   88713       7
   88722   88719       6   88725   88719       6   88725   88722       7   88731
   88728       6   88734   88728       6   88734   88731       7   88740   88737
       6   88743   88737       6   88743   88740       7   88749   88746       6
   88752   88746       6   88752   88749       7   88758   88755       6   88761
   88755       6   88761   88758       7   88767   88764       6   88770   88764
       6   88770   88767       7   88776   88773       6   88779   88773       6
   88779   88776       7   88785   88782       6   88788   88782       6   88788
   88785       7   88794   88791       6   88797   88791       6   88797   88794
       7   88803   88800       6   88806   88800       6   88806   88803       7
   88812   88809       6   88815   88809       6   88815   88812       7   88821
   88818       6   88824   88818       6   88824   88821       7   88830   88827
       6   88833   88827       6   88833   88830       7   88839   88836       6
   88842   88836       6   88842   88839       7   88848   88845       6   88851
   88845       6   88851   88848       7   88857   88854       6   88860   88854
       6   88860   88857       7   88866   88863       6   88869   88863       6
   88869   88866       7   88875   88872       6   88878   88872       6   88878
   88875       7   88884   88881       6   88887   88881       6   88887   88884
       7   88893   88890       6   88896   88890       6   88896   88893       7
   88902   88899       6   88905   88899       6   88905   88902       7   88911
   88908       6   88914   88908       6   88914   88911       7   88920   88917
       6   88923   88917       6   88923   88920       7   88929   88926       6
   88932   88926       6   88932   88929       7   88938   88935       6   88941
   88935       6   88941   88938       7   88947   88944       6   88950   88944
       6   88950   88947       7   88956   88953       6   88959   88953       6
   88959   88956       7   88965   88962       6   88968   88962       6   88968
   88965       7   88974   88971       6   88977   88971       6   88977   88974
       7   88983   88980       6   88986   88980       6   88986   88983       7
   88992   88989       6   88995   88989       6   88995   88992       7   89001
   88998       6   89004   88998       6   89004   89001       7   89010   89007
       6   89013   89007       6   89013   89010       7   89019   89016       6
   89022   89016       6   89022   89019       7   89028   89025       6   89031
   89025       6   89031   89028       7   89037   89034       6   89040   89034
       6   89040   89037       7   89046   89043       6   89049   89043       6
   89049   89046       7   89055   89052       6   89058   89052       6   89058
   89055       7   89064   89061       6   89067   89061       6   89067   89064
       7   89073   89070       6   89076   89070       6   89076   89073       7
   89082   89079       6   89085   89079       6   89085   89082       7   89091
   89088       6   89094   89088       6   89094   89091       7   89100   89097
       6   89103   89097       6   89103   89100       7   89109   89106       6
   89112   89106       6   89112   89109       7   89118   89115       6   89121
   89115       6   89121   89118       7   89127   89124       6   89130   89124
       6   89130   89127       7   89136   89133       6   89139   89133       6
   89139   89136       7   89145   89142       6   89148   89142       6   89148
   89145       7   89154   89151       6   89157   89151       6   89157   89154
       7   89163   89160       6   89166   89160       6   89166   89163       7
   89172   89169       6   89175   89169       6   89175   89172       7   89181
   89178       6   89184   89178       6   89184   89181       7   89190   89187
       6   89193   89187       6   89193   89190       7   89199   89196       6
   89202   89196       6   89202   89199       7   89208   89205       6   89211
   89205       6   89211   89208       7   89217   89214       6   89220   89214
       6   89220   89217       7   89226   89223       6   89229   89223       6
   89229   89226       7   89235   89232       6   89238   89232       6   89238
   89235       7   89244   89241       6   89247   89241       6   89247   89244
       7   89253   89250       6   89256   89250       6   89256   89253       7
   89262   89259       6   89265   89259       6   89265   89262       7   89271
   89268       6   89274   89268       6   89274   89271       7   89280   89277
       6   89283   89277       6   89283   89280       7   89289   89286       6
   89292   89286       6   89292   89289       7   89298   89295       6   89301
   89295       6   89301   89298       7   89307   89304       6   89310   89304
       6   89310   89307       7   89316   89313       6   89319   89313       6
   89319   89316       7   89325   89322       6   89328   89322       6   89328
   89325       7   89334   89331       6   89337   89331       6   89337   89334
       7   89343   89340       6   89346   89340       6   89346   89343       7
   89352   89349       6   89355   89349       6   89355   89352       7   89361
   89358       6   89364   89358       6   89364   89361       7   89370   89367
       6   89373   89367       6   89373   89370       7   89379   89376       6
   89382   89376       6   89382   89379       7   89388   89385       6   89391
   89385       6   89391   89388       7   89397   89394       6   89400   89394
       6   89400   89397       7   89406   89403       6   89409   89403       6
   89409   89406       7   89415   89412       6   89418   89412       6   89418
   89415       7   89424   89421       6   89427   89421       6   89427   89424
       7   89433   89430       6   89436   89430       6   89436   89433       7
   89442   89439       6   89445   89439       6   89445   89442       7   89451
   89448       6   89454   89448       6   89454   89451       7   89460   89457
       6   89463   89457       6   89463   89460       7   89469   89466       6
   89472   89466       6   89472   89469       7   89478   89475       6   89481
   89475       6   89481   89478       7   89487   89484       6   89490   89484
       6   89490   89487       7   89496   89493       6   89499   89493       6
   89499   89496       7   89505   89502       6   89508   89502       6   89508
   89505       7   89514   89511       6   89517   89511       6   89517   89514
       7   89523   89520       6   89526   89520       6   89526   89523       7
   89532   89529       6   89535   89529       6   89535   89532       7   89541
   89538       6   89544   89538       6   89544   89541       7   89550   89547
       6   89553   89547       6   89553   89550       7   89559   89556       6
   89562   89556       6   89562   89559       7   89568   89565       6   89571
   89565       6   89571   89568       7   89577   89574       6   89580   89574
       6   89580   89577       7   89586   89583       6   89589   89583       6
   89589   89586       7   89595   89592       6   89598   89592       6   89598
   89595       7   89604   89601       6   89607   89601       6   89607   89604
       7   89613   89610       6   89616   89610       6   89616   89613       7
   89622   89619       6   89625   89619       6   89625   89622       7   89631
   89628       6   89634   89628       6   89634   89631       7   89640   89637
       6   89643   89637       6   89643   89640       7   89649   89646       6
   89652   89646       6   89652   89649       7   89658   89655       6   89661
   89655       6   89661   89658       7   89667   89664       6   89670   89664
       6   89670   89667       7   89676   89673       6   89679   89673       6
   89679   89676       7   89685   89682       6   89688   89682       6   89688
   89685       7   89694   89691       6   89697   89691       6   89697   89694
       7   89703   89700       6   89706   89700       6   89706   89703       7
   89712   89709       6   89715   89709       6   89715   89712       7   89721
   89718       6   89724   89718       6   89724   89721       7   89730   89727
       6   89733   89727       6   89733   89730       7   89739   89736       6
   89742   89736       6   89742   89739       7   89748   89745       6   89751
   89745       6   89751   89748       7   89757   89754       6   89760   89754
       6   89760   89757       7   89766   89763       6   89769   89763       6
   89769   89766       7   89775   89772       6   89778   89772       6   89778
   89775       7   89784   89781       6   89787   89781       6   89787   89784
       7   89793   89790       6   89796   89790       6   89796   89793       7
   89802   89799       6   89805   89799       6   89805   89802       7   89811
   89808       6   89814   89808       6   89814   89811       7   89820   89817
       6   89823   89817       6   89823   89820       7   89829   89826       6
   89832   89826       6   89832   89829       7   89838   89835       6   89841
   89835       6   89841   89838       7   89847   89844       6   89850   89844
       6   89850   89847       7   89856   89853       6   89859   89853       6
   89859   89856       7   89865   89862       6   89868   89862       6   89868
   89865       7   89874   89871       6   89877   89871       6   89877   89874
       7   89883   89880       6   89886   89880       6   89886   89883       7
   89892   89889       6   89895   89889       6   89895   89892       7   89901
   89898       6   89904   89898       6   89904   89901       7   89910   89907
       6   89913   89907       6   89913   89910       7   89919   89916       6
   89922   89916       6   89922   89919       7   89928   89925       6   89931
   89925       6   89931   89928       7   89937   89934       6   89940   89934
       6   89940   89937       7   89946   89943       6   89949   89943       6
   89949   89946       7   89955   89952       6   89958   89952       6   89958
   89955       7   89964   89961       6   89967   89961       6   89967   89964
       7   89973   89970       6   89976   89970       6   89976   89973       7
   89982   89979       6   89985   89979       6   89985   89982       7   89991
   89988       6   89994   89988       6   89994   89991       7   90000   89997
       6   90003   89997       6   90003   90000       7   90009   90006       6
   90012   90006       6   90012   90009       7   90018   90015       6   90021
   90015       6   90021   90018       7   90027   90024       6   90030   90024
       6   90030   90027       7   90036   90033       6   90039   90033       6
   90039   90036       7   90045   90042       6   90048   90042       6   90048
   90045       7   90054   90051       6   90057   90051       6   90057   90054
       7   90063   90060       6   90066   90060       6   90066   90063       7
   90072   90069       6   90075   90069       6   90075   90072       7   90081
   90078       6   90084   90078       6   90084   90081       7   90090   90087
       6   90093   90087       6   90093   90090       7   90099   90096       6
   90102   90096       6   90102   90099       7   90108   90105       6   90111
   90105       6   90111   90108       7   90117   90114       6   90120   90114
       6   90120   90117       7   90126   90123       6   90129   90123       6
   90129   90126       7   90135   90132       6   90138   90132       6   90138
   90135       7   90144   90141       6   90147   90141       6   90147   90144
       7   90153   90150       6   90156   90150       6   90156   90153       7
   90162   90159       6   90165   90159       6   90165   90162       7   90171
   90168       6   90174   90168       6   90174   90171       7   90180   90177
       6   90183   90177       6   90183   90180       7   90189   90186       6
   90192   90186       6   90192   90189       7   90198   90195       6   90201
   90195       6   90201   90198       7   90207   90204       6   90210   90204
       6   90210   90207       7   90216   90213       6   90219   90213       6
   90219   90216       7   90225   90222       6   90228   90222       6   90228
   90225       7   90234   90231       6   90237   90231       6   90237   90234
       7   90243   90240       6   90246   90240       6   90246   90243       7
   90252   90249       6   90255   90249       6   90255   90252       7   90261
   90258       6   90264   90258       6   90264   90261       7   90270   90267
       6   90273   90267       6   90273   90270       7   90279   90276       6
   90282   90276       6   90282   90279       7   90288   90285       6   90291
   90285       6   90291   90288       7   90297   90294       6   90300   90294
       6   90300   90297       7   90306   90303       6   90309   90303       6
   90309   90306       7   90315   90312       6   90318   90312       6   90318
   90315       7   90324   90321       6   90327   90321       6   90327   90324
       7   90333   90330       6   90336   90330       6   90336   90333       7
   90342   90339       6   90345   90339       6   90345   90342       7   90351
   90348       6   90354   90348       6   90354   90351       7   90360   90357
       6   90363   90357       6   90363   90360       7   90369   90366       6
   90372   90366       6   90372   90369       7   90378   90375       6   90381
   90375       6   90381   90378       7   90387   90384       6   90390   90384
       6   90390   90387       7   90396   90393       6   90399   90393       6
   90399   90396       7   90405   90402       6   90408   90402       6   90408
   90405       7   90414   90411       6   90417   90411       6   90417   90414
       7   90423   90420       6   90426   90420       6   90426   90423       7
   90432   90429       6   90435   90429       6   90435   90432       7   90441
   90438       6   90444   90438       6   90444   90441       7   90450   90447
       6   90453   90447       6   90453   90450       7   90459   90456       6
   90462   90456       6   90462   90459       7   90468   90465       6   90471
   90465       6   90471   90468       7   90477   90474       6   90480   90474
       6   90480   90477       7   90486   90483       6   90489   90483       6
   90489   90486       7   90495   90492       6   90498   90492       6   90498
   90495       7   90504   90501       6   90507   90501       6   90507   90504
       7   90513   90510       6   90516   90510       6   90516   90513       7
   90522   90519       6   90525   90519       6   90525   90522       7   90531
   90528       6   90534   90528       6   90534   90531       7   90540   90537
       6   90543   90537       6   90543   90540       7   90549   90546       6
   90552   90546       6   90552   90549       7   90558   90555       6   90561
   90555       6   90561   90558       7   90567   90564       6   90570   90564
       6   90570   90567       7   90576   90573       6   90579   90573       6
   90579   90576       7   90585   90582       6   90588   90582       6   90588
   90585       7   90594   90591       6   90597   90591       6   90597   90594
       7   90603   90600       6   90606   90600       6   90606   90603       7
   90612   90609       6   90615   90609       6   90615   90612       7   90621
   90618       6   90624   90618       6   90624   90621       7   90630   90627
       6   90633   90627       6   90633   90630       7   90639   90636       6
   90642   90636       6   90642   90639       7   90648   90645       6   90651
   90645       6   90651   90648       7   90657   90654       6   90660   90654
       6   90660   90657       7   90666   90663       6   90669   90663       6
   90669   90666       7   90675   90672       6   90678   90672       6   90678
   90675       7   90684   90681       6   90687   90681       6   90687   90684
       7   90693   90690       6   90696   90690       6   90696   90693       7
   90702   90699       6   90705   90699       6   90705   90702       7   90711
   90708       6   90714   90708       6   90714   90711       7   90720   90717
       6   90723   90717       6   90723   90720       7   90729   90726       6
   90732   90726       6   90732   90729       7   90738   90735       6   90741
   90735       6   90741   90738       7   90747   90744       6   90750   90744
       6   90750   90747       7   90756   90753       6   90759   90753       6
   90759   90756       7   90765   90762       6   90768   90762       6   90768
   90765       7   90774   90771       6   90777   90771       6   90777   90774
       7   90783   90780       6   90786   90780       6   90786   90783       7
   90792   90789       6   90795   90789       6   90795   90792       7   90801
   90798       6   90804   90798       6   90804   90801       7   90810   90807
       6   90813   90807       6   90813   90810       7   90819   90816       6
   90822   90816       6   90822   90819       7   90828   90825       6   90831
   90825       6   90831   90828       7   90837   90834       6   90840   90834
       6   90840   90837       7   90846   90843       6   90849   90843       6
   90849   90846       7   90855   90852       6   90858   90852       6   90858
   90855       7   90864   90861       6   90867   90861       6   90867   90864
       7   90873   90870       6   90876   90870       6   90876   90873       7
   90882   90879       6   90885   90879       6   90885   90882       7   90891
   90888       6   90894   90888       6   90894   90891       7   90900   90897
       6   90903   90897       6   90903   90900       7   90909   90906       6
   90912   90906       6   90912   90909       7   90918   90915       6   90921
   90915       6   90921   90918       7   90927   90924       6   90930   90924
       6   90930   90927       7   90936   90933       6   90939   90933       6
   90939   90936       7   90945   90942       6   90948   90942       6   90948
   90945       7   90954   90951       6   90957   90951       6   90957   90954
       7   90963   90960       6   90966   90960       6   90966   90963       7
   90972   90969       6   90975   90969       6   90975   90972       7   90981
   90978       6   90984   90978       6   90984   90981       7   90990   90987
       6   90993   90987       6   90993   90990       7   90999   90996       6
   91002   90996       6   91002   90999       7   91008   91005       6   91011
   91005       6   91011   91008       7   91017   91014       6   91020   91014
       6   91020   91017       7   91026   91023       6   91029   91023       6
   91029   91026       7   91035   91032       6   91038   91032       6   91038
   91035       7   91044   91041       6   91047   91041       6   91047   91044
       7   91053   91050       6   91056   91050       6   91056   91053       7
   91062   91059       6   91065   91059       6   91065   91062       7   91071
   91068       6   91074   91068       6   91074   91071       7   91080   91077
       6   91083   91077       6   91083   91080       7   91089   91086       6
   91092   91086       6   91092   91089       7   91098   91095       6   91101
   91095       6   91101   91098       7   91107   91104       6   91110   91104
       6   91110   91107       7   91116   91113       6   91119   91113       6
   91119   91116       7   91125   91122       6   91128   91122       6   91128
   91125       7   91134   91131       6   91137   91131       6   91137   91134
       7   91143   91140       6   91146   91140       6   91146   91143       7
   91152   91149       6   91155   91149       6   91155   91152       7   91161
   91158       6   91164   91158       6   91164   91161       7   91170   91167
       6   91173   91167       6   91173   91170       7   91179   91176       6
   91182   91176       6   91182   91179       7   91188   91185       6   91191
   91185       6   91191   91188       7   91197   91194       6   91200   91194
       6   91200   91197       7   91206   91203       6   91209   91203       6
   91209   91206       7   91215   91212       6   91218   91212       6   91218
   91215       7   91224   91221       6   91227   91221       6   91227   91224
       7   91233   91230       6   91236   91230       6   91236   91233       7
   91242   91239       6   91245   91239       6   91245   91242       7   91251
   91248       6   91254   91248       6   91254   91251       7   91260   91257
       6   91263   91257       6   91263   91260       7   91269   91266       6
   91272   91266       6   91272   91269       7   91278   91275       6   91281
   91275       6   91281   91278       7   91287   91284       6   91290   91284
       6   91290   91287       7   91296   91293       6   91299   91293       6
   91299   91296       7   91305   91302       6   91308   91302       6   91308
   91305       7   91314   91311       6   91317   91311       6   91317   91314
       7   91323   91320       6   91326   91320       6   91326   91323       7
   91332   91329       6   91335   91329       6   91335   91332       7   91341
   91338       6   91344   91338       6   91344   91341       7   91350   91347
       6   91353   91347       6   91353   91350       7   91359   91356       6
   91362   91356       6   91362   91359       7   91368   91365       6   91371
   91365       6   91371   91368       7   91377   91374       6   91380   91374
       6   91380   91377       7   91386   91383       6   91389   91383       6
   91389   91386       7   91395   91392       6   91398   91392       6   91398
   91395       7   91404   91401       6   91407   91401       6   91407   91404
       7   91413   91410       6   91416   91410       6   91416   91413       7
   91422   91419       6   91425   91419       6   91425   91422       7   91431
   91428       6   91434   91428       6   91434   91431       7   91440   91437
       6   91443   91437       6   91443   91440       7   91449   91446       6
   91452   91446       6   91452   91449       7   91458   91455       6   91461
   91455       6   91461   91458       7   91467   91464       6   91470   91464
       6   91470   91467       7   91476   91473       6   91479   91473       6
   91479   91476       7   91485   91482       6   91488   91482       6   91488
   91485       7   91494   91491       6   91497   91491       6   91497   91494
       7   91503   91500       6   91506   91500       6   91506   91503       7
   91512   91509       6   91515   91509       6   91515   91512       7   91521
   91518       6   91524   91518       6   91524   91521       7   91530   91527
       6   91533   91527       6   91533   91530       7   91539   91536       6
   91542   91536       6   91542   91539       7   91548   91545       6   91551
   91545       6   91551   91548       7   91557   91554       6   91560   91554
       6   91560   91557       7   91566   91563       6   91569   91563       6
   91569   91566       7   91575   91572       6   91578   91572       6   91578
   91575       7   91584   91581       6   91587   91581       6   91587   91584
       7   91593   91590       6   91596   91590       6   91596   91593       7
   91602   91599       6   91605   91599       6   91605   91602       7   91611
   91608       6   91614   91608       6   91614   91611       7   91620   91617
       6   91623   91617       6   91623   91620       7   91629   91626       6
   91632   91626       6   91632   91629       7   91638   91635       6   91641
   91635       6   91641   91638       7   91647   91644       6   91650   91644
       6   91650   91647       7   91656   91653       6   91659   91653       6
   91659   91656       7   91665   91662       6   91668   91662       6   91668
   91665       7   91674   91671       6   91677   91671       6   91677   91674
       7   91683   91680       6   91686   91680       6   91686   91683       7
   91692   91689       6   91695   91689       6   91695   91692       7   91701
   91698       6   91704   91698       6   91704   91701       7   91710   91707
       6   91713   91707       6   91713   91710       7   91719   91716       6
   91722   91716       6   91722   91719       7   91728   91725       6   91731
   91725       6   91731   91728       7   91737   91734       6   91740   91734
       6   91740   91737       7   91746   91743       6   91749   91743       6
   91749   91746       7   91755   91752       6   91758   91752       6   91758
   91755       7   91764   91761       6   91767   91761       6   91767   91764
       7   91773   91770       6   91776   91770       6   91776   91773       7
   91782   91779       6   91785   91779       6   91785   91782       7   91791
   91788       6   91794   91788       6   91794   91791       7   91800   91797
       6   91803   91797       6   91803   91800       7   91809   91806       6
   91812   91806       6   91812   91809       7   91818   91815       6   91821
   91815       6   91821   91818       7   91827   91824       6   91830   91824
       6   91830   91827       7   91836   91833       6   91839   91833       6
   91839   91836       7   91845   91842       6   91848   91842       6   91848
   91845       7   91854   91851       6   91857   91851       6   91857   91854
       7   91863   91860       6   91866   91860       6   91866   91863       7
   91872   91869       6   91875   91869       6   91875   91872       7   91881
   91878       6   91884   91878       6   91884   91881       7   91890   91887
       6   91893   91887       6   91893   91890       7   91899   91896       6
   91902   91896       6   91902   91899       7   91908   91905       6   91911
   91905       6   91911   91908       7   91917   91914       6   91920   91914
       6   91920   91917       7   91926   91923       6   91929   91923       6
   91929   91926       7   91935   91932       6   91938   91932       6   91938
   91935       7   91944   91941       6   91947   91941       6   91947   91944
       7   91953   91950       6   91956   91950       6   91956   91953       7
   91962   91959       6   91965   91959       6   91965   91962       7   91971
   91968       6   91974   91968       6   91974   91971       7   91980   91977
       6   91983   91977       6   91983   91980       7   91989   91986       6
   91992   91986       6   91992   91989       7   91998   91995       6   92001
   91995       6   92001   91998       7   92007   92004       6   92010   92004
       6   92010   92007       7   92016   92013       6   92019   92013       6
   92019   92016       7   92025   92022       6   92028   92022       6   92028
   92025       7   92034   92031       6   92037   92031       6   92037   92034
       7   92043   92040       6   92046   92040       6   92046   92043       7
   92052   92049       6   92055   92049       6   92055   92052       7   92061
   92058       6   92064   92058       6   92064   92061       7   92070   92067
       6   92073   92067       6   92073   92070       7   92079   92076       6
   92082   92076       6   92082   92079       7   92088   92085       6   92091
   92085       6   92091   92088       7   92097   92094       6   92100   92094
       6   92100   92097       7   92106   92103       6   92109   92103       6
   92109   92106       7   92115   92112       6   92118   92112       6   92118
   92115       7   92124   92121       6   92127   92121       6   92127   92124
       7   92133   92130       6   92136   92130       6   92136   92133       7
   92142   92139       6   92145   92139       6   92145   92142       7   92151
   92148       6   92154   92148       6   92154   92151       7   92160   92157
       6   92163   92157       6   92163   92160       7   92169   92166       6
   92172   92166       6   92172   92169       7   92178   92175       6   92181
   92175       6   92181   92178       7   92187   92184       6   92190   92184
       6   92190   92187       7   92196   92193       6   92199   92193       6
   92199   92196       7   92205   92202       6   92208   92202       6   92208
   92205       7   92214   92211       6   92217   92211       6   92217   92214
       7   92223   92220       6   92226   92220       6   92226   92223       7
   92232   92229       6   92235   92229       6   92235   92232       7   92241
   92238       6   92244   92238       6   92244   92241       7   92250   92247
       6   92253   92247       6   92253   92250       7   92259   92256       6
   92262   92256       6   92262   92259       7   92268   92265       6   92271
   92265       6   92271   92268       7   92277   92274       6   92280   92274
       6   92280   92277       7   92286   92283       6   92289   92283       6
   92289   92286       7   92295   92292       6   92298   92292       6   92298
   92295       7   92304   92301       6   92307   92301       6   92307   92304
       7   92313   92310       6   92316   92310       6   92316   92313       7
   92322   92319       6   92325   92319       6   92325   92322       7   92331
   92328       6   92334   92328       6   92334   92331       7   92340   92337
       6   92343   92337       6   92343   92340       7   92349   92346       6
   92352   92346       6   92352   92349       7   92358   92355       6   92361
   92355       6   92361   92358       7   92367   92364       6   92370   92364
       6   92370   92367       7   92376   92373       6   92379   92373       6
   92379   92376       7   92385   92382       6   92388   92382       6   92388
   92385       7   92394   92391       6   92397   92391       6   92397   92394
       7   92403   92400       6   92406   92400       6   92406   92403       7
   92412   92409       6   92415   92409       6   92415   92412       7   92421
   92418       6   92424   92418       6   92424   92421       7   92430   92427
       6   92433   92427       6   92433   92430       7   92439   92436       6
   92442   92436       6   92442   92439       7   92448   92445       6   92451
   92445       6   92451   92448       7   92457   92454       6   92460   92454
       6   92460   92457       7   92466   92463       6   92469   92463       6
   92469   92466       7   92475   92472       6   92478   92472       6   92478
   92475       7   92484   92481       6   92487   92481       6   92487   92484
       7   92493   92490       6   92496   92490       6   92496   92493       7
   92502   92499       6   92505   92499       6   92505   92502       7   92511
   92508       6   92514   92508       6   92514   92511       7   92520   92517
       6   92523   92517       6   92523   92520       7   92529   92526       6
   92532   92526       6   92532   92529       7   92538   92535       6   92541
   92535       6   92541   92538       7   92547   92544       6   92550   92544
       6   92550   92547       7   92556   92553       6   92559   92553       6
   92559   92556       7   92565   92562       6   92568   92562       6   92568
   92565       7   92574   92571       6   92577   92571       6   92577   92574
       7   92583   92580       6   92586   92580       6   92586   92583       7
   92592   92589       6   92595   92589       6   92595   92592       7   92601
   92598       6   92604   92598       6   92604   92601       7   92610   92607
       6   92613   92607       6   92613   92610       7   92619   92616       6
   92622   92616       6   92622   92619       7   92628   92625       6   92631
   92625       6   92631   92628       7   92637   92634       6   92640   92634
       6   92640   92637       7   92646   92643       6   92649   92643       6
   92649   92646       7   92655   92652       6   92658   92652       6   92658
   92655       7   92664   92661       6   92667   92661       6   92667   92664
       7   92673   92670       6   92676   92670       6   92676   92673       7
   92682   92679       6   92685   92679       6   92685   92682       7   92691
   92688       6   92694   92688       6   92694   92691       7   92700   92697
       6   92703   92697       6   92703   92700       7   92709   92706       6
   92712   92706       6   92712   92709       7   92718   92715       6   92721
   92715       6   92721   92718       7   92727   92724       6   92730   92724
       6   92730   92727       7   92736   92733       6   92739   92733       6
   92739   92736       7   92745   92742       6   92748   92742       6   92748
   92745       7   92754   92751       6   92757   92751       6   92757   92754
       7   92763   92760       6   92766   92760       6   92766   92763       7
   92772   92769       6   92775   92769       6   92775   92772       7   92781
   92778       6   92784   92778       6   92784   92781       7   92790   92787
       6   92793   92787       6   92793   92790       7   92799   92796       6
   92802   92796       6   92802   92799       7   92808   92805       6   92811
   92805       6   92811   92808       7   92817   92814       6   92820   92814
       6   92820   92817       7   92826   92823       6   92829   92823       6
   92829   92826       7   92835   92832       6   92838   92832       6   92838
   92835       7   92844   92841       6   92847   92841       6   92847   92844
       7   92853   92850       6   92856   92850       6   92856   92853       7
   92862   92859       6   92865   92859       6   92865   92862       7   92871
   92868       6   92874   92868       6   92874   92871       7   92880   92877
       6   92883   92877       6   92883   92880       7   92889   92886       6
   92892   92886       6   92892   92889       7   92898   92895       6   92901
   92895       6   92901   92898       7   92907   92904       6   92910   92904
       6   92910   92907       7   92916   92913       6   92919   92913       6
   92919   92916       7   92925   92922       6   92928   92922       6   92928
   92925       7   92934   92931       6   92937   92931       6   92937   92934
       7   92943   92940       6   92946   92940       6   92946   92943       7
   92952   92949       6   92955   92949       6   92955   92952       7   92961
   92958       6   92964   92958       6   92964   92961       7   92970   92967
       6   92973   92967       6   92973   92970       7   92979   92976       6
   92982   92976       6   92982   92979       7   92988   92985       6   92991
   92985       6   92991   92988       7   92997   92994       6   93000   92994
       6   93000   92997       7   93006   93003       6   93009   93003       6
   93009   93006       7   93015   93012       6   93018   93012       6   93018
   93015       7   93024   93021       6   93027   93021       6   93027   93024
       7   93033   93030       6   93036   93030       6   93036   93033       7
   93042   93039       6   93045   93039       6   93045   93042       7   93051
   93048       6   93054   93048       6   93054   93051       7   93060   93057
       6   93063   93057       6   93063   93060       7   93069   93066       6
   93072   93066       6   93072   93069       7   93078   93075       6   93081
   93075       6   93081   93078       7   93087   93084       6   93090   93084
       6   93090   93087       7   93096   93093       6   93099   93093       6
   93099   93096       7   93105   93102       6   93108   93102       6   93108
   93105       7   93114   93111       6   93117   93111       6   93117   93114
       7   93123   93120       6   93126   93120       6   93126   93123       7
   93132   93129       6   93135   93129       6   93135   93132       7   93141
   93138       6   93144   93138       6   93144   93141       7   93150   93147
       6   93153   93147       6   93153   93150       7   93159   93156       6
   93162   93156       6   93162   93159       7   93168   93165       6   93171
   93165       6   93171   93168       7   93177   93174       6   93180   93174
       6   93180   93177       7   93186   93183       6   93189   93183       6
   93189   93186       7   93195   93192       6   93198   93192       6   93198
   93195       7   93204   93201       6   93207   93201       6   93207   93204
       7   93213   93210       6   93216   93210       6   93216   93213       7
   93222   93219       6   93225   93219       6   93225   93222       7   93231
   93228       6   93234   93228       6   93234   93231       7   93240   93237
       6   93243   93237       6   93243   93240       7   93249   93246       6
   93252   93246       6   93252   93249       7   93258   93255       6   93261
   93255       6   93261   93258       7   93267   93264       6   93270   93264
       6   93270   93267       7   93276   93273       6   93279   93273       6
   93279   93276       7   93285   93282       6   93288   93282       6   93288
   93285       7   93294   93291       6   93297   93291       6   93297   93294
       7   93303   93300       6   93306   93300       6   93306   93303       7
   93312   93309       6   93315   93309       6   93315   93312       7   93321
   93318       6   93324   93318       6   93324   93321       7   93330   93327
       6   93333   93327       6   93333   93330       7   93339   93336       6
   93342   93336       6   93342   93339       7   93348   93345       6   93351
   93345       6   93351   93348       7   93357   93354       6   93360   93354
       6   93360   93357       7   93366   93363       6   93369   93363       6
   93369   93366       7   93375   93372       6   93378   93372       6   93378
   93375       7
%FLAG BONDS_WITHOUT_HYDROGEN                                                    
%FORMAT(10I8)                                                                   
      57      60       1      51      54       1      45      48       1      42
      60       3      36      60       3      33      39       4      30      48
       3      24      48       3      21      27       5      21      33       5
      21      57       5      18      27       4      15      54       3      12
      18       5      12      51       5       9      12       5       6      54
       3       3       9       4       0       3       5       0      39       5
       0      45       5
%FLAG ANGLES_INC_HYDROGEN                                                       
%FORMAT(10I8)                                                                   
     111      27     114       1     105      18     108       1      99       9
     102       1      93       3      96       1      87      57      90       1
      81      51      84       1      75      45      78       1      69      39
      72       1      63      33      66       1      60      57      87       2
      60      57      90       2      54      51      81       2      54      51
      84       2      48      45      75       2      48      45      78       2
      39      33      63       5      39      33      66       5      33      39
      69       5      33      39      72       5      27      18     105       5
      27      18     108       5      21      27     111       7      21      27
     114       7      21      33      63       7      21      33      66       7
      21      57      87       7      21      57      90       7      18      27
     111       5      18      27     114       5      12       9      99       7
      12       9     102       7      12      18     105       7      12      18
     108       7      12      51      81       7      12      51      84       7
       9       3      93       5       9       3      96       5       3       9
      99       5       3       9     102       5       0       3      93       7
       0       3      96       7       0      39      69       7       0      39
      72       7       0      45      75       7       0      45      78       7
%FLAG ANGLES_WITHOUT_HYDROGEN                                                   
%FORMAT(10I8)                                                                   
      42      60      57       3      39       0      45       4      36      60
      42       6      36      60      57       3      33      21      57       4
      30      48      45       3      27      21      33       4      27      21
      57       4      24      48      30       6      24      48      45       3
      21      33      39       8      21      57      60       9      18      12
      51       4      18      27      21       8      15      54      51       3
      12      18      27       8      12      51      54       9       9      12
      18       4       9      12      51       4       6      54      15       6
       6      54      51       3       3       0      39       4       3       0
      45       4       3       9      12       8       0       3       9       8
       0      39      33       8       0      45      48       9
%FLAG DIHEDRALS_INC_HYDROGEN                                                    
%FORMAT(10I8)                                                                   
     108      18      27     111       1     108      18      27     114       1
     105      18      27     111       1     105      18      27     114       1
      96       3       9      99       1      96       3       9     102       1
      93       3       9      99       1      93       3       9     102       1
      66      33      39      69       1      66      33      39      72       1
      63      33      39      69       1      63      33      39      72       1
      57      21      27     111       2      57      21      27     114       2
      57      21      33      63       2      57      21      33      66       2
      51      12       9      99       2      51      12       9     102       2
      51      12      18     105       2      51      12      18     108       2
      45       0       3      93       2      45       0       3      96       2
      45       0      39      69       2      45       0      39      72       2
      42      60      57      87       3      42      60     -57      87       4
      42      60      57      90       3      42      60     -57      90       4
      39       0       3      93       2      39       0       3      96       2
      39       0      45      75       2      39       0      45      78       2
      36      60      57      87       3      36      60     -57      87       4
      36      60      57      90       3      36      60     -57      90       4
      33      21      27     111       2      33      21      27     114       2
      33      21      57      87       2      33      21      57      90       2
      30      48      45      75       3      30      48     -45      75       4
      30      48      45      78       3      30      48     -45      78       4
      27      21      33      63       2      27      21      33      66       2
      27      21      57      87       2      27      21      57      90       2
      24      48      45      75       3      24      48     -45      75       4
      24      48      45      78       3      24      48     -45      78       4
      21      27      18     105       1      21      27      18     108       1
      21      33      39      69       1      21      33      39      72       1
      18      12       9      99       2      18      12       9     102       2
      18      12      51      81       2      18      12      51      84       2
      15      54      51      81       3      15      54     -51      81       7
      15      54     -51      81       4      15      54      51      84       3
      15      54     -51      84       7      15      54     -51      84       4
      12       9       3      93       1      12       9       3      96       1
      12      18      27     111       1      12      18      27     114       1
       9      12      18     105       2       9      12      18     108       2
       9      12      51      81       2       9      12      51      84       2
       6      54      51      81       3       6      54     -51      81       7
       6      54     -51      81       4       6      54      51      84       3
       6      54     -51      84       7       6      54     -51      84       4
       3       0      39      69       2       3       0      39      72       2
       3       0      45      75       2       3       0      45      78       2
       0       3       9      99       1       0       3       9     102       1
       0      39      33      63       1       0      39      33      66       1
%FLAG DIHEDRALS_WITHOUT_HYDROGEN                                                
%FORMAT(10I8)                                                                   
      39       0      45      48       5      39      33      21      57       6
      33      21      57      60       5      45       0      39      33       6
      27      18      12      51       6      27      21      33      39       6
      27      21      57      60       5      21      57      60      36       7
      21      57      60      42       7      18      12      51      54       5
      18      27      21      33       6      18      27      21      57       6
      12      18      27      21       1      12      51      54      15       7
      39       0       3       9       6      45       0       3       9       6
       9      12      18      27       6       9      12      51      54       5
       6      54      51      12       7       3       0      39      33       6
       3       0      45      48       5       3       9      12      18       6
       3       9      12      51       6       0       3       9      12       1
       0      39      33      21       1       0      45      48      24       7
       0      45      48      30       7      57      36     -60     -42       8
      51       6     -54     -15       8      45      24     -48     -30       8
%FLAG EXCLUDED_ATOMS_LIST                                                       
%FORMAT(10I8)                                                                   
       2       4       5       8       9      11      12      14      16      17
      22      23      24      25      26      27      32      33      34      35
       4       5       7      12      14      16      17      18      24      25
      26      27      32      33      34      35       5       6      18      19
      28      29       5       7      10      14      16      18      19      28
      29      32      33      34      35      36      37       6       7       8
      10      18      19      28      29      32      33      34      35      36
      37      38      39      18      19      28      29       8      10      12
      18      19      20      28      29      34      35      36      37      38
      39      10      12      13      14      15      20      21      22      23
      24      25      30      31      36      37      38      39      11      16
      17      26      27      12      14      18      20      21      22      23
      30      31      36      37      38      39      16      17      26      27
      14      16      20      21      22      23      24      25      30      31
      38      39      15      20      21      30      31      16      17      20
      22      23      24      25      26      27      32      33      20      21
      30      31      17      24      25      26      27      32      33      26
      27      19      28      29      34      35      36      37      28      29
      21      22      23      30      31      38      39      30      31      23
      24      25      24      25      25       0      27       0      29       0
      31       0      33      34      35      34      35      35       0      37
      38      39      38      39      39       0       0       0      43      44
      44       0      46      47      47       0      49      50      50       0
      52      53      53       0      55      56      56       0      58      59
      59       0      61      62      62       0      64      65      65       0
      67      68      68       0      70      71      71       0      73      74
      74       0      76      77      77       0      79      80      80       0
      82      83      83       0      85      86      86       0      88      89
      89       0      91      92      92       0      94      95      95       0
      97      98      98       0     100     101     101       0     103     104
     104       0     106     107     107       0     109     110     110       0
     112     113     113       0     115     116     116       0     118     119
     119       0     121     122     122       0     124     125     125       0
     127     128     128       0     130     131     131       0     133     134
     134       0     136     137     137       0     139     140     140       0
     142     143     143       0     145     146     146       0     148     149
     149       0     151     152     152       0     154     155     155       0
     157     158     158       0     160     161     161       0     163     164
     164       0     166     167     167       0     169     170     170       0
     172     173     173       0     175     176     176       0     178     179
     179       0     181     182     182       0     184     185     185       0
     187     188     188       0     190     191     191       0     193     194
     194       0     196     197     197       0     199     200     200       0
     202     203     203       0     205     206     206       0     208     209
     209       0     211     212     212       0     214     215     215       0
     217     218     218       0     220     221     221       0     223     224
     224       0     226     227     227       0     229     230     230       0
     232     233     233       0     235     236     236       0     238     239
     239       0     241     242     242       0     244     245     245       0
     247     248     248       0     250     251     251       0     253     254
     254       0     256     257     257       0     259     260     260       0
     262     263     263       0     265     266     266       0     268     269
     269       0     271     272     272       0     274     275     275       0
     277     278     278       0     280     281     281       0     283     284
     284       0     286     287     287       0     289     290     290       0
     292     293     293       0     295     296     296       0     298     299
     299       0     301     302     302       0     304     305     305       0
     307     308     308       0     310     311     311       0     313     314
     314       0     316     317     317       0     319     320     320       0
     322     323     323       0     325     326     326       0     328     329
     329       0     331     332     332       0     334     335     335       0
     337     338     338       0     340     341     341       0     343     344
     344       0     346     347     347       0     349     350     350       0
     352     353     353       0     355     356     356       0     358     359
     359       0     361     362     362       0     364     365     365       0
     367     368     368       0     370     371     371       0     373     374
     374       0     376     377     377       0     379     380     380       0
     382     383     383       0     385     386     386       0     388     389
     389       0     391     392     392       0     394     395     395       0
     397     398     398       0     400     401     401       0     403     404
     404       0     406     407     407       0     409     410     410       0
     412     413     413       0     415     416     416       0     418     419
     419       0     421     422     422       0     424     425     425       0
     427     428     428       0     430     431     431       0     433     434
     434       0     436     437     437       0     439     440     440       0
     442     443     443       0     445     446     446       0     448     449
     449       0     451     452     452       0     454     455     455       0
     457     458     458       0     460     461     461       0     463     464
     464       0     466     467     467       0     469     470     470       0
     472     473     473       0     475     476     476       0     478     479
     479       0     481     482     482       0     484     485     485       0
     487     488     488       0     490     491     491       0     493     494
     494       0     496     497     497       0     499     500     500       0
     502     503     503       0     505     506     506       0     508     509
     509       0     511     512     512       0     514     515     515       0
     517     518     518       0     520     521     521       0     523     524
     524       0     526     527     527       0     529     530     530       0
     532     533     533       0     535     536     536       0     538     539
     539       0     541     542     542       0     544     545     545       0
     547     548     548       0     550     551     551       0     553     554
     554       0     556     557     557       0     559     560     560       0
     562     563     563       0     565     566     566       0     568     569
     569       0     571     572     572       0     574     575     575       0
     577     578     578       0     580     581     581       0     583     584
     584       0     586     587     587       0     589     590     590       0
     592     593     593       0     595     596     596       0     598     599
     599       0     601     602     602       0     604     605     605       0
     607     608     608       0     610     611     611       0     613     614
     614       0     616     617     617       0     619     620     620       0
     622     623     623       0     625     626     626       0     628     629
     629       0     631     632     632       0     634     635     635       0
     637     638     638       0     640     641     641       0     643     644
     644       0     646     647     647       0     649     650     650       0
     652     653     653       0     655     656     656       0     658     659
     659       0     661     662     662       0     664     665     665       0
     667     668     668       0     670     671     671       0     673     674
     674       0     676     677     677       0     679     680     680       0
     682     683     683       0     685     686     686       0     688     689
     689       0     691     692     692       0     694     695     695       0
     697     698     698       0     700     701     701       0     703     704
     704       0     706     707     707       0     709     710     710       0
     712     713     713       0     715     716     716       0     718     719
     719       0     721     722     722       0     724     725     725       0
     727     728     728       0     730     731     731       0     733     734
     734       0     736     737     737       0     739     740     740       0
     742     743     743       0     745     746     746       0     748     749
     749       0     751     752     752       0     754     755     755       0
     757     758     758       0     760     761     761       0     763     764
     764       0     766     767     767       0     769     770     770       0
     772     773     773       0     775     776     776       0     778     779
     779       0     781     782     782       0     784     785     785       0
     787     788     788       0     790     791     791       0     793     794
     794       0     796     797     797       0     799     800     800       0
     802     803     803       0     805     806     806       0     808     809
     809       0     811     812     812       0     814     815     815       0
     817     818     818       0     820     821     821       0     823     824
     824       0     826     827     827       0     829     830     830       0
     832     833     833       0     835     836     836       0     838     839
     839       0     841     842     842       0     844     845     845       0
     847     848     848       0     850     851     851       0     853     854
     854       0     856     857     857       0     859     860     860       0
     862     863     863       0     865     866     866       0     868     869
     869       0     871     872     872       0     874     875     875       0
     877     878     878       0     880     881     881       0     883     884
     884       0     886     887     887       0     889     890     890       0
     892     893     893       0     895     896     896       0     898     899
     899       0     901     902     902       0     904     905     905       0
     907     908     908       0     910     911     911       0     913     914
     914       0     916     917     917       0     919     920     920       0
     922     923     923       0     925     926     926       0     928     929
     929       0     931     932     932       0     934     935     935       0
     937     938     938       0     940     941     941       0     943     944
     944       0     946     947     947       0     949     950     950       0
     952     953     953       0     955     956     956       0     958     959
     959       0     961     962     962       0     964     965     965       0
     967     968     968       0     970     971     971       0     973     974
     974       0     976     977     977       0     979     980     980       0
     982     983     983       0     985     986     986       0     988     989
     989       0     991     992     992       0     994     995     995       0
     997     998     998       0    1000    1001    1001       0    1003    1004
    1004       0    1006    1007    1007       0    1009    1010    1010       0
    1012    1013    1013       0    1015    1016    1016       0    1018    1019
    1019       0    1021    1022    1022       0    1024    1025    1025       0
    1027    1028    1028       0    1030    1031    1031       0    1033    1034
    1034       0    1036    1037    1037       0    1039    1040    1040       0
    1042    1043    1043       0    1045    1046    1046       0    1048    1049
    1049       0    1051    1052    1052       0    1054    1055    1055       0
    1057    1058    1058       0    1060    1061    1061       0    1063    1064
    1064       0    1066    1067    1067       0    1069    1070    1070       0
    1072    1073    1073       0    1075    1076    1076       0    1078    1079
    1079       0    1081    1082    1082       0    1084    1085    1085       0
    1087    1088    1088       0    1090    1091    1091       0    1093    1094
    1094       0    1096    1097    1097       0    1099    1100    1100       0
    1102    1103    1103       0    1105    1106    1106       0    1108    1109
    1109       0    1111    1112    1112       0    1114    1115    1115       0
    1117    1118    1118       0    1120    1121    1121       0    1123    1124
    1124       0    1126    1127    1127       0    1129    1130    1130       0
    1132    1133    1133       0    1135    1136    1136       0    1138    1139
    1139       0    1141    1142    1142       0    1144    1145    1145       0
    1147    1148    1148       0    1150    1151    1151       0    1153    1154
    1154       0    1156    1157    1157       0    1159    1160    1160       0
    1162    1163    1163       0    1165    1166    1166       0    1168    1169
    1169       0    1171    1172    1172       0    1174    1175    1175       0
    1177    1178    1178       0    1180    1181    1181       0    1183    1184
    1184       0    1186    1187    1187       0    1189    1190    1190       0
    1192    1193    1193       0    1195    1196    1196       0    1198    1199
    1199       0    1201    1202    1202       0    1204    1205    1205       0
    1207    1208    1208       0    1210    1211    1211       0    1213    1214
    1214       0    1216    1217    1217       0    1219    1220    1220       0
    1222    1223    1223       0    1225    1226    1226       0    1228    1229
    1229       0    1231    1232    1232       0    1234    1235    1235       0
    1237    1238    1238       0    1240    1241    1241       0    1243    1244
    1244       0    1246    1247    1247       0    1249    1250    1250       0
    1252    1253    1253       0    1255    1256    1256       0    1258    1259
    1259       0    1261    1262    1262       0    1264    1265    1265       0
    1267    1268    1268       0    1270    1271    1271       0    1273    1274
    1274       0    1276    1277    1277       0    1279    1280    1280       0
    1282    1283    1283       0    1285    1286    1286       0    1288    1289
    1289       0    1291    1292    1292       0    1294    1295    1295       0
    1297    1298    1298       0    1300    1301    1301       0    1303    1304
    1304       0    1306    1307    1307       0    1309    1310    1310       0
    1312    1313    1313       0    1315    1316    1316       0    1318    1319
    1319       0    1321    1322    1322       0    1324    1325    1325       0
    1327    1328    1328       0    1330    1331    1331       0    1333    1334
    1334       0    1336    1337    1337       0    1339    1340    1340       0
    1342    1343    1343       0    1345    1346    1346       0    1348    1349
    1349       0    1351    1352    1352       0    1354    1355    1355       0
    1357    1358    1358       0    1360    1361    1361       0    1363    1364
    1364       0    1366    1367    1367       0    1369    1370    1370       0
    1372    1373    1373       0    1375    1376    1376       0    1378    1379
    1379       0    1381    1382    1382       0    1384    1385    1385       0
    1387    1388    1388       0    1390    1391    1391       0    1393    1394
    1394       0    1396    1397    1397       0    1399    1400    1400       0
    1402    1403    1403       0    1405    1406    1406       0    1408    1409
    1409       0    1411    1412    1412       0    1414    1415    1415       0
    1417    1418    1418       0    1420    1421    1421       0    1423    1424
    1424       0    1426    1427    1427       0    1429    1430    1430       0
    1432    1433    1433       0    1435    1436    1436       0    1438    1439
    1439       0    1441    1442    1442       0    1444    1445    1445       0
    1447    1448    1448       0    1450    1451    1451       0    1453    1454
    1454       0    1456    1457    1457       0    1459    1460    1460       0
    1462    1463    1463       0    1465    1466    1466       0    1468    1469
    1469       0    1471    1472    1472       0    1474    1475    1475       0
    1477    1478    1478       0    1480    1481    1481       0    1483    1484
    1484       0    1486    1487    1487       0    1489    1490    1490       0
    1492    1493    1493       0    1495    1496    1496       0    1498    1499
    1499       0    1501    1502    1502       0    1504    1505    1505       0
    1507    1508    1508       0    1510    1511    1511       0    1513    1514
    1514       0    1516    1517    1517       0    1519    1520    1520       0
    1522    1523    1523       0    1525    1526    1526       0    1528    1529
    1529       0    1531    1532    1532       0    1534    1535    1535       0
    1537    1538    1538       0    1540    1541    1541       0    1543    1544
    1544       0    1546    1547    1547       0    1549    1550    1550       0
    1552    1553    1553       0    1555    1556    1556       0    1558    1559
    1559       0    1561    1562    1562       0    1564    1565    1565       0
    1567    1568    1568       0    1570    1571    1571       0    1573    1574
    1574       0    1576    1577    1577       0    1579    1580    1580       0
    1582    1583    1583       0    1585    1586    1586       0    1588    1589
    1589       0    1591    1592    1592       0    1594    1595    1595       0
    1597    1598    1598       0    1600    1601    1601       0    1603    1604
    1604       0    1606    1607    1607       0    1609    1610    1610       0
    1612    1613    1613       0    1615    1616    1616       0    1618    1619
    1619       0    1621    1622    1622       0    1624    1625    1625       0
    1627    1628    1628       0    1630    1631    1631       0    1633    1634
    1634       0    1636    1637    1637       0    1639    1640    1640       0
    1642    1643    1643       0    1645    1646    1646       0    1648    1649
    1649       0    1651    1652    1652       0    1654    1655    1655       0
    1657    1658    1658       0    1660    1661    1661       0    1663    1664
    1664       0    1666    1667    1667       0    1669    1670    1670       0
    1672    1673    1673       0    1675    1676    1676       0    1678    1679
    1679       0    1681    1682    1682       0    1684    1685    1685       0
    1687    1688    1688       0    1690    1691    1691       0    1693    1694
    1694       0    1696    1697    1697       0    1699    1700    1700       0
    1702    1703    1703       0    1705    1706    1706       0    1708    1709
    1709       0    1711    1712    1712       0    1714    1715    1715       0
    1717    1718    1718       0    1720    1721    1721       0    1723    1724
    1724       0    1726    1727    1727       0    1729    1730    1730       0
    1732    1733    1733       0    1735    1736    1736       0    1738    1739
    1739       0    1741    1742    1742       0    1744    1745    1745       0
    1747    1748    1748       0    1750    1751    1751       0    1753    1754
    1754       0    1756    1757    1757       0    1759    1760    1760       0
    1762    1763    1763       0    1765    1766    1766       0    1768    1769
    1769       0    1771    1772    1772       0    1774    1775    1775       0
    1777    1778    1778       0    1780    1781    1781       0    1783    1784
    1784       0    1786    1787    1787       0    1789    1790    1790       0
    1792    1793    1793       0    1795    1796    1796       0    1798    1799
    1799       0    1801    1802    1802       0    1804    1805    1805       0
    1807    1808    1808       0    1810    1811    1811       0    1813    1814
    1814       0    1816    1817    1817       0    1819    1820    1820       0
    1822    1823    1823       0    1825    1826    1826       0    1828    1829
    1829       0    1831    1832    1832       0    1834    1835    1835       0
    1837    1838    1838       0    1840    1841    1841       0    1843    1844
    1844       0    1846    1847    1847       0    1849    1850    1850       0
    1852    1853    1853       0    1855    1856    1856       0    1858    1859
    1859       0    1861    1862    1862       0    1864    1865    1865       0
    1867    1868    1868       0    1870    1871    1871       0    1873    1874
    1874       0    1876    1877    1877       0    1879    1880    1880       0
    1882    1883    1883       0    1885    1886    1886       0    1888    1889
    1889       0    1891    1892    1892       0    1894    1895    1895       0
    1897    1898    1898       0    1900    1901    1901       0    1903    1904
    1904       0    1906    1907    1907       0    1909    1910    1910       0
    1912    1913    1913       0    1915    1916    1916       0    1918    1919
    1919       0    1921    1922    1922       0    1924    1925    1925       0
    1927    1928    1928       0    1930    1931    1931       0    1933    1934
    1934       0    1936    1937    1937       0    1939    1940    1940       0
    1942    1943    1943       0    1945    1946    1946       0    1948    1949
    1949       0    1951    1952    1952       0    1954    1955    1955       0
    1957    1958    1958       0    1960    1961    1961       0    1963    1964
    1964       0    1966    1967    1967       0    1969    1970    1970       0
    1972    1973    1973       0    1975    1976    1976       0    1978    1979
    1979       0    1981    1982    1982       0    1984    1985    1985       0
    1987    1988    1988       0    1990    1991    1991       0    1993    1994
    1994       0    1996    1997    1997       0    1999    2000    2000       0
    2002    2003    2003       0    2005    2006    2006       0    2008    2009
    2009       0    2011    2012    2012       0    2014    2015    2015       0
    2017    2018    2018       0    2020    2021    2021       0    2023    2024
    2024       0    2026    2027    2027       0    2029    2030    2030       0
    2032    2033    2033       0    2035    2036    2036       0    2038    2039
    2039       0    2041    2042    2042       0    2044    2045    2045       0
    2047    2048    2048       0    2050    2051    2051       0    2053    2054
    2054       0    2056    2057    2057       0    2059    2060    2060       0
    2062    2063    2063       0    2065    2066    2066       0    2068    2069
    2069       0    2071    2072    2072       0    2074    2075    2075       0
    2077    2078    2078       0    2080    2081    2081       0    2083    2084
    2084       0    2086    2087    2087       0    2089    2090    2090       0
    2092    2093    2093       0    2095    2096    2096       0    2098    2099
    2099       0    2101    2102    2102       0    2104    2105    2105       0
    2107    2108    2108       0    2110    2111    2111       0    2113    2114
    2114       0    2116    2117    2117       0    2119    2120    2120       0
    2122    2123    2123       0    2125    2126    2126       0    2128    2129
    2129       0    2131    2132    2132       0    2134    2135    2135       0
    2137    2138    2138       0    2140    2141    2141       0    2143    2144
    2144       0    2146    2147    2147       0    2149    2150    2150       0
    2152    2153    2153       0    2155    2156    2156       0    2158    2159
    2159       0    2161    2162    2162       0    2164    2165    2165       0
    2167    2168    2168       0    2170    2171    2171       0    2173    2174
    2174       0    2176    2177    2177       0    2179    2180    2180       0
    2182    2183    2183       0    2185    2186    2186       0    2188    2189
    2189       0    2191    2192    2192       0    2194    2195    2195       0
    2197    2198    2198       0    2200    2201    2201       0    2203    2204
    2204       0    2206    2207    2207       0    2209    2210    2210       0
    2212    2213    2213       0    2215    2216    2216       0    2218    2219
    2219       0    2221    2222    2222       0    2224    2225    2225       0
    2227    2228    2228       0    2230    2231    2231       0    2233    2234
    2234       0    2236    2237    2237       0    2239    2240    2240       0
    2242    2243    2243       0    2245    2246    2246       0    2248    2249
    2249       0    2251    2252    2252       0    2254    2255    2255       0
    2257    2258    2258       0    2260    2261    2261       0    2263    2264
    2264       0    2266    2267    2267       0    2269    2270    2270       0
    2272    2273    2273       0    2275    2276    2276       0    2278    2279
    2279       0    2281    2282    2282       0    2284    2285    2285       0
    2287    2288    2288       0    2290    2291    2291       0    2293    2294
    2294       0    2296    2297    2297       0    2299    2300    2300       0
    2302    2303    2303       0    2305    2306    2306       0    2308    2309
    2309       0    2311    2312    2312       0    2314    2315    2315       0
    2317    2318    2318       0    2320    2321    2321       0    2323    2324
    2324       0    2326    2327    2327       0    2329    2330    2330       0
    2332    2333    2333       0    2335    2336    2336       0    2338    2339
    2339       0    2341    2342    2342       0    2344    2345    2345       0
    2347    2348    2348       0    2350    2351    2351       0    2353    2354
    2354       0    2356    2357    2357       0    2359    2360    2360       0
    2362    2363    2363       0    2365    2366    2366       0    2368    2369
    2369       0    2371    2372    2372       0    2374    2375    2375       0
    2377    2378    2378       0    2380    2381    2381       0    2383    2384
    2384       0    2386    2387    2387       0    2389    2390    2390       0
    2392    2393    2393       0    2395    2396    2396       0    2398    2399
    2399       0    2401    2402    2402       0    2404    2405    2405       0
    2407    2408    2408       0    2410    2411    2411       0    2413    2414
    2414       0    2416    2417    2417       0    2419    2420    2420       0
    2422    2423    2423       0    2425    2426    2426       0    2428    2429
    2429       0    2431    2432    2432       0    2434    2435    2435       0
    2437    2438    2438       0    2440    2441    2441       0    2443    2444
    2444       0    2446    2447    2447       0    2449    2450    2450       0
    2452    2453    2453       0    2455    2456    2456       0    2458    2459
    2459       0    2461    2462    2462       0    2464    2465    2465       0
    2467    2468    2468       0    2470    2471    2471       0    2473    2474
    2474       0    2476    2477    2477       0    2479    2480    2480       0
    2482    2483    2483       0    2485    2486    2486       0    2488    2489
    2489       0    2491    2492    2492       0    2494    2495    2495       0
    2497    2498    2498       0    2500    2501    2501       0    2503    2504
    2504       0    2506    2507    2507       0    2509    2510    2510       0
    2512    2513    2513       0    2515    2516    2516       0    2518    2519
    2519       0    2521    2522    2522       0    2524    2525    2525       0
    2527    2528    2528       0    2530    2531    2531       0    2533    2534
    2534       0    2536    2537    2537       0    2539    2540    2540       0
    2542    2543    2543       0    2545    2546    2546       0    2548    2549
    2549       0    2551    2552    2552       0    2554    2555    2555       0
    2557    2558    2558       0    2560    2561    2561       0    2563    2564
    2564       0    2566    2567    2567       0    2569    2570    2570       0
    2572    2573    2573       0    2575    2576    2576       0    2578    2579
    2579       0    2581    2582    2582       0    2584    2585    2585       0
    2587    2588    2588       0    2590    2591    2591       0    2593    2594
    2594       0    2596    2597    2597       0    2599    2600    2600       0
    2602    2603    2603       0    2605    2606    2606       0    2608    2609
    2609       0    2611    2612    2612       0    2614    2615    2615       0
    2617    2618    2618       0    2620    2621    2621       0    2623    2624
    2624       0    2626    2627    2627       0    2629    2630    2630       0
    2632    2633    2633       0    2635    2636    2636       0    2638    2639
    2639       0    2641    2642    2642       0    2644    2645    2645       0
    2647    2648    2648       0    2650    2651    2651       0    2653    2654
    2654       0    2656    2657    2657       0    2659    2660    2660       0
    2662    2663    2663       0    2665    2666    2666       0    2668    2669
    2669       0    2671    2672    2672       0    2674    2675    2675       0
    2677    2678    2678       0    2680    2681    2681       0    2683    2684
    2684       0    2686    2687    2687       0    2689    2690    2690       0
    2692    2693    2693       0    2695    2696    2696       0    2698    2699
    2699       0    2701    2702    2702       0    2704    2705    2705       0
    2707    2708    2708       0    2710    2711    2711       0    2713    2714
    2714       0    2716    2717    2717       0    2719    2720    2720       0
    2722    2723    2723       0    2725    2726    2726       0    2728    2729
    2729       0    2731    2732    2732       0    2734    2735    2735       0
    2737    2738    2738       0    2740    2741    2741       0    2743    2744
    2744       0    2746    2747    2747       0    2749    2750    2750       0
    2752    2753    2753       0    2755    2756    2756       0    2758    2759
    2759       0    2761    2762    2762       0    2764    2765    2765       0
    2767    2768    2768       0    2770    2771    2771       0    2773    2774
    2774       0    2776    2777    2777       0    2779    2780    2780       0
    2782    2783    2783       0    2785    2786    2786       0    2788    2789
    2789       0    2791    2792    2792       0    2794    2795    2795       0
    2797    2798    2798       0    2800    2801    2801       0    2803    2804
    2804       0    2806    2807    2807       0    2809    2810    2810       0
    2812    2813    2813       0    2815    2816    2816       0    2818    2819
    2819       0    2821    2822    2822       0    2824    2825    2825       0
    2827    2828    2828       0    2830    2831    2831       0    2833    2834
    2834       0    2836    2837    2837       0    2839    2840    2840       0
    2842    2843    2843       0    2845    2846    2846       0    2848    2849
    2849       0    2851    2852    2852       0    2854    2855    2855       0
    2857    2858    2858       0    2860    2861    2861       0    2863    2864
    2864       0    2866    2867    2867       0    2869    2870    2870       0
    2872    2873    2873       0    2875    2876    2876       0    2878    2879
    2879       0    2881    2882    2882       0    2884    2885    2885       0
    2887    2888    2888       0    2890    2891    2891       0    2893    2894
    2894       0    2896    2897    2897       0    2899    2900    2900       0
    2902    2903    2903       0    2905    2906    2906       0    2908    2909
    2909       0    2911    2912    2912       0    2914    2915    2915       0
    2917    2918    2918       0    2920    2921    2921       0    2923    2924
    2924       0    2926    2927    2927       0    2929    2930    2930       0
    2932    2933    2933       0    2935    2936    2936       0    2938    2939
    2939       0    2941    2942    2942       0    2944    2945    2945       0
    2947    2948    2948       0    2950    2951    2951       0    2953    2954
    2954       0    2956    2957    2957       0    2959    2960    2960       0
    2962    2963    2963       0    2965    2966    2966       0    2968    2969
    2969       0    2971    2972    2972       0    2974    2975    2975       0
    2977    2978    2978       0    2980    2981    2981       0    2983    2984
    2984       0    2986    2987    2987       0    2989    2990    2990       0
    2992    2993    2993       0    2995    2996    2996       0    2998    2999
    2999       0    3001    3002    3002       0    3004    3005    3005       0
    3007    3008    3008       0    3010    3011    3011       0    3013    3014
    3014       0    3016    3017    3017       0    3019    3020    3020       0
    3022    3023    3023       0    3025    3026    3026       0    3028    3029
    3029       0    3031    3032    3032       0    3034    3035    3035       0
    3037    3038    3038       0    3040    3041    3041       0    3043    3044
    3044       0    3046    3047    3047       0    3049    3050    3050       0
    3052    3053    3053       0    3055    3056    3056       0    3058    3059
    3059       0    3061    3062    3062       0    3064    3065    3065       0
    3067    3068    3068       0    3070    3071    3071       0    3073    3074
    3074       0    3076    3077    3077       0    3079    3080    3080       0
    3082    3083    3083       0    3085    3086    3086       0    3088    3089
    3089       0    3091    3092    3092       0    3094    3095    3095       0
    3097    3098    3098       0    3100    3101    3101       0    3103    3104
    3104       0    3106    3107    3107       0    3109    3110    3110       0
    3112    3113    3113       0    3115    3116    3116       0    3118    3119
    3119       0    3121    3122    3122       0    3124    3125    3125       0
    3127    3128    3128       0    3130    3131    3131       0    3133    3134
    3134       0    3136    3137    3137       0    3139    3140    3140       0
    3142    3143    3143       0    3145    3146    3146       0    3148    3149
    3149       0    3151    3152    3152       0    3154    3155    3155       0
    3157    3158    3158       0    3160    3161    3161       0    3163    3164
    3164       0    3166    3167    3167       0    3169    3170    3170       0
    3172    3173    3173       0    3175    3176    3176       0    3178    3179
    3179       0    3181    3182    3182       0    3184    3185    3185       0
    3187    3188    3188       0    3190    3191    3191       0    3193    3194
    3194       0    3196    3197    3197       0    3199    3200    3200       0
    3202    3203    3203       0    3205    3206    3206       0    3208    3209
    3209       0    3211    3212    3212       0    3214    3215    3215       0
    3217    3218    3218       0    3220    3221    3221       0    3223    3224
    3224       0    3226    3227    3227       0    3229    3230    3230       0
    3232    3233    3233       0    3235    3236    3236       0    3238    3239
    3239       0    3241    3242    3242       0    3244    3245    3245       0
    3247    3248    3248       0    3250    3251    3251       0    3253    3254
    3254       0    3256    3257    3257       0    3259    3260    3260       0
    3262    3263    3263       0    3265    3266    3266       0    3268    3269
    3269       0    3271    3272    3272       0    3274    3275    3275       0
    3277    3278    3278       0    3280    3281    3281       0    3283    3284
    3284       0    3286    3287    3287       0    3289    3290    3290       0
    3292    3293    3293       0    3295    3296    3296       0    3298    3299
    3299       0    3301    3302    3302       0    3304    3305    3305       0
    3307    3308    3308       0    3310    3311    3311       0    3313    3314
    3314       0    3316    3317    3317       0    3319    3320    3320       0
    3322    3323    3323       0    3325    3326    3326       0    3328    3329
    3329       0    3331    3332    3332       0    3334    3335    3335       0
    3337    3338    3338       0    3340    3341    3341       0    3343    3344
    3344       0    3346    3347    3347       0    3349    3350    3350       0
    3352    3353    3353       0    3355    3356    3356       0    3358    3359
    3359       0    3361    3362    3362       0    3364    3365    3365       0
    3367    3368    3368       0    3370    3371    3371       0    3373    3374
    3374       0    3376    3377    3377       0    3379    3380    3380       0
    3382    3383    3383       0    3385    3386    3386       0    3388    3389
    3389       0    3391    3392    3392       0    3394    3395    3395       0
    3397    3398    3398       0    3400    3401    3401       0    3403    3404
    3404       0    3406    3407    3407       0    3409    3410    3410       0
    3412    3413    3413       0    3415    3416    3416       0    3418    3419
    3419       0    3421    3422    3422       0    3424    3425    3425       0
    3427    3428    3428       0    3430    3431    3431       0    3433    3434
    3434       0    3436    3437    3437       0    3439    3440    3440       0
    3442    3443    3443       0    3445    3446    3446       0    3448    3449
    3449       0    3451    3452    3452       0    3454    3455    3455       0
    3457    3458    3458       0    3460    3461    3461       0    3463    3464
    3464       0    3466    3467    3467       0    3469    3470    3470       0
    3472    3473    3473       0    3475    3476    3476       0    3478    3479
    3479       0    3481    3482    3482       0    3484    3485    3485       0
    3487    3488    3488       0    3490    3491    3491       0    3493    3494
    3494       0    3496    3497    3497       0    3499    3500    3500       0
    3502    3503    3503       0    3505    3506    3506       0    3508    3509
    3509       0    3511    3512    3512       0    3514    3515    3515       0
    3517    3518    3518       0    3520    3521    3521       0    3523    3524
    3524       0    3526    3527    3527       0    3529    3530    3530       0
    3532    3533    3533       0    3535    3536    3536       0    3538    3539
    3539       0    3541    3542    3542       0    3544    3545    3545       0
    3547    3548    3548       0    3550    3551    3551       0    3553    3554
    3554       0    3556    3557    3557       0    3559    3560    3560       0
    3562    3563    3563       0    3565    3566    3566       0    3568    3569
    3569       0    3571    3572    3572       0    3574    3575    3575       0
    3577    3578    3578       0    3580    3581    3581       0    3583    3584
    3584       0    3586    3587    3587       0    3589    3590    3590       0
    3592    3593    3593       0    3595    3596    3596       0    3598    3599
    3599       0    3601    3602    3602       0    3604    3605    3605       0
    3607    3608    3608       0    3610    3611    3611       0    3613    3614
    3614       0    3616    3617    3617       0    3619    3620    3620       0
    3622    3623    3623       0    3625    3626    3626       0    3628    3629
    3629       0    3631    3632    3632       0    3634    3635    3635       0
    3637    3638    3638       0    3640    3641    3641       0    3643    3644
    3644       0    3646    3647    3647       0    3649    3650    3650       0
    3652    3653    3653       0    3655    3656    3656       0    3658    3659
    3659       0    3661    3662    3662       0    3664    3665    3665       0
    3667    3668    3668       0    3670    3671    3671       0    3673    3674
    3674       0    3676    3677    3677       0    3679    3680    3680       0
    3682    3683    3683       0    3685    3686    3686       0    3688    3689
    3689       0    3691    3692    3692       0    3694    3695    3695       0
    3697    3698    3698       0    3700    3701    3701       0    3703    3704
    3704       0    3706    3707    3707       0    3709    3710    3710       0
    3712    3713    3713       0    3715    3716    3716       0    3718    3719
    3719       0    3721    3722    3722       0    3724    3725    3725       0
    3727    3728    3728       0    3730    3731    3731       0    3733    3734
    3734       0    3736    3737    3737       0    3739    3740    3740       0
    3742    3743    3743       0    3745    3746    3746       0    3748    3749
    3749       0    3751    3752    3752       0    3754    3755    3755       0
    3757    3758    3758       0    3760    3761    3761       0    3763    3764
    3764       0    3766    3767    3767       0    3769    3770    3770       0
    3772    3773    3773       0    3775    3776    3776       0    3778    3779
    3779       0    3781    3782    3782       0    3784    3785    3785       0
    3787    3788    3788       0    3790    3791    3791       0    3793    3794
    3794       0    3796    3797    3797       0    3799    3800    3800       0
    3802    3803    3803       0    3805    3806    3806       0    3808    3809
    3809       0    3811    3812    3812       0    3814    3815    3815       0
    3817    3818    3818       0    3820    3821    3821       0    3823    3824
    3824       0    3826    3827    3827       0    3829    3830    3830       0
    3832    3833    3833       0    3835    3836    3836       0    3838    3839
    3839       0    3841    3842    3842       0    3844    3845    3845       0
    3847    3848    3848       0    3850    3851    3851       0    3853    3854
    3854       0    3856    3857    3857       0    3859    3860    3860       0
    3862    3863    3863       0    3865    3866    3866       0    3868    3869
    3869       0    3871    3872    3872       0    3874    3875    3875       0
    3877    3878    3878       0    3880    3881    3881       0    3883    3884
    3884       0    3886    3887    3887       0    3889    3890    3890       0
    3892    3893    3893       0    3895    3896    3896       0    3898    3899
    3899       0    3901    3902    3902       0    3904    3905    3905       0
    3907    3908    3908       0    3910    3911    3911       0    3913    3914
    3914       0    3916    3917    3917       0    3919    3920    3920       0
    3922    3923    3923       0    3925    3926    3926       0    3928    3929
    3929       0    3931    3932    3932       0    3934    3935    3935       0
    3937    3938    3938       0    3940    3941    3941       0    3943    3944
    3944       0    3946    3947    3947       0    3949    3950    3950       0
    3952    3953    3953       0    3955    3956    3956       0    3958    3959
    3959       0    3961    3962    3962       0    3964    3965    3965       0
    3967    3968    3968       0    3970    3971    3971       0    3973    3974
    3974       0    3976    3977    3977       0    3979    3980    3980       0
    3982    3983    3983       0    3985    3986    3986       0    3988    3989
    3989       0    3991    3992    3992       0    3994    3995    3995       0
    3997    3998    3998       0    4000    4001    4001       0    4003    4004
    4004       0    4006    4007    4007       0    4009    4010    4010       0
    4012    4013    4013       0    4015    4016    4016       0    4018    4019
    4019       0    4021    4022    4022       0    4024    4025    4025       0
    4027    4028    4028       0    4030    4031    4031       0    4033    4034
    4034       0    4036    4037    4037       0    4039    4040    4040       0
    4042    4043    4043       0    4045    4046    4046       0    4048    4049
    4049       0    4051    4052    4052       0    4054    4055    4055       0
    4057    4058    4058       0    4060    4061    4061       0    4063    4064
    4064       0    4066    4067    4067       0    4069    4070    4070       0
    4072    4073    4073       0    4075    4076    4076       0    4078    4079
    4079       0    4081    4082    4082       0    4084    4085    4085       0
    4087    4088    4088       0    4090    4091    4091       0    4093    4094
    4094       0    4096    4097    4097       0    4099    4100    4100       0
    4102    4103    4103       0    4105    4106    4106       0    4108    4109
    4109       0    4111    4112    4112       0    4114    4115    4115       0
    4117    4118    4118       0    4120    4121    4121       0    4123    4124
    4124       0    4126    4127    4127       0    4129    4130    4130       0
    4132    4133    4133       0    4135    4136    4136       0    4138    4139
    4139       0    4141    4142    4142       0    4144    4145    4145       0
    4147    4148    4148       0    4150    4151    4151       0    4153    4154
    4154       0    4156    4157    4157       0    4159    4160    4160       0
    4162    4163    4163       0    4165    4166    4166       0    4168    4169
    4169       0    4171    4172    4172       0    4174    4175    4175       0
    4177    4178    4178       0    4180    4181    4181       0    4183    4184
    4184       0    4186    4187    4187       0    4189    4190    4190       0
    4192    4193    4193       0    4195    4196    4196       0    4198    4199
    4199       0    4201    4202    4202       0    4204    4205    4205       0
    4207    4208    4208       0    4210    4211    4211       0    4213    4214
    4214       0    4216    4217    4217       0    4219    4220    4220       0
    4222    4223    4223       0    4225    4226    4226       0    4228    4229
    4229       0    4231    4232    4232       0    4234    4235    4235       0
    4237    4238    4238       0    4240    4241    4241       0    4243    4244
    4244       0    4246    4247    4247       0    4249    4250    4250       0
    4252    4253    4253       0    4255    4256    4256       0    4258    4259
    4259       0    4261    4262    4262       0    4264    4265    4265       0
    4267    4268    4268       0    4270    4271    4271       0    4273    4274
    4274       0    4276    4277    4277       0    4279    4280    4280       0
    4282    4283    4283       0    4285    4286    4286       0    4288    4289
    4289       0    4291    4292    4292       0    4294    4295    4295       0
    4297    4298    4298       0    4300    4301    4301       0    4303    4304
    4304       0    4306    4307    4307       0    4309    4310    4310       0
    4312    4313    4313       0    4315    4316    4316       0    4318    4319
    4319       0    4321    4322    4322       0    4324    4325    4325       0
    4327    4328    4328       0    4330    4331    4331       0    4333    4334
    4334       0    4336    4337    4337       0    4339    4340    4340       0
    4342    4343    4343       0    4345    4346    4346       0    4348    4349
    4349       0    4351    4352    4352       0    4354    4355    4355       0
    4357    4358    4358       0    4360    4361    4361       0    4363    4364
    4364       0    4366    4367    4367       0    4369    4370    4370       0
    4372    4373    4373       0    4375    4376    4376       0    4378    4379
    4379       0    4381    4382    4382       0    4384    4385    4385       0
    4387    4388    4388       0    4390    4391    4391       0    4393    4394
    4394       0    4396    4397    4397       0    4399    4400    4400       0
    4402    4403    4403       0    4405    4406    4406       0    4408    4409
    4409       0    4411    4412    4412       0    4414    4415    4415       0
    4417    4418    4418       0    4420    4421    4421       0    4423    4424
    4424       0    4426    4427    4427       0    4429    4430    4430       0
    4432    4433    4433       0    4435    4436    4436       0    4438    4439
    4439       0    4441    4442    4442       0    4444    4445    4445       0
    4447    4448    4448       0    4450    4451    4451       0    4453    4454
    4454       0    4456    4457    4457       0    4459    4460    4460       0
    4462    4463    4463       0    4465    4466    4466       0    4468    4469
    4469       0    4471    4472    4472       0    4474    4475    4475       0
    4477    4478    4478       0    4480    4481    4481       0    4483    4484
    4484       0    4486    4487    4487       0    4489    4490    4490       0
    4492    4493    4493       0    4495    4496    4496       0    4498    4499
    4499       0    4501    4502    4502       0    4504    4505    4505       0
    4507    4508    4508       0    4510    4511    4511       0    4513    4514
    4514       0    4516    4517    4517       0    4519    4520    4520       0
    4522    4523    4523       0    4525    4526    4526       0    4528    4529
    4529       0    4531    4532    4532       0    4534    4535    4535       0
    4537    4538    4538       0    4540    4541    4541       0    4543    4544
    4544       0    4546    4547    4547       0    4549    4550    4550       0
    4552    4553    4553       0    4555    4556    4556       0    4558    4559
    4559       0    4561    4562    4562       0    4564    4565    4565       0
    4567    4568    4568       0    4570    4571    4571       0    4573    4574
    4574       0    4576    4577    4577       0    4579    4580    4580       0
    4582    4583    4583       0    4585    4586    4586       0    4588    4589
    4589       0    4591    4592    4592       0    4594    4595    4595       0
    4597    4598    4598       0    4600    4601    4601       0    4603    4604
    4604       0    4606    4607    4607       0    4609    4610    4610       0
    4612    4613    4613       0    4615    4616    4616       0    4618    4619
    4619       0    4621    4622    4622       0    4624    4625    4625       0
    4627    4628    4628       0    4630    4631    4631       0    4633    4634
    4634       0    4636    4637    4637       0    4639    4640    4640       0
    4642    4643    4643       0    4645    4646    4646       0    4648    4649
    4649       0    4651    4652    4652       0    4654    4655    4655       0
    4657    4658    4658       0    4660    4661    4661       0    4663    4664
    4664       0    4666    4667    4667       0    4669    4670    4670       0
    4672    4673    4673       0    4675    4676    4676       0    4678    4679
    4679       0    4681    4682    4682       0    4684    4685    4685       0
    4687    4688    4688       0    4690    4691    4691       0    4693    4694
    4694       0    4696    4697    4697       0    4699    4700    4700       0
    4702    4703    4703       0    4705    4706    4706       0    4708    4709
    4709       0    4711    4712    4712       0    4714    4715    4715       0
    4717    4718    4718       0    4720    4721    4721       0    4723    4724
    4724       0    4726    4727    4727       0    4729    4730    4730       0
    4732    4733    4733       0    4735    4736    4736       0    4738    4739
    4739       0    4741    4742    4742       0    4744    4745    4745       0
    4747    4748    4748       0    4750    4751    4751       0    4753    4754
    4754       0    4756    4757    4757       0    4759    4760    4760       0
    4762    4763    4763       0    4765    4766    4766       0    4768    4769
    4769       0    4771    4772    4772       0    4774    4775    4775       0
    4777    4778    4778       0    4780    4781    4781       0    4783    4784
    4784       0    4786    4787    4787       0    4789    4790    4790       0
    4792    4793    4793       0    4795    4796    4796       0    4798    4799
    4799       0    4801    4802    4802       0    4804    4805    4805       0
    4807    4808    4808       0    4810    4811    4811       0    4813    4814
    4814       0    4816    4817    4817       0    4819    4820    4820       0
    4822    4823    4823       0    4825    4826    4826       0    4828    4829
    4829       0    4831    4832    4832       0    4834    4835    4835       0
    4837    4838    4838       0    4840    4841    4841       0    4843    4844
    4844       0    4846    4847    4847       0    4849    4850    4850       0
    4852    4853    4853       0    4855    4856    4856       0    4858    4859
    4859       0    4861    4862    4862       0    4864    4865    4865       0
    4867    4868    4868       0    4870    4871    4871       0    4873    4874
    4874       0    4876    4877    4877       0    4879    4880    4880       0
    4882    4883    4883       0    4885    4886    4886       0    4888    4889
    4889       0    4891    4892    4892       0    4894    4895    4895       0
    4897    4898    4898       0    4900    4901    4901       0    4903    4904
    4904       0    4906    4907    4907       0    4909    4910    4910       0
    4912    4913    4913       0    4915    4916    4916       0    4918    4919
    4919       0    4921    4922    4922       0    4924    4925    4925       0
    4927    4928    4928       0    4930    4931    4931       0    4933    4934
    4934       0    4936    4937    4937       0    4939    4940    4940       0
    4942    4943    4943       0    4945    4946    4946       0    4948    4949
    4949       0    4951    4952    4952       0    4954    4955    4955       0
    4957    4958    4958       0    4960    4961    4961       0    4963    4964
    4964       0    4966    4967    4967       0    4969    4970    4970       0
    4972    4973    4973       0    4975    4976    4976       0    4978    4979
    4979       0    4981    4982    4982       0    4984    4985    4985       0
    4987    4988    4988       0    4990    4991    4991       0    4993    4994
    4994       0    4996    4997    4997       0    4999    5000    5000       0
    5002    5003    5003       0    5005    5006    5006       0    5008    5009
    5009       0    5011    5012    5012       0    5014    5015    5015       0
    5017    5018    5018       0    5020    5021    5021       0    5023    5024
    5024       0    5026    5027    5027       0    5029    5030    5030       0
    5032    5033    5033       0    5035    5036    5036       0    5038    5039
    5039       0    5041    5042    5042       0    5044    5045    5045       0
    5047    5048    5048       0    5050    5051    5051       0    5053    5054
    5054       0    5056    5057    5057       0    5059    5060    5060       0
    5062    5063    5063       0    5065    5066    5066       0    5068    5069
    5069       0    5071    5072    5072       0    5074    5075    5075       0
    5077    5078    5078       0    5080    5081    5081       0    5083    5084
    5084       0    5086    5087    5087       0    5089    5090    5090       0
    5092    5093    5093       0    5095    5096    5096       0    5098    5099
    5099       0    5101    5102    5102       0    5104    5105    5105       0
    5107    5108    5108       0    5110    5111    5111       0    5113    5114
    5114       0    5116    5117    5117       0    5119    5120    5120       0
    5122    5123    5123       0    5125    5126    5126       0    5128    5129
    5129       0    5131    5132    5132       0    5134    5135    5135       0
    5137    5138    5138       0    5140    5141    5141       0    5143    5144
    5144       0    5146    5147    5147       0    5149    5150    5150       0
    5152    5153    5153       0    5155    5156    5156       0    5158    5159
    5159       0    5161    5162    5162       0    5164    5165    5165       0
    5167    5168    5168       0    5170    5171    5171       0    5173    5174
    5174       0    5176    5177    5177       0    5179    5180    5180       0
    5182    5183    5183       0    5185    5186    5186       0    5188    5189
    5189       0    5191    5192    5192       0    5194    5195    5195       0
    5197    5198    5198       0    5200    5201    5201       0    5203    5204
    5204       0    5206    5207    5207       0    5209    5210    5210       0
    5212    5213    5213       0    5215    5216    5216       0    5218    5219
    5219       0    5221    5222    5222       0    5224    5225    5225       0
    5227    5228    5228       0    5230    5231    5231       0    5233    5234
    5234       0    5236    5237    5237       0    5239    5240    5240       0
    5242    5243    5243       0    5245    5246    5246       0    5248    5249
    5249       0    5251    5252    5252       0    5254    5255    5255       0
    5257    5258    5258       0    5260    5261    5261       0    5263    5264
    5264       0    5266    5267    5267       0    5269    5270    5270       0
    5272    5273    5273       0    5275    5276    5276       0    5278    5279
    5279       0    5281    5282    5282       0    5284    5285    5285       0
    5287    5288    5288       0    5290    5291    5291       0    5293    5294
    5294       0    5296    5297    5297       0    5299    5300    5300       0
    5302    5303    5303       0    5305    5306    5306       0    5308    5309
    5309       0    5311    5312    5312       0    5314    5315    5315       0
    5317    5318    5318       0    5320    5321    5321       0    5323    5324
    5324       0    5326    5327    5327       0    5329    5330    5330       0
    5332    5333    5333       0    5335    5336    5336       0    5338    5339
    5339       0    5341    5342    5342       0    5344    5345    5345       0
    5347    5348    5348       0    5350    5351    5351       0    5353    5354
    5354       0    5356    5357    5357       0    5359    5360    5360       0
    5362    5363    5363       0    5365    5366    5366       0    5368    5369
    5369       0    5371    5372    5372       0    5374    5375    5375       0
    5377    5378    5378       0    5380    5381    5381       0    5383    5384
    5384       0    5386    5387    5387       0    5389    5390    5390       0
    5392    5393    5393       0    5395    5396    5396       0    5398    5399
    5399       0    5401    5402    5402       0    5404    5405    5405       0
    5407    5408    5408       0    5410    5411    5411       0    5413    5414
    5414       0    5416    5417    5417       0    5419    5420    5420       0
    5422    5423    5423       0    5425    5426    5426       0    5428    5429
    5429       0    5431    5432    5432       0    5434    5435    5435       0
    5437    5438    5438       0    5440    5441    5441       0    5443    5444
    5444       0    5446    5447    5447       0    5449    5450    5450       0
    5452    5453    5453       0    5455    5456    5456       0    5458    5459
    5459       0    5461    5462    5462       0    5464    5465    5465       0
    5467    5468    5468       0    5470    5471    5471       0    5473    5474
    5474       0    5476    5477    5477       0    5479    5480    5480       0
    5482    5483    5483       0    5485    5486    5486       0    5488    5489
    5489       0    5491    5492    5492       0    5494    5495    5495       0
    5497    5498    5498       0    5500    5501    5501       0    5503    5504
    5504       0    5506    5507    5507       0    5509    5510    5510       0
    5512    5513    5513       0    5515    5516    5516       0    5518    5519
    5519       0    5521    5522    5522       0    5524    5525    5525       0
    5527    5528    5528       0    5530    5531    5531       0    5533    5534
    5534       0    5536    5537    5537       0    5539    5540    5540       0
    5542    5543    5543       0    5545    5546    5546       0    5548    5549
    5549       0    5551    5552    5552       0    5554    5555    5555       0
    5557    5558    5558       0    5560    5561    5561       0    5563    5564
    5564       0    5566    5567    5567       0    5569    5570    5570       0
    5572    5573    5573       0    5575    5576    5576       0    5578    5579
    5579       0    5581    5582    5582       0    5584    5585    5585       0
    5587    5588    5588       0    5590    5591    5591       0    5593    5594
    5594       0    5596    5597    5597       0    5599    5600    5600       0
    5602    5603    5603       0    5605    5606    5606       0    5608    5609
    5609       0    5611    5612    5612       0    5614    5615    5615       0
    5617    5618    5618       0    5620    5621    5621       0    5623    5624
    5624       0    5626    5627    5627       0    5629    5630    5630       0
    5632    5633    5633       0    5635    5636    5636       0    5638    5639
    5639       0    5641    5642    5642       0    5644    5645    5645       0
    5647    5648    5648       0    5650    5651    5651       0    5653    5654
    5654       0    5656    5657    5657       0    5659    5660    5660       0
    5662    5663    5663       0    5665    5666    5666       0    5668    5669
    5669       0    5671    5672    5672       0    5674    5675    5675       0
    5677    5678    5678       0    5680    5681    5681       0    5683    5684
    5684       0    5686    5687    5687       0    5689    5690    5690       0
    5692    5693    5693       0    5695    5696    5696       0    5698    5699
    5699       0    5701    5702    5702       0    5704    5705    5705       0
    5707    5708    5708       0    5710    5711    5711       0    5713    5714
    5714       0    5716    5717    5717       0    5719    5720    5720       0
    5722    5723    5723       0    5725    5726    5726       0    5728    5729
    5729       0    5731    5732    5732       0    5734    5735    5735       0
    5737    5738    5738       0    5740    5741    5741       0    5743    5744
    5744       0    5746    5747    5747       0    5749    5750    5750       0
    5752    5753    5753       0    5755    5756    5756       0    5758    5759
    5759       0    5761    5762    5762       0    5764    5765    5765       0
    5767    5768    5768       0    5770    5771    5771       0    5773    5774
    5774       0    5776    5777    5777       0    5779    5780    5780       0
    5782    5783    5783       0    5785    5786    5786       0    5788    5789
    5789       0    5791    5792    5792       0    5794    5795    5795       0
    5797    5798    5798       0    5800    5801    5801       0    5803    5804
    5804       0    5806    5807    5807       0    5809    5810    5810       0
    5812    5813    5813       0    5815    5816    5816       0    5818    5819
    5819       0    5821    5822    5822       0    5824    5825    5825       0
    5827    5828    5828       0    5830    5831    5831       0    5833    5834
    5834       0    5836    5837    5837       0    5839    5840    5840       0
    5842    5843    5843       0    5845    5846    5846       0    5848    5849
    5849       0    5851    5852    5852       0    5854    5855    5855       0
    5857    5858    5858       0    5860    5861    5861       0    5863    5864
    5864       0    5866    5867    5867       0    5869    5870    5870       0
    5872    5873    5873       0    5875    5876    5876       0    5878    5879
    5879       0    5881    5882    5882       0    5884    5885    5885       0
    5887    5888    5888       0    5890    5891    5891       0    5893    5894
    5894       0    5896    5897    5897       0    5899    5900    5900       0
    5902    5903    5903       0    5905    5906    5906       0    5908    5909
    5909       0    5911    5912    5912       0    5914    5915    5915       0
    5917    5918    5918       0    5920    5921    5921       0    5923    5924
    5924       0    5926    5927    5927       0    5929    5930    5930       0
    5932    5933    5933       0    5935    5936    5936       0    5938    5939
    5939       0    5941    5942    5942       0    5944    5945    5945       0
    5947    5948    5948       0    5950    5951    5951       0    5953    5954
    5954       0    5956    5957    5957       0    5959    5960    5960       0
    5962    5963    5963       0    5965    5966    5966       0    5968    5969
    5969       0    5971    5972    5972       0    5974    5975    5975       0
    5977    5978    5978       0    5980    5981    5981       0    5983    5984
    5984       0    5986    5987    5987       0    5989    5990    5990       0
    5992    5993    5993       0    5995    5996    5996       0    5998    5999
    5999       0    6001    6002    6002       0    6004    6005    6005       0
    6007    6008    6008       0    6010    6011    6011       0    6013    6014
    6014       0    6016    6017    6017       0    6019    6020    6020       0
    6022    6023    6023       0    6025    6026    6026       0    6028    6029
    6029       0    6031    6032    6032       0    6034    6035    6035       0
    6037    6038    6038       0    6040    6041    6041       0    6043    6044
    6044       0    6046    6047    6047       0    6049    6050    6050       0
    6052    6053    6053       0    6055    6056    6056       0    6058    6059
    6059       0    6061    6062    6062       0    6064    6065    6065       0
    6067    6068    6068       0    6070    6071    6071       0    6073    6074
    6074       0    6076    6077    6077       0    6079    6080    6080       0
    6082    6083    6083       0    6085    6086    6086       0    6088    6089
    6089       0    6091    6092    6092       0    6094    6095    6095       0
    6097    6098    6098       0    6100    6101    6101       0    6103    6104
    6104       0    6106    6107    6107       0    6109    6110    6110       0
    6112    6113    6113       0    6115    6116    6116       0    6118    6119
    6119       0    6121    6122    6122       0    6124    6125    6125       0
    6127    6128    6128       0    6130    6131    6131       0    6133    6134
    6134       0    6136    6137    6137       0    6139    6140    6140       0
    6142    6143    6143       0    6145    6146    6146       0    6148    6149
    6149       0    6151    6152    6152       0    6154    6155    6155       0
    6157    6158    6158       0    6160    6161    6161       0    6163    6164
    6164       0    6166    6167    6167       0    6169    6170    6170       0
    6172    6173    6173       0    6175    6176    6176       0    6178    6179
    6179       0    6181    6182    6182       0    6184    6185    6185       0
    6187    6188    6188       0    6190    6191    6191       0    6193    6194
    6194       0    6196    6197    6197       0    6199    6200    6200       0
    6202    6203    6203       0    6205    6206    6206       0    6208    6209
    6209       0    6211    6212    6212       0    6214    6215    6215       0
    6217    6218    6218       0    6220    6221    6221       0    6223    6224
    6224       0    6226    6227    6227       0    6229    6230    6230       0
    6232    6233    6233       0    6235    6236    6236       0    6238    6239
    6239       0    6241    6242    6242       0    6244    6245    6245       0
    6247    6248    6248       0    6250    6251    6251       0    6253    6254
    6254       0    6256    6257    6257       0    6259    6260    6260       0
    6262    6263    6263       0    6265    6266    6266       0    6268    6269
    6269       0    6271    6272    6272       0    6274    6275    6275       0
    6277    6278    6278       0    6280    6281    6281       0    6283    6284
    6284       0    6286    6287    6287       0    6289    6290    6290       0
    6292    6293    6293       0    6295    6296    6296       0    6298    6299
    6299       0    6301    6302    6302       0    6304    6305    6305       0
    6307    6308    6308       0    6310    6311    6311       0    6313    6314
    6314       0    6316    6317    6317       0    6319    6320    6320       0
    6322    6323    6323       0    6325    6326    6326       0    6328    6329
    6329       0    6331    6332    6332       0    6334    6335    6335       0
    6337    6338    6338       0    6340    6341    6341       0    6343    6344
    6344       0    6346    6347    6347       0    6349    6350    6350       0
    6352    6353    6353       0    6355    6356    6356       0    6358    6359
    6359       0    6361    6362    6362       0    6364    6365    6365       0
    6367    6368    6368       0    6370    6371    6371       0    6373    6374
    6374       0    6376    6377    6377       0    6379    6380    6380       0
    6382    6383    6383       0    6385    6386    6386       0    6388    6389
    6389       0    6391    6392    6392       0    6394    6395    6395       0
    6397    6398    6398       0    6400    6401    6401       0    6403    6404
    6404       0    6406    6407    6407       0    6409    6410    6410       0
    6412    6413    6413       0    6415    6416    6416       0    6418    6419
    6419       0    6421    6422    6422       0    6424    6425    6425       0
    6427    6428    6428       0    6430    6431    6431       0    6433    6434
    6434       0    6436    6437    6437       0    6439    6440    6440       0
    6442    6443    6443       0    6445    6446    6446       0    6448    6449
    6449       0    6451    6452    6452       0    6454    6455    6455       0
    6457    6458    6458       0    6460    6461    6461       0    6463    6464
    6464       0    6466    6467    6467       0    6469    6470    6470       0
    6472    6473    6473       0    6475    6476    6476       0    6478    6479
    6479       0    6481    6482    6482       0    6484    6485    6485       0
    6487    6488    6488       0    6490    6491    6491       0    6493    6494
    6494       0    6496    6497    6497       0    6499    6500    6500       0
    6502    6503    6503       0    6505    6506    6506       0    6508    6509
    6509       0    6511    6512    6512       0    6514    6515    6515       0
    6517    6518    6518       0    6520    6521    6521       0    6523    6524
    6524       0    6526    6527    6527       0    6529    6530    6530       0
    6532    6533    6533       0    6535    6536    6536       0    6538    6539
    6539       0    6541    6542    6542       0    6544    6545    6545       0
    6547    6548    6548       0    6550    6551    6551       0    6553    6554
    6554       0    6556    6557    6557       0    6559    6560    6560       0
    6562    6563    6563       0    6565    6566    6566       0    6568    6569
    6569       0    6571    6572    6572       0    6574    6575    6575       0
    6577    6578    6578       0    6580    6581    6581       0    6583    6584
    6584       0    6586    6587    6587       0    6589    6590    6590       0
    6592    6593    6593       0    6595    6596    6596       0    6598    6599
    6599       0    6601    6602    6602       0    6604    6605    6605       0
    6607    6608    6608       0    6610    6611    6611       0    6613    6614
    6614       0    6616    6617    6617       0    6619    6620    6620       0
    6622    6623    6623       0    6625    6626    6626       0    6628    6629
    6629       0    6631    6632    6632       0    6634    6635    6635       0
    6637    6638    6638       0    6640    6641    6641       0    6643    6644
    6644       0    6646    6647    6647       0    6649    6650    6650       0
    6652    6653    6653       0    6655    6656    6656       0    6658    6659
    6659       0    6661    6662    6662       0    6664    6665    6665       0
    6667    6668    6668       0    6670    6671    6671       0    6673    6674
    6674       0    6676    6677    6677       0    6679    6680    6680       0
    6682    6683    6683       0    6685    6686    6686       0    6688    6689
    6689       0    6691    6692    6692       0    6694    6695    6695       0
    6697    6698    6698       0    6700    6701    6701       0    6703    6704
    6704       0    6706    6707    6707       0    6709    6710    6710       0
    6712    6713    6713       0    6715    6716    6716       0    6718    6719
    6719       0    6721    6722    6722       0    6724    6725    6725       0
    6727    6728    6728       0    6730    6731    6731       0    6733    6734
    6734       0    6736    6737    6737       0    6739    6740    6740       0
    6742    6743    6743       0    6745    6746    6746       0    6748    6749
    6749       0    6751    6752    6752       0    6754    6755    6755       0
    6757    6758    6758       0    6760    6761    6761       0    6763    6764
    6764       0    6766    6767    6767       0    6769    6770    6770       0
    6772    6773    6773       0    6775    6776    6776       0    6778    6779
    6779       0    6781    6782    6782       0    6784    6785    6785       0
    6787    6788    6788       0    6790    6791    6791       0    6793    6794
    6794       0    6796    6797    6797       0    6799    6800    6800       0
    6802    6803    6803       0    6805    6806    6806       0    6808    6809
    6809       0    6811    6812    6812       0    6814    6815    6815       0
    6817    6818    6818       0    6820    6821    6821       0    6823    6824
    6824       0    6826    6827    6827       0    6829    6830    6830       0
    6832    6833    6833       0    6835    6836    6836       0    6838    6839
    6839       0    6841    6842    6842       0    6844    6845    6845       0
    6847    6848    6848       0    6850    6851    6851       0    6853    6854
    6854       0    6856    6857    6857       0    6859    6860    6860       0
    6862    6863    6863       0    6865    6866    6866       0    6868    6869
    6869       0    6871    6872    6872       0    6874    6875    6875       0
    6877    6878    6878       0    6880    6881    6881       0    6883    6884
    6884       0    6886    6887    6887       0    6889    6890    6890       0
    6892    6893    6893       0    6895    6896    6896       0    6898    6899
    6899       0    6901    6902    6902       0    6904    6905    6905       0
    6907    6908    6908       0    6910    6911    6911       0    6913    6914
    6914       0    6916    6917    6917       0    6919    6920    6920       0
    6922    6923    6923       0    6925    6926    6926       0    6928    6929
    6929       0    6931    6932    6932       0    6934    6935    6935       0
    6937    6938    6938       0    6940    6941    6941       0    6943    6944
    6944       0    6946    6947    6947       0    6949    6950    6950       0
    6952    6953    6953       0    6955    6956    6956       0    6958    6959
    6959       0    6961    6962    6962       0    6964    6965    6965       0
    6967    6968    6968       0    6970    6971    6971       0    6973    6974
    6974       0    6976    6977    6977       0    6979    6980    6980       0
    6982    6983    6983       0    6985    6986    6986       0    6988    6989
    6989       0    6991    6992    6992       0    6994    6995    6995       0
    6997    6998    6998       0    7000    7001    7001       0    7003    7004
    7004       0    7006    7007    7007       0    7009    7010    7010       0
    7012    7013    7013       0    7015    7016    7016       0    7018    7019
    7019       0    7021    7022    7022       0    7024    7025    7025       0
    7027    7028    7028       0    7030    7031    7031       0    7033    7034
    7034       0    7036    7037    7037       0    7039    7040    7040       0
    7042    7043    7043       0    7045    7046    7046       0    7048    7049
    7049       0    7051    7052    7052       0    7054    7055    7055       0
    7057    7058    7058       0    7060    7061    7061       0    7063    7064
    7064       0    7066    7067    7067       0    7069    7070    7070       0
    7072    7073    7073       0    7075    7076    7076       0    7078    7079
    7079       0    7081    7082    7082       0    7084    7085    7085       0
    7087    7088    7088       0    7090    7091    7091       0    7093    7094
    7094       0    7096    7097    7097       0    7099    7100    7100       0
    7102    7103    7103       0    7105    7106    7106       0    7108    7109
    7109       0    7111    7112    7112       0    7114    7115    7115       0
    7117    7118    7118       0    7120    7121    7121       0    7123    7124
    7124       0    7126    7127    7127       0    7129    7130    7130       0
    7132    7133    7133       0    7135    7136    7136       0    7138    7139
    7139       0    7141    7142    7142       0    7144    7145    7145       0
    7147    7148    7148       0    7150    7151    7151       0    7153    7154
    7154       0    7156    7157    7157       0    7159    7160    7160       0
    7162    7163    7163       0    7165    7166    7166       0    7168    7169
    7169       0    7171    7172    7172       0    7174    7175    7175       0
    7177    7178    7178       0    7180    7181    7181       0    7183    7184
    7184       0    7186    7187    7187       0    7189    7190    7190       0
    7192    7193    7193       0    7195    7196    7196       0    7198    7199
    7199       0    7201    7202    7202       0    7204    7205    7205       0
    7207    7208    7208       0    7210    7211    7211       0    7213    7214
    7214       0    7216    7217    7217       0    7219    7220    7220       0
    7222    7223    7223       0    7225    7226    7226       0    7228    7229
    7229       0    7231    7232    7232       0    7234    7235    7235       0
    7237    7238    7238       0    7240    7241    7241       0    7243    7244
    7244       0    7246    7247    7247       0    7249    7250    7250       0
    7252    7253    7253       0    7255    7256    7256       0    7258    7259
    7259       0    7261    7262    7262       0    7264    7265    7265       0
    7267    7268    7268       0    7270    7271    7271       0    7273    7274
    7274       0    7276    7277    7277       0    7279    7280    7280       0
    7282    7283    7283       0    7285    7286    7286       0    7288    7289
    7289       0    7291    7292    7292       0    7294    7295    7295       0
    7297    7298    7298       0    7300    7301    7301       0    7303    7304
    7304       0    7306    7307    7307       0    7309    7310    7310       0
    7312    7313    7313       0    7315    7316    7316       0    7318    7319
    7319       0    7321    7322    7322       0    7324    7325    7325       0
    7327    7328    7328       0    7330    7331    7331       0    7333    7334
    7334       0    7336    7337    7337       0    7339    7340    7340       0
    7342    7343    7343       0    7345    7346    7346       0    7348    7349
    7349       0    7351    7352    7352       0    7354    7355    7355       0
    7357    7358    7358       0    7360    7361    7361       0    7363    7364
    7364       0    7366    7367    7367       0    7369    7370    7370       0
    7372    7373    7373       0    7375    7376    7376       0    7378    7379
    7379       0    7381    7382    7382       0    7384    7385    7385       0
    7387    7388    7388       0    7390    7391    7391       0    7393    7394
    7394       0    7396    7397    7397       0    7399    7400    7400       0
    7402    7403    7403       0    7405    7406    7406       0    7408    7409
    7409       0    7411    7412    7412       0    7414    7415    7415       0
    7417    7418    7418       0    7420    7421    7421       0    7423    7424
    7424       0    7426    7427    7427       0    7429    7430    7430       0
    7432    7433    7433       0    7435    7436    7436       0    7438    7439
    7439       0    7441    7442    7442       0    7444    7445    7445       0
    7447    7448    7448       0    7450    7451    7451       0    7453    7454
    7454       0    7456    7457    7457       0    7459    7460    7460       0
    7462    7463    7463       0    7465    7466    7466       0    7468    7469
    7469       0    7471    7472    7472       0    7474    7475    7475       0
    7477    7478    7478       0    7480    7481    7481       0    7483    7484
    7484       0    7486    7487    7487       0    7489    7490    7490       0
    7492    7493    7493       0    7495    7496    7496       0    7498    7499
    7499       0    7501    7502    7502       0    7504    7505    7505       0
    7507    7508    7508       0    7510    7511    7511       0    7513    7514
    7514       0    7516    7517    7517       0    7519    7520    7520       0
    7522    7523    7523       0    7525    7526    7526       0    7528    7529
    7529       0    7531    7532    7532       0    7534    7535    7535       0
    7537    7538    7538       0    7540    7541    7541       0    7543    7544
    7544       0    7546    7547    7547       0    7549    7550    7550       0
    7552    7553    7553       0    7555    7556    7556       0    7558    7559
    7559       0    7561    7562    7562       0    7564    7565    7565       0
    7567    7568    7568       0    7570    7571    7571       0    7573    7574
    7574       0    7576    7577    7577       0    7579    7580    7580       0
    7582    7583    7583       0    7585    7586    7586       0    7588    7589
    7589       0    7591    7592    7592       0    7594    7595    7595       0
    7597    7598    7598       0    7600    7601    7601       0    7603    7604
    7604       0    7606    7607    7607       0    7609    7610    7610       0
    7612    7613    7613       0    7615    7616    7616       0    7618    7619
    7619       0    7621    7622    7622       0    7624    7625    7625       0
    7627    7628    7628       0    7630    7631    7631       0    7633    7634
    7634       0    7636    7637    7637       0    7639    7640    7640       0
    7642    7643    7643       0    7645    7646    7646       0    7648    7649
    7649       0    7651    7652    7652       0    7654    7655    7655       0
    7657    7658    7658       0    7660    7661    7661       0    7663    7664
    7664       0    7666    7667    7667       0    7669    7670    7670       0
    7672    7673    7673       0    7675    7676    7676       0    7678    7679
    7679       0    7681    7682    7682       0    7684    7685    7685       0
    7687    7688    7688       0    7690    7691    7691       0    7693    7694
    7694       0    7696    7697    7697       0    7699    7700    7700       0
    7702    7703    7703       0    7705    7706    7706       0    7708    7709
    7709       0    7711    7712    7712       0    7714    7715    7715       0
    7717    7718    7718       0    7720    7721    7721       0    7723    7724
    7724       0    7726    7727    7727       0    7729    7730    7730       0
    7732    7733    7733       0    7735    7736    7736       0    7738    7739
    7739       0    7741    7742    7742       0    7744    7745    7745       0
    7747    7748    7748       0    7750    7751    7751       0    7753    7754
    7754       0    7756    7757    7757       0    7759    7760    7760       0
    7762    7763    7763       0    7765    7766    7766       0    7768    7769
    7769       0    7771    7772    7772       0    7774    7775    7775       0
    7777    7778    7778       0    7780    7781    7781       0    7783    7784
    7784       0    7786    7787    7787       0    7789    7790    7790       0
    7792    7793    7793       0    7795    7796    7796       0    7798    7799
    7799       0    7801    7802    7802       0    7804    7805    7805       0
    7807    7808    7808       0    7810    7811    7811       0    7813    7814
    7814       0    7816    7817    7817       0    7819    7820    7820       0
    7822    7823    7823       0    7825    7826    7826       0    7828    7829
    7829       0    7831    7832    7832       0    7834    7835    7835       0
    7837    7838    7838       0    7840    7841    7841       0    7843    7844
    7844       0    7846    7847    7847       0    7849    7850    7850       0
    7852    7853    7853       0    7855    7856    7856       0    7858    7859
    7859       0    7861    7862    7862       0    7864    7865    7865       0
    7867    7868    7868       0    7870    7871    7871       0    7873    7874
    7874       0    7876    7877    7877       0    7879    7880    7880       0
    7882    7883    7883       0    7885    7886    7886       0    7888    7889
    7889       0    7891    7892    7892       0    7894    7895    7895       0
    7897    7898    7898       0    7900    7901    7901       0    7903    7904
    7904       0    7906    7907    7907       0    7909    7910    7910       0
    7912    7913    7913       0    7915    7916    7916       0    7918    7919
    7919       0    7921    7922    7922       0    7924    7925    7925       0
    7927    7928    7928       0    7930    7931    7931       0    7933    7934
    7934       0    7936    7937    7937       0    7939    7940    7940       0
    7942    7943    7943       0    7945    7946    7946       0    7948    7949
    7949       0    7951    7952    7952       0    7954    7955    7955       0
    7957    7958    7958       0    7960    7961    7961       0    7963    7964
    7964       0    7966    7967    7967       0    7969    7970    7970       0
    7972    7973    7973       0    7975    7976    7976       0    7978    7979
    7979       0    7981    7982    7982       0    7984    7985    7985       0
    7987    7988    7988       0    7990    7991    7991       0    7993    7994
    7994       0    7996    7997    7997       0    7999    8000    8000       0
    8002    8003    8003       0    8005    8006    8006       0    8008    8009
    8009       0    8011    8012    8012       0    8014    8015    8015       0
    8017    8018    8018       0    8020    8021    8021       0    8023    8024
    8024       0    8026    8027    8027       0    8029    8030    8030       0
    8032    8033    8033       0    8035    8036    8036       0    8038    8039
    8039       0    8041    8042    8042       0    8044    8045    8045       0
    8047    8048    8048       0    8050    8051    8051       0    8053    8054
    8054       0    8056    8057    8057       0    8059    8060    8060       0
    8062    8063    8063       0    8065    8066    8066       0    8068    8069
    8069       0    8071    8072    8072       0    8074    8075    8075       0
    8077    8078    8078       0    8080    8081    8081       0    8083    8084
    8084       0    8086    8087    8087       0    8089    8090    8090       0
    8092    8093    8093       0    8095    8096    8096       0    8098    8099
    8099       0    8101    8102    8102       0    8104    8105    8105       0
    8107    8108    8108       0    8110    8111    8111       0    8113    8114
    8114       0    8116    8117    8117       0    8119    8120    8120       0
    8122    8123    8123       0    8125    8126    8126       0    8128    8129
    8129       0    8131    8132    8132       0    8134    8135    8135       0
    8137    8138    8138       0    8140    8141    8141       0    8143    8144
    8144       0    8146    8147    8147       0    8149    8150    8150       0
    8152    8153    8153       0    8155    8156    8156       0    8158    8159
    8159       0    8161    8162    8162       0    8164    8165    8165       0
    8167    8168    8168       0    8170    8171    8171       0    8173    8174
    8174       0    8176    8177    8177       0    8179    8180    8180       0
    8182    8183    8183       0    8185    8186    8186       0    8188    8189
    8189       0    8191    8192    8192       0    8194    8195    8195       0
    8197    8198    8198       0    8200    8201    8201       0    8203    8204
    8204       0    8206    8207    8207       0    8209    8210    8210       0
    8212    8213    8213       0    8215    8216    8216       0    8218    8219
    8219       0    8221    8222    8222       0    8224    8225    8225       0
    8227    8228    8228       0    8230    8231    8231       0    8233    8234
    8234       0    8236    8237    8237       0    8239    8240    8240       0
    8242    8243    8243       0    8245    8246    8246       0    8248    8249
    8249       0    8251    8252    8252       0    8254    8255    8255       0
    8257    8258    8258       0    8260    8261    8261       0    8263    8264
    8264       0    8266    8267    8267       0    8269    8270    8270       0
    8272    8273    8273       0    8275    8276    8276       0    8278    8279
    8279       0    8281    8282    8282       0    8284    8285    8285       0
    8287    8288    8288       0    8290    8291    8291       0    8293    8294
    8294       0    8296    8297    8297       0    8299    8300    8300       0
    8302    8303    8303       0    8305    8306    8306       0    8308    8309
    8309       0    8311    8312    8312       0    8314    8315    8315       0
    8317    8318    8318       0    8320    8321    8321       0    8323    8324
    8324       0    8326    8327    8327       0    8329    8330    8330       0
    8332    8333    8333       0    8335    8336    8336       0    8338    8339
    8339       0    8341    8342    8342       0    8344    8345    8345       0
    8347    8348    8348       0    8350    8351    8351       0    8353    8354
    8354       0    8356    8357    8357       0    8359    8360    8360       0
    8362    8363    8363       0    8365    8366    8366       0    8368    8369
    8369       0    8371    8372    8372       0    8374    8375    8375       0
    8377    8378    8378       0    8380    8381    8381       0    8383    8384
    8384       0    8386    8387    8387       0    8389    8390    8390       0
    8392    8393    8393       0    8395    8396    8396       0    8398    8399
    8399       0    8401    8402    8402       0    8404    8405    8405       0
    8407    8408    8408       0    8410    8411    8411       0    8413    8414
    8414       0    8416    8417    8417       0    8419    8420    8420       0
    8422    8423    8423       0    8425    8426    8426       0    8428    8429
    8429       0    8431    8432    8432       0    8434    8435    8435       0
    8437    8438    8438       0    8440    8441    8441       0    8443    8444
    8444       0    8446    8447    8447       0    8449    8450    8450       0
    8452    8453    8453       0    8455    8456    8456       0    8458    8459
    8459       0    8461    8462    8462       0    8464    8465    8465       0
    8467    8468    8468       0    8470    8471    8471       0    8473    8474
    8474       0    8476    8477    8477       0    8479    8480    8480       0
    8482    8483    8483       0    8485    8486    8486       0    8488    8489
    8489       0    8491    8492    8492       0    8494    8495    8495       0
    8497    8498    8498       0    8500    8501    8501       0    8503    8504
    8504       0    8506    8507    8507       0    8509    8510    8510       0
    8512    8513    8513       0    8515    8516    8516       0    8518    8519
    8519       0    8521    8522    8522       0    8524    8525    8525       0
    8527    8528    8528       0    8530    8531    8531       0    8533    8534
    8534       0    8536    8537    8537       0    8539    8540    8540       0
    8542    8543    8543       0    8545    8546    8546       0    8548    8549
    8549       0    8551    8552    8552       0    8554    8555    8555       0
    8557    8558    8558       0    8560    8561    8561       0    8563    8564
    8564       0    8566    8567    8567       0    8569    8570    8570       0
    8572    8573    8573       0    8575    8576    8576       0    8578    8579
    8579       0    8581    8582    8582       0    8584    8585    8585       0
    8587    8588    8588       0    8590    8591    8591       0    8593    8594
    8594       0    8596    8597    8597       0    8599    8600    8600       0
    8602    8603    8603       0    8605    8606    8606       0    8608    8609
    8609       0    8611    8612    8612       0    8614    8615    8615       0
    8617    8618    8618       0    8620    8621    8621       0    8623    8624
    8624       0    8626    8627    8627       0    8629    8630    8630       0
    8632    8633    8633       0    8635    8636    8636       0    8638    8639
    8639       0    8641    8642    8642       0    8644    8645    8645       0
    8647    8648    8648       0    8650    8651    8651       0    8653    8654
    8654       0    8656    8657    8657       0    8659    8660    8660       0
    8662    8663    8663       0    8665    8666    8666       0    8668    8669
    8669       0    8671    8672    8672       0    8674    8675    8675       0
    8677    8678    8678       0    8680    8681    8681       0    8683    8684
    8684       0    8686    8687    8687       0    8689    8690    8690       0
    8692    8693    8693       0    8695    8696    8696       0    8698    8699
    8699       0    8701    8702    8702       0    8704    8705    8705       0
    8707    8708    8708       0    8710    8711    8711       0    8713    8714
    8714       0    8716    8717    8717       0    8719    8720    8720       0
    8722    8723    8723       0    8725    8726    8726       0    8728    8729
    8729       0    8731    8732    8732       0    8734    8735    8735       0
    8737    8738    8738       0    8740    8741    8741       0    8743    8744
    8744       0    8746    8747    8747       0    8749    8750    8750       0
    8752    8753    8753       0    8755    8756    8756       0    8758    8759
    8759       0    8761    8762    8762       0    8764    8765    8765       0
    8767    8768    8768       0    8770    8771    8771       0    8773    8774
    8774       0    8776    8777    8777       0    8779    8780    8780       0
    8782    8783    8783       0    8785    8786    8786       0    8788    8789
    8789       0    8791    8792    8792       0    8794    8795    8795       0
    8797    8798    8798       0    8800    8801    8801       0    8803    8804
    8804       0    8806    8807    8807       0    8809    8810    8810       0
    8812    8813    8813       0    8815    8816    8816       0    8818    8819
    8819       0    8821    8822    8822       0    8824    8825    8825       0
    8827    8828    8828       0    8830    8831    8831       0    8833    8834
    8834       0    8836    8837    8837       0    8839    8840    8840       0
    8842    8843    8843       0    8845    8846    8846       0    8848    8849
    8849       0    8851    8852    8852       0    8854    8855    8855       0
    8857    8858    8858       0    8860    8861    8861       0    8863    8864
    8864       0    8866    8867    8867       0    8869    8870    8870       0
    8872    8873    8873       0    8875    8876    8876       0    8878    8879
    8879       0    8881    8882    8882       0    8884    8885    8885       0
    8887    8888    8888       0    8890    8891    8891       0    8893    8894
    8894       0    8896    8897    8897       0    8899    8900    8900       0
    8902    8903    8903       0    8905    8906    8906       0    8908    8909
    8909       0    8911    8912    8912       0    8914    8915    8915       0
    8917    8918    8918       0    8920    8921    8921       0    8923    8924
    8924       0    8926    8927    8927       0    8929    8930    8930       0
    8932    8933    8933       0    8935    8936    8936       0    8938    8939
    8939       0    8941    8942    8942       0    8944    8945    8945       0
    8947    8948    8948       0    8950    8951    8951       0    8953    8954
    8954       0    8956    8957    8957       0    8959    8960    8960       0
    8962    8963    8963       0    8965    8966    8966       0    8968    8969
    8969       0    8971    8972    8972       0    8974    8975    8975       0
    8977    8978    8978       0    8980    8981    8981       0    8983    8984
    8984       0    8986    8987    8987       0    8989    8990    8990       0
    8992    8993    8993       0    8995    8996    8996       0    8998    8999
    8999       0    9001    9002    9002       0    9004    9005    9005       0
    9007    9008    9008       0    9010    9011    9011       0    9013    9014
    9014       0    9016    9017    9017       0    9019    9020    9020       0
    9022    9023    9023       0    9025    9026    9026       0    9028    9029
    9029       0    9031    9032    9032       0    9034    9035    9035       0
    9037    9038    9038       0    9040    9041    9041       0    9043    9044
    9044       0    9046    9047    9047       0    9049    9050    9050       0
    9052    9053    9053       0    9055    9056    9056       0    9058    9059
    9059       0    9061    9062    9062       0    9064    9065    9065       0
    9067    9068    9068       0    9070    9071    9071       0    9073    9074
    9074       0    9076    9077    9077       0    9079    9080    9080       0
    9082    9083    9083       0    9085    9086    9086       0    9088    9089
    9089       0    9091    9092    9092       0    9094    9095    9095       0
    9097    9098    9098       0    9100    9101    9101       0    9103    9104
    9104       0    9106    9107    9107       0    9109    9110    9110       0
    9112    9113    9113       0    9115    9116    9116       0    9118    9119
    9119       0    9121    9122    9122       0    9124    9125    9125       0
    9127    9128    9128       0    9130    9131    9131       0    9133    9134
    9134       0    9136    9137    9137       0    9139    9140    9140       0
    9142    9143    9143       0    9145    9146    9146       0    9148    9149
    9149       0    9151    9152    9152       0    9154    9155    9155       0
    9157    9158    9158       0    9160    9161    9161       0    9163    9164
    9164       0    9166    9167    9167       0    9169    9170    9170       0
    9172    9173    9173       0    9175    9176    9176       0    9178    9179
    9179       0    9181    9182    9182       0    9184    9185    9185       0
    9187    9188    9188       0    9190    9191    9191       0    9193    9194
    9194       0    9196    9197    9197       0    9199    9200    9200       0
    9202    9203    9203       0    9205    9206    9206       0    9208    9209
    9209       0    9211    9212    9212       0    9214    9215    9215       0
    9217    9218    9218       0    9220    9221    9221       0    9223    9224
    9224       0    9226    9227    9227       0    9229    9230    9230       0
    9232    9233    9233       0    9235    9236    9236       0    9238    9239
    9239       0    9241    9242    9242       0    9244    9245    9245       0
    9247    9248    9248       0    9250    9251    9251       0    9253    9254
    9254       0    9256    9257    9257       0    9259    9260    9260       0
    9262    9263    9263       0    9265    9266    9266       0    9268    9269
    9269       0    9271    9272    9272       0    9274    9275    9275       0
    9277    9278    9278       0    9280    9281    9281       0    9283    9284
    9284       0    9286    9287    9287       0    9289    9290    9290       0
    9292    9293    9293       0    9295    9296    9296       0    9298    9299
    9299       0    9301    9302    9302       0    9304    9305    9305       0
    9307    9308    9308       0    9310    9311    9311       0    9313    9314
    9314       0    9316    9317    9317       0    9319    9320    9320       0
    9322    9323    9323       0    9325    9326    9326       0    9328    9329
    9329       0    9331    9332    9332       0    9334    9335    9335       0
    9337    9338    9338       0    9340    9341    9341       0    9343    9344
    9344       0    9346    9347    9347       0    9349    9350    9350       0
    9352    9353    9353       0    9355    9356    9356       0    9358    9359
    9359       0    9361    9362    9362       0    9364    9365    9365       0
    9367    9368    9368       0    9370    9371    9371       0    9373    9374
    9374       0    9376    9377    9377       0    9379    9380    9380       0
    9382    9383    9383       0    9385    9386    9386       0    9388    9389
    9389       0    9391    9392    9392       0    9394    9395    9395       0
    9397    9398    9398       0    9400    9401    9401       0    9403    9404
    9404       0    9406    9407    9407       0    9409    9410    9410       0
    9412    9413    9413       0    9415    9416    9416       0    9418    9419
    9419       0    9421    9422    9422       0    9424    9425    9425       0
    9427    9428    9428       0    9430    9431    9431       0    9433    9434
    9434       0    9436    9437    9437       0    9439    9440    9440       0
    9442    9443    9443       0    9445    9446    9446       0    9448    9449
    9449       0    9451    9452    9452       0    9454    9455    9455       0
    9457    9458    9458       0    9460    9461    9461       0    9463    9464
    9464       0    9466    9467    9467       0    9469    9470    9470       0
    9472    9473    9473       0    9475    9476    9476       0    9478    9479
    9479       0    9481    9482    9482       0    9484    9485    9485       0
    9487    9488    9488       0    9490    9491    9491       0    9493    9494
    9494       0    9496    9497    9497       0    9499    9500    9500       0
    9502    9503    9503       0    9505    9506    9506       0    9508    9509
    9509       0    9511    9512    9512       0    9514    9515    9515       0
    9517    9518    9518       0    9520    9521    9521       0    9523    9524
    9524       0    9526    9527    9527       0    9529    9530    9530       0
    9532    9533    9533       0    9535    9536    9536       0    9538    9539
    9539       0    9541    9542    9542       0    9544    9545    9545       0
    9547    9548    9548       0    9550    9551    9551       0    9553    9554
    9554       0    9556    9557    9557       0    9559    9560    9560       0
    9562    9563    9563       0    9565    9566    9566       0    9568    9569
    9569       0    9571    9572    9572       0    9574    9575    9575       0
    9577    9578    9578       0    9580    9581    9581       0    9583    9584
    9584       0    9586    9587    9587       0    9589    9590    9590       0
    9592    9593    9593       0    9595    9596    9596       0    9598    9599
    9599       0    9601    9602    9602       0    9604    9605    9605       0
    9607    9608    9608       0    9610    9611    9611       0    9613    9614
    9614       0    9616    9617    9617       0    9619    9620    9620       0
    9622    9623    9623       0    9625    9626    9626       0    9628    9629
    9629       0    9631    9632    9632       0    9634    9635    9635       0
    9637    9638    9638       0    9640    9641    9641       0    9643    9644
    9644       0    9646    9647    9647       0    9649    9650    9650       0
    9652    9653    9653       0    9655    9656    9656       0    9658    9659
    9659       0    9661    9662    9662       0    9664    9665    9665       0
    9667    9668    9668       0    9670    9671    9671       0    9673    9674
    9674       0    9676    9677    9677       0    9679    9680    9680       0
    9682    9683    9683       0    9685    9686    9686       0    9688    9689
    9689       0    9691    9692    9692       0    9694    9695    9695       0
    9697    9698    9698       0    9700    9701    9701       0    9703    9704
    9704       0    9706    9707    9707       0    9709    9710    9710       0
    9712    9713    9713       0    9715    9716    9716       0    9718    9719
    9719       0    9721    9722    9722       0    9724    9725    9725       0
    9727    9728    9728       0    9730    9731    9731       0    9733    9734
    9734       0    9736    9737    9737       0    9739    9740    9740       0
    9742    9743    9743       0    9745    9746    9746       0    9748    9749
    9749       0    9751    9752    9752       0    9754    9755    9755       0
    9757    9758    9758       0    9760    9761    9761       0    9763    9764
    9764       0    9766    9767    9767       0    9769    9770    9770       0
    9772    9773    9773       0    9775    9776    9776       0    9778    9779
    9779       0    9781    9782    9782       0    9784    9785    9785       0
    9787    9788    9788       0    9790    9791    9791       0    9793    9794
    9794       0    9796    9797    9797       0    9799    9800    9800       0
    9802    9803    9803       0    9805    9806    9806       0    9808    9809
    9809       0    9811    9812    9812       0    9814    9815    9815       0
    9817    9818    9818       0    9820    9821    9821       0    9823    9824
    9824       0    9826    9827    9827       0    9829    9830    9830       0
    9832    9833    9833       0    9835    9836    9836       0    9838    9839
    9839       0    9841    9842    9842       0    9844    9845    9845       0
    9847    9848    9848       0    9850    9851    9851       0    9853    9854
    9854       0    9856    9857    9857       0    9859    9860    9860       0
    9862    9863    9863       0    9865    9866    9866       0    9868    9869
    9869       0    9871    9872    9872       0    9874    9875    9875       0
    9877    9878    9878       0    9880    9881    9881       0    9883    9884
    9884       0    9886    9887    9887       0    9889    9890    9890       0
    9892    9893    9893       0    9895    9896    9896       0    9898    9899
    9899       0    9901    9902    9902       0    9904    9905    9905       0
    9907    9908    9908       0    9910    9911    9911       0    9913    9914
    9914       0    9916    9917    9917       0    9919    9920    9920       0
    9922    9923    9923       0    9925    9926    9926       0    9928    9929
    9929       0    9931    9932    9932       0    9934    9935    9935       0
    9937    9938    9938       0    9940    9941    9941       0    9943    9944
    9944       0    9946    9947    9947       0    9949    9950    9950       0
    9952    9953    9953       0    9955    9956    9956       0    9958    9959
    9959       0    9961    9962    9962       0    9964    9965    9965       0
    9967    9968    9968       0    9970    9971    9971       0    9973    9974
    9974       0    9976    9977    9977       0    9979    9980    9980       0
    9982    9983    9983       0    9985    9986    9986       0    9988    9989
    9989       0    9991    9992    9992       0    9994    9995    9995       0
    9997    9998    9998       0   10000   10001   10001       0   10003   10004
   10004       0   10006   10007   10007       0   10009   10010   10010       0
   10012   10013   10013       0   10015   10016   10016       0   10018   10019
   10019       0   10021   10022   10022       0   10024   10025   10025       0
   10027   10028   10028       0   10030   10031   10031       0   10033   10034
   10034       0   10036   10037   10037       0   10039   10040   10040       0
   10042   10043   10043       0   10045   10046   10046       0   10048   10049
   10049       0   10051   10052   10052       0   10054   10055   10055       0
   10057   10058   10058       0   10060   10061   10061       0   10063   10064
   10064       0   10066   10067   10067       0   10069   10070   10070       0
   10072   10073   10073       0   10075   10076   10076       0   10078   10079
   10079       0   10081   10082   10082       0   10084   10085   10085       0
   10087   10088   10088       0   10090   10091   10091       0   10093   10094
   10094       0   10096   10097   10097       0   10099   10100   10100       0
   10102   10103   10103       0   10105   10106   10106       0   10108   10109
   10109       0   10111   10112   10112       0   10114   10115   10115       0
   10117   10118   10118       0   10120   10121   10121       0   10123   10124
   10124       0   10126   10127   10127       0   10129   10130   10130       0
   10132   10133   10133       0   10135   10136   10136       0   10138   10139
   10139       0   10141   10142   10142       0   10144   10145   10145       0
   10147   10148   10148       0   10150   10151   10151       0   10153   10154
   10154       0   10156   10157   10157       0   10159   10160   10160       0
   10162   10163   10163       0   10165   10166   10166       0   10168   10169
   10169       0   10171   10172   10172       0   10174   10175   10175       0
   10177   10178   10178       0   10180   10181   10181       0   10183   10184
   10184       0   10186   10187   10187       0   10189   10190   10190       0
   10192   10193   10193       0   10195   10196   10196       0   10198   10199
   10199       0   10201   10202   10202       0   10204   10205   10205       0
   10207   10208   10208       0   10210   10211   10211       0   10213   10214
   10214       0   10216   10217   10217       0   10219   10220   10220       0
   10222   10223   10223       0   10225   10226   10226       0   10228   10229
   10229       0   10231   10232   10232       0   10234   10235   10235       0
   10237   10238   10238       0   10240   10241   10241       0   10243   10244
   10244       0   10246   10247   10247       0   10249   10250   10250       0
   10252   10253   10253       0   10255   10256   10256       0   10258   10259
   10259       0   10261   10262   10262       0   10264   10265   10265       0
   10267   10268   10268       0   10270   10271   10271       0   10273   10274
   10274       0   10276   10277   10277       0   10279   10280   10280       0
   10282   10283   10283       0   10285   10286   10286       0   10288   10289
   10289       0   10291   10292   10292       0   10294   10295   10295       0
   10297   10298   10298       0   10300   10301   10301       0   10303   10304
   10304       0   10306   10307   10307       0   10309   10310   10310       0
   10312   10313   10313       0   10315   10316   10316       0   10318   10319
   10319       0   10321   10322   10322       0   10324   10325   10325       0
   10327   10328   10328       0   10330   10331   10331       0   10333   10334
   10334       0   10336   10337   10337       0   10339   10340   10340       0
   10342   10343   10343       0   10345   10346   10346       0   10348   10349
   10349       0   10351   10352   10352       0   10354   10355   10355       0
   10357   10358   10358       0   10360   10361   10361       0   10363   10364
   10364       0   10366   10367   10367       0   10369   10370   10370       0
   10372   10373   10373       0   10375   10376   10376       0   10378   10379
   10379       0   10381   10382   10382       0   10384   10385   10385       0
   10387   10388   10388       0   10390   10391   10391       0   10393   10394
   10394       0   10396   10397   10397       0   10399   10400   10400       0
   10402   10403   10403       0   10405   10406   10406       0   10408   10409
   10409       0   10411   10412   10412       0   10414   10415   10415       0
   10417   10418   10418       0   10420   10421   10421       0   10423   10424
   10424       0   10426   10427   10427       0   10429   10430   10430       0
   10432   10433   10433       0   10435   10436   10436       0   10438   10439
   10439       0   10441   10442   10442       0   10444   10445   10445       0
   10447   10448   10448       0   10450   10451   10451       0   10453   10454
   10454       0   10456   10457   10457       0   10459   10460   10460       0
   10462   10463   10463       0   10465   10466   10466       0   10468   10469
   10469       0   10471   10472   10472       0   10474   10475   10475       0
   10477   10478   10478       0   10480   10481   10481       0   10483   10484
   10484       0   10486   10487   10487       0   10489   10490   10490       0
   10492   10493   10493       0   10495   10496   10496       0   10498   10499
   10499       0   10501   10502   10502       0   10504   10505   10505       0
   10507   10508   10508       0   10510   10511   10511       0   10513   10514
   10514       0   10516   10517   10517       0   10519   10520   10520       0
   10522   10523   10523       0   10525   10526   10526       0   10528   10529
   10529       0   10531   10532   10532       0   10534   10535   10535       0
   10537   10538   10538       0   10540   10541   10541       0   10543   10544
   10544       0   10546   10547   10547       0   10549   10550   10550       0
   10552   10553   10553       0   10555   10556   10556       0   10558   10559
   10559       0   10561   10562   10562       0   10564   10565   10565       0
   10567   10568   10568       0   10570   10571   10571       0   10573   10574
   10574       0   10576   10577   10577       0   10579   10580   10580       0
   10582   10583   10583       0   10585   10586   10586       0   10588   10589
   10589       0   10591   10592   10592       0   10594   10595   10595       0
   10597   10598   10598       0   10600   10601   10601       0   10603   10604
   10604       0   10606   10607   10607       0   10609   10610   10610       0
   10612   10613   10613       0   10615   10616   10616       0   10618   10619
   10619       0   10621   10622   10622       0   10624   10625   10625       0
   10627   10628   10628       0   10630   10631   10631       0   10633   10634
   10634       0   10636   10637   10637       0   10639   10640   10640       0
   10642   10643   10643       0   10645   10646   10646       0   10648   10649
   10649       0   10651   10652   10652       0   10654   10655   10655       0
   10657   10658   10658       0   10660   10661   10661       0   10663   10664
   10664       0   10666   10667   10667       0   10669   10670   10670       0
   10672   10673   10673       0   10675   10676   10676       0   10678   10679
   10679       0   10681   10682   10682       0   10684   10685   10685       0
   10687   10688   10688       0   10690   10691   10691       0   10693   10694
   10694       0   10696   10697   10697       0   10699   10700   10700       0
   10702   10703   10703       0   10705   10706   10706       0   10708   10709
   10709       0   10711   10712   10712       0   10714   10715   10715       0
   10717   10718   10718       0   10720   10721   10721       0   10723   10724
   10724       0   10726   10727   10727       0   10729   10730   10730       0
   10732   10733   10733       0   10735   10736   10736       0   10738   10739
   10739       0   10741   10742   10742       0   10744   10745   10745       0
   10747   10748   10748       0   10750   10751   10751       0   10753   10754
   10754       0   10756   10757   10757       0   10759   10760   10760       0
   10762   10763   10763       0   10765   10766   10766       0   10768   10769
   10769       0   10771   10772   10772       0   10774   10775   10775       0
   10777   10778   10778       0   10780   10781   10781       0   10783   10784
   10784       0   10786   10787   10787       0   10789   10790   10790       0
   10792   10793   10793       0   10795   10796   10796       0   10798   10799
   10799       0   10801   10802   10802       0   10804   10805   10805       0
   10807   10808   10808       0   10810   10811   10811       0   10813   10814
   10814       0   10816   10817   10817       0   10819   10820   10820       0
   10822   10823   10823       0   10825   10826   10826       0   10828   10829
   10829       0   10831   10832   10832       0   10834   10835   10835       0
   10837   10838   10838       0   10840   10841   10841       0   10843   10844
   10844       0   10846   10847   10847       0   10849   10850   10850       0
   10852   10853   10853       0   10855   10856   10856       0   10858   10859
   10859       0   10861   10862   10862       0   10864   10865   10865       0
   10867   10868   10868       0   10870   10871   10871       0   10873   10874
   10874       0   10876   10877   10877       0   10879   10880   10880       0
   10882   10883   10883       0   10885   10886   10886       0   10888   10889
   10889       0   10891   10892   10892       0   10894   10895   10895       0
   10897   10898   10898       0   10900   10901   10901       0   10903   10904
   10904       0   10906   10907   10907       0   10909   10910   10910       0
   10912   10913   10913       0   10915   10916   10916       0   10918   10919
   10919       0   10921   10922   10922       0   10924   10925   10925       0
   10927   10928   10928       0   10930   10931   10931       0   10933   10934
   10934       0   10936   10937   10937       0   10939   10940   10940       0
   10942   10943   10943       0   10945   10946   10946       0   10948   10949
   10949       0   10951   10952   10952       0   10954   10955   10955       0
   10957   10958   10958       0   10960   10961   10961       0   10963   10964
   10964       0   10966   10967   10967       0   10969   10970   10970       0
   10972   10973   10973       0   10975   10976   10976       0   10978   10979
   10979       0   10981   10982   10982       0   10984   10985   10985       0
   10987   10988   10988       0   10990   10991   10991       0   10993   10994
   10994       0   10996   10997   10997       0   10999   11000   11000       0
   11002   11003   11003       0   11005   11006   11006       0   11008   11009
   11009       0   11011   11012   11012       0   11014   11015   11015       0
   11017   11018   11018       0   11020   11021   11021       0   11023   11024
   11024       0   11026   11027   11027       0   11029   11030   11030       0
   11032   11033   11033       0   11035   11036   11036       0   11038   11039
   11039       0   11041   11042   11042       0   11044   11045   11045       0
   11047   11048   11048       0   11050   11051   11051       0   11053   11054
   11054       0   11056   11057   11057       0   11059   11060   11060       0
   11062   11063   11063       0   11065   11066   11066       0   11068   11069
   11069       0   11071   11072   11072       0   11074   11075   11075       0
   11077   11078   11078       0   11080   11081   11081       0   11083   11084
   11084       0   11086   11087   11087       0   11089   11090   11090       0
   11092   11093   11093       0   11095   11096   11096       0   11098   11099
   11099       0   11101   11102   11102       0   11104   11105   11105       0
   11107   11108   11108       0   11110   11111   11111       0   11113   11114
   11114       0   11116   11117   11117       0   11119   11120   11120       0
   11122   11123   11123       0   11125   11126   11126       0   11128   11129
   11129       0   11131   11132   11132       0   11134   11135   11135       0
   11137   11138   11138       0   11140   11141   11141       0   11143   11144
   11144       0   11146   11147   11147       0   11149   11150   11150       0
   11152   11153   11153       0   11155   11156   11156       0   11158   11159
   11159       0   11161   11162   11162       0   11164   11165   11165       0
   11167   11168   11168       0   11170   11171   11171       0   11173   11174
   11174       0   11176   11177   11177       0   11179   11180   11180       0
   11182   11183   11183       0   11185   11186   11186       0   11188   11189
   11189       0   11191   11192   11192       0   11194   11195   11195       0
   11197   11198   11198       0   11200   11201   11201       0   11203   11204
   11204       0   11206   11207   11207       0   11209   11210   11210       0
   11212   11213   11213       0   11215   11216   11216       0   11218   11219
   11219       0   11221   11222   11222       0   11224   11225   11225       0
   11227   11228   11228       0   11230   11231   11231       0   11233   11234
   11234       0   11236   11237   11237       0   11239   11240   11240       0
   11242   11243   11243       0   11245   11246   11246       0   11248   11249
   11249       0   11251   11252   11252       0   11254   11255   11255       0
   11257   11258   11258       0   11260   11261   11261       0   11263   11264
   11264       0   11266   11267   11267       0   11269   11270   11270       0
   11272   11273   11273       0   11275   11276   11276       0   11278   11279
   11279       0   11281   11282   11282       0   11284   11285   11285       0
   11287   11288   11288       0   11290   11291   11291       0   11293   11294
   11294       0   11296   11297   11297       0   11299   11300   11300       0
   11302   11303   11303       0   11305   11306   11306       0   11308   11309
   11309       0   11311   11312   11312       0   11314   11315   11315       0
   11317   11318   11318       0   11320   11321   11321       0   11323   11324
   11324       0   11326   11327   11327       0   11329   11330   11330       0
   11332   11333   11333       0   11335   11336   11336       0   11338   11339
   11339       0   11341   11342   11342       0   11344   11345   11345       0
   11347   11348   11348       0   11350   11351   11351       0   11353   11354
   11354       0   11356   11357   11357       0   11359   11360   11360       0
   11362   11363   11363       0   11365   11366   11366       0   11368   11369
   11369       0   11371   11372   11372       0   11374   11375   11375       0
   11377   11378   11378       0   11380   11381   11381       0   11383   11384
   11384       0   11386   11387   11387       0   11389   11390   11390       0
   11392   11393   11393       0   11395   11396   11396       0   11398   11399
   11399       0   11401   11402   11402       0   11404   11405   11405       0
   11407   11408   11408       0   11410   11411   11411       0   11413   11414
   11414       0   11416   11417   11417       0   11419   11420   11420       0
   11422   11423   11423       0   11425   11426   11426       0   11428   11429
   11429       0   11431   11432   11432       0   11434   11435   11435       0
   11437   11438   11438       0   11440   11441   11441       0   11443   11444
   11444       0   11446   11447   11447       0   11449   11450   11450       0
   11452   11453   11453       0   11455   11456   11456       0   11458   11459
   11459       0   11461   11462   11462       0   11464   11465   11465       0
   11467   11468   11468       0   11470   11471   11471       0   11473   11474
   11474       0   11476   11477   11477       0   11479   11480   11480       0
   11482   11483   11483       0   11485   11486   11486       0   11488   11489
   11489       0   11491   11492   11492       0   11494   11495   11495       0
   11497   11498   11498       0   11500   11501   11501       0   11503   11504
   11504       0   11506   11507   11507       0   11509   11510   11510       0
   11512   11513   11513       0   11515   11516   11516       0   11518   11519
   11519       0   11521   11522   11522       0   11524   11525   11525       0
   11527   11528   11528       0   11530   11531   11531       0   11533   11534
   11534       0   11536   11537   11537       0   11539   11540   11540       0
   11542   11543   11543       0   11545   11546   11546       0   11548   11549
   11549       0   11551   11552   11552       0   11554   11555   11555       0
   11557   11558   11558       0   11560   11561   11561       0   11563   11564
   11564       0   11566   11567   11567       0   11569   11570   11570       0
   11572   11573   11573       0   11575   11576   11576       0   11578   11579
   11579       0   11581   11582   11582       0   11584   11585   11585       0
   11587   11588   11588       0   11590   11591   11591       0   11593   11594
   11594       0   11596   11597   11597       0   11599   11600   11600       0
   11602   11603   11603       0   11605   11606   11606       0   11608   11609
   11609       0   11611   11612   11612       0   11614   11615   11615       0
   11617   11618   11618       0   11620   11621   11621       0   11623   11624
   11624       0   11626   11627   11627       0   11629   11630   11630       0
   11632   11633   11633       0   11635   11636   11636       0   11638   11639
   11639       0   11641   11642   11642       0   11644   11645   11645       0
   11647   11648   11648       0   11650   11651   11651       0   11653   11654
   11654       0   11656   11657   11657       0   11659   11660   11660       0
   11662   11663   11663       0   11665   11666   11666       0   11668   11669
   11669       0   11671   11672   11672       0   11674   11675   11675       0
   11677   11678   11678       0   11680   11681   11681       0   11683   11684
   11684       0   11686   11687   11687       0   11689   11690   11690       0
   11692   11693   11693       0   11695   11696   11696       0   11698   11699
   11699       0   11701   11702   11702       0   11704   11705   11705       0
   11707   11708   11708       0   11710   11711   11711       0   11713   11714
   11714       0   11716   11717   11717       0   11719   11720   11720       0
   11722   11723   11723       0   11725   11726   11726       0   11728   11729
   11729       0   11731   11732   11732       0   11734   11735   11735       0
   11737   11738   11738       0   11740   11741   11741       0   11743   11744
   11744       0   11746   11747   11747       0   11749   11750   11750       0
   11752   11753   11753       0   11755   11756   11756       0   11758   11759
   11759       0   11761   11762   11762       0   11764   11765   11765       0
   11767   11768   11768       0   11770   11771   11771       0   11773   11774
   11774       0   11776   11777   11777       0   11779   11780   11780       0
   11782   11783   11783       0   11785   11786   11786       0   11788   11789
   11789       0   11791   11792   11792       0   11794   11795   11795       0
   11797   11798   11798       0   11800   11801   11801       0   11803   11804
   11804       0   11806   11807   11807       0   11809   11810   11810       0
   11812   11813   11813       0   11815   11816   11816       0   11818   11819
   11819       0   11821   11822   11822       0   11824   11825   11825       0
   11827   11828   11828       0   11830   11831   11831       0   11833   11834
   11834       0   11836   11837   11837       0   11839   11840   11840       0
   11842   11843   11843       0   11845   11846   11846       0   11848   11849
   11849       0   11851   11852   11852       0   11854   11855   11855       0
   11857   11858   11858       0   11860   11861   11861       0   11863   11864
   11864       0   11866   11867   11867       0   11869   11870   11870       0
   11872   11873   11873       0   11875   11876   11876       0   11878   11879
   11879       0   11881   11882   11882       0   11884   11885   11885       0
   11887   11888   11888       0   11890   11891   11891       0   11893   11894
   11894       0   11896   11897   11897       0   11899   11900   11900       0
   11902   11903   11903       0   11905   11906   11906       0   11908   11909
   11909       0   11911   11912   11912       0   11914   11915   11915       0
   11917   11918   11918       0   11920   11921   11921       0   11923   11924
   11924       0   11926   11927   11927       0   11929   11930   11930       0
   11932   11933   11933       0   11935   11936   11936       0   11938   11939
   11939       0   11941   11942   11942       0   11944   11945   11945       0
   11947   11948   11948       0   11950   11951   11951       0   11953   11954
   11954       0   11956   11957   11957       0   11959   11960   11960       0
   11962   11963   11963       0   11965   11966   11966       0   11968   11969
   11969       0   11971   11972   11972       0   11974   11975   11975       0
   11977   11978   11978       0   11980   11981   11981       0   11983   11984
   11984       0   11986   11987   11987       0   11989   11990   11990       0
   11992   11993   11993       0   11995   11996   11996       0   11998   11999
   11999       0   12001   12002   12002       0   12004   12005   12005       0
   12007   12008   12008       0   12010   12011   12011       0   12013   12014
   12014       0   12016   12017   12017       0   12019   12020   12020       0
   12022   12023   12023       0   12025   12026   12026       0   12028   12029
   12029       0   12031   12032   12032       0   12034   12035   12035       0
   12037   12038   12038       0   12040   12041   12041       0   12043   12044
   12044       0   12046   12047   12047       0   12049   12050   12050       0
   12052   12053   12053       0   12055   12056   12056       0   12058   12059
   12059       0   12061   12062   12062       0   12064   12065   12065       0
   12067   12068   12068       0   12070   12071   12071       0   12073   12074
   12074       0   12076   12077   12077       0   12079   12080   12080       0
   12082   12083   12083       0   12085   12086   12086       0   12088   12089
   12089       0   12091   12092   12092       0   12094   12095   12095       0
   12097   12098   12098       0   12100   12101   12101       0   12103   12104
   12104       0   12106   12107   12107       0   12109   12110   12110       0
   12112   12113   12113       0   12115   12116   12116       0   12118   12119
   12119       0   12121   12122   12122       0   12124   12125   12125       0
   12127   12128   12128       0   12130   12131   12131       0   12133   12134
   12134       0   12136   12137   12137       0   12139   12140   12140       0
   12142   12143   12143       0   12145   12146   12146       0   12148   12149
   12149       0   12151   12152   12152       0   12154   12155   12155       0
   12157   12158   12158       0   12160   12161   12161       0   12163   12164
   12164       0   12166   12167   12167       0   12169   12170   12170       0
   12172   12173   12173       0   12175   12176   12176       0   12178   12179
   12179       0   12181   12182   12182       0   12184   12185   12185       0
   12187   12188   12188       0   12190   12191   12191       0   12193   12194
   12194       0   12196   12197   12197       0   12199   12200   12200       0
   12202   12203   12203       0   12205   12206   12206       0   12208   12209
   12209       0   12211   12212   12212       0   12214   12215   12215       0
   12217   12218   12218       0   12220   12221   12221       0   12223   12224
   12224       0   12226   12227   12227       0   12229   12230   12230       0
   12232   12233   12233       0   12235   12236   12236       0   12238   12239
   12239       0   12241   12242   12242       0   12244   12245   12245       0
   12247   12248   12248       0   12250   12251   12251       0   12253   12254
   12254       0   12256   12257   12257       0   12259   12260   12260       0
   12262   12263   12263       0   12265   12266   12266       0   12268   12269
   12269       0   12271   12272   12272       0   12274   12275   12275       0
   12277   12278   12278       0   12280   12281   12281       0   12283   12284
   12284       0   12286   12287   12287       0   12289   12290   12290       0
   12292   12293   12293       0   12295   12296   12296       0   12298   12299
   12299       0   12301   12302   12302       0   12304   12305   12305       0
   12307   12308   12308       0   12310   12311   12311       0   12313   12314
   12314       0   12316   12317   12317       0   12319   12320   12320       0
   12322   12323   12323       0   12325   12326   12326       0   12328   12329
   12329       0   12331   12332   12332       0   12334   12335   12335       0
   12337   12338   12338       0   12340   12341   12341       0   12343   12344
   12344       0   12346   12347   12347       0   12349   12350   12350       0
   12352   12353   12353       0   12355   12356   12356       0   12358   12359
   12359       0   12361   12362   12362       0   12364   12365   12365       0
   12367   12368   12368       0   12370   12371   12371       0   12373   12374
   12374       0   12376   12377   12377       0   12379   12380   12380       0
   12382   12383   12383       0   12385   12386   12386       0   12388   12389
   12389       0   12391   12392   12392       0   12394   12395   12395       0
   12397   12398   12398       0   12400   12401   12401       0   12403   12404
   12404       0   12406   12407   12407       0   12409   12410   12410       0
   12412   12413   12413       0   12415   12416   12416       0   12418   12419
   12419       0   12421   12422   12422       0   12424   12425   12425       0
   12427   12428   12428       0   12430   12431   12431       0   12433   12434
   12434       0   12436   12437   12437       0   12439   12440   12440       0
   12442   12443   12443       0   12445   12446   12446       0   12448   12449
   12449       0   12451   12452   12452       0   12454   12455   12455       0
   12457   12458   12458       0   12460   12461   12461       0   12463   12464
   12464       0   12466   12467   12467       0   12469   12470   12470       0
   12472   12473   12473       0   12475   12476   12476       0   12478   12479
   12479       0   12481   12482   12482       0   12484   12485   12485       0
   12487   12488   12488       0   12490   12491   12491       0   12493   12494
   12494       0   12496   12497   12497       0   12499   12500   12500       0
   12502   12503   12503       0   12505   12506   12506       0   12508   12509
   12509       0   12511   12512   12512       0   12514   12515   12515       0
   12517   12518   12518       0   12520   12521   12521       0   12523   12524
   12524       0   12526   12527   12527       0   12529   12530   12530       0
   12532   12533   12533       0   12535   12536   12536       0   12538   12539
   12539       0   12541   12542   12542       0   12544   12545   12545       0
   12547   12548   12548       0   12550   12551   12551       0   12553   12554
   12554       0   12556   12557   12557       0   12559   12560   12560       0
   12562   12563   12563       0   12565   12566   12566       0   12568   12569
   12569       0   12571   12572   12572       0   12574   12575   12575       0
   12577   12578   12578       0   12580   12581   12581       0   12583   12584
   12584       0   12586   12587   12587       0   12589   12590   12590       0
   12592   12593   12593       0   12595   12596   12596       0   12598   12599
   12599       0   12601   12602   12602       0   12604   12605   12605       0
   12607   12608   12608       0   12610   12611   12611       0   12613   12614
   12614       0   12616   12617   12617       0   12619   12620   12620       0
   12622   12623   12623       0   12625   12626   12626       0   12628   12629
   12629       0   12631   12632   12632       0   12634   12635   12635       0
   12637   12638   12638       0   12640   12641   12641       0   12643   12644
   12644       0   12646   12647   12647       0   12649   12650   12650       0
   12652   12653   12653       0   12655   12656   12656       0   12658   12659
   12659       0   12661   12662   12662       0   12664   12665   12665       0
   12667   12668   12668       0   12670   12671   12671       0   12673   12674
   12674       0   12676   12677   12677       0   12679   12680   12680       0
   12682   12683   12683       0   12685   12686   12686       0   12688   12689
   12689       0   12691   12692   12692       0   12694   12695   12695       0
   12697   12698   12698       0   12700   12701   12701       0   12703   12704
   12704       0   12706   12707   12707       0   12709   12710   12710       0
   12712   12713   12713       0   12715   12716   12716       0   12718   12719
   12719       0   12721   12722   12722       0   12724   12725   12725       0
   12727   12728   12728       0   12730   12731   12731       0   12733   12734
   12734       0   12736   12737   12737       0   12739   12740   12740       0
   12742   12743   12743       0   12745   12746   12746       0   12748   12749
   12749       0   12751   12752   12752       0   12754   12755   12755       0
   12757   12758   12758       0   12760   12761   12761       0   12763   12764
   12764       0   12766   12767   12767       0   12769   12770   12770       0
   12772   12773   12773       0   12775   12776   12776       0   12778   12779
   12779       0   12781   12782   12782       0   12784   12785   12785       0
   12787   12788   12788       0   12790   12791   12791       0   12793   12794
   12794       0   12796   12797   12797       0   12799   12800   12800       0
   12802   12803   12803       0   12805   12806   12806       0   12808   12809
   12809       0   12811   12812   12812       0   12814   12815   12815       0
   12817   12818   12818       0   12820   12821   12821       0   12823   12824
   12824       0   12826   12827   12827       0   12829   12830   12830       0
   12832   12833   12833       0   12835   12836   12836       0   12838   12839
   12839       0   12841   12842   12842       0   12844   12845   12845       0
   12847   12848   12848       0   12850   12851   12851       0   12853   12854
   12854       0   12856   12857   12857       0   12859   12860   12860       0
   12862   12863   12863       0   12865   12866   12866       0   12868   12869
   12869       0   12871   12872   12872       0   12874   12875   12875       0
   12877   12878   12878       0   12880   12881   12881       0   12883   12884
   12884       0   12886   12887   12887       0   12889   12890   12890       0
   12892   12893   12893       0   12895   12896   12896       0   12898   12899
   12899       0   12901   12902   12902       0   12904   12905   12905       0
   12907   12908   12908       0   12910   12911   12911       0   12913   12914
   12914       0   12916   12917   12917       0   12919   12920   12920       0
   12922   12923   12923       0   12925   12926   12926       0   12928   12929
   12929       0   12931   12932   12932       0   12934   12935   12935       0
   12937   12938   12938       0   12940   12941   12941       0   12943   12944
   12944       0   12946   12947   12947       0   12949   12950   12950       0
   12952   12953   12953       0   12955   12956   12956       0   12958   12959
   12959       0   12961   12962   12962       0   12964   12965   12965       0
   12967   12968   12968       0   12970   12971   12971       0   12973   12974
   12974       0   12976   12977   12977       0   12979   12980   12980       0
   12982   12983   12983       0   12985   12986   12986       0   12988   12989
   12989       0   12991   12992   12992       0   12994   12995   12995       0
   12997   12998   12998       0   13000   13001   13001       0   13003   13004
   13004       0   13006   13007   13007       0   13009   13010   13010       0
   13012   13013   13013       0   13015   13016   13016       0   13018   13019
   13019       0   13021   13022   13022       0   13024   13025   13025       0
   13027   13028   13028       0   13030   13031   13031       0   13033   13034
   13034       0   13036   13037   13037       0   13039   13040   13040       0
   13042   13043   13043       0   13045   13046   13046       0   13048   13049
   13049       0   13051   13052   13052       0   13054   13055   13055       0
   13057   13058   13058       0   13060   13061   13061       0   13063   13064
   13064       0   13066   13067   13067       0   13069   13070   13070       0
   13072   13073   13073       0   13075   13076   13076       0   13078   13079
   13079       0   13081   13082   13082       0   13084   13085   13085       0
   13087   13088   13088       0   13090   13091   13091       0   13093   13094
   13094       0   13096   13097   13097       0   13099   13100   13100       0
   13102   13103   13103       0   13105   13106   13106       0   13108   13109
   13109       0   13111   13112   13112       0   13114   13115   13115       0
   13117   13118   13118       0   13120   13121   13121       0   13123   13124
   13124       0   13126   13127   13127       0   13129   13130   13130       0
   13132   13133   13133       0   13135   13136   13136       0   13138   13139
   13139       0   13141   13142   13142       0   13144   13145   13145       0
   13147   13148   13148       0   13150   13151   13151       0   13153   13154
   13154       0   13156   13157   13157       0   13159   13160   13160       0
   13162   13163   13163       0   13165   13166   13166       0   13168   13169
   13169       0   13171   13172   13172       0   13174   13175   13175       0
   13177   13178   13178       0   13180   13181   13181       0   13183   13184
   13184       0   13186   13187   13187       0   13189   13190   13190       0
   13192   13193   13193       0   13195   13196   13196       0   13198   13199
   13199       0   13201   13202   13202       0   13204   13205   13205       0
   13207   13208   13208       0   13210   13211   13211       0   13213   13214
   13214       0   13216   13217   13217       0   13219   13220   13220       0
   13222   13223   13223       0   13225   13226   13226       0   13228   13229
   13229       0   13231   13232   13232       0   13234   13235   13235       0
   13237   13238   13238       0   13240   13241   13241       0   13243   13244
   13244       0   13246   13247   13247       0   13249   13250   13250       0
   13252   13253   13253       0   13255   13256   13256       0   13258   13259
   13259       0   13261   13262   13262       0   13264   13265   13265       0
   13267   13268   13268       0   13270   13271   13271       0   13273   13274
   13274       0   13276   13277   13277       0   13279   13280   13280       0
   13282   13283   13283       0   13285   13286   13286       0   13288   13289
   13289       0   13291   13292   13292       0   13294   13295   13295       0
   13297   13298   13298       0   13300   13301   13301       0   13303   13304
   13304       0   13306   13307   13307       0   13309   13310   13310       0
   13312   13313   13313       0   13315   13316   13316       0   13318   13319
   13319       0   13321   13322   13322       0   13324   13325   13325       0
   13327   13328   13328       0   13330   13331   13331       0   13333   13334
   13334       0   13336   13337   13337       0   13339   13340   13340       0
   13342   13343   13343       0   13345   13346   13346       0   13348   13349
   13349       0   13351   13352   13352       0   13354   13355   13355       0
   13357   13358   13358       0   13360   13361   13361       0   13363   13364
   13364       0   13366   13367   13367       0   13369   13370   13370       0
   13372   13373   13373       0   13375   13376   13376       0   13378   13379
   13379       0   13381   13382   13382       0   13384   13385   13385       0
   13387   13388   13388       0   13390   13391   13391       0   13393   13394
   13394       0   13396   13397   13397       0   13399   13400   13400       0
   13402   13403   13403       0   13405   13406   13406       0   13408   13409
   13409       0   13411   13412   13412       0   13414   13415   13415       0
   13417   13418   13418       0   13420   13421   13421       0   13423   13424
   13424       0   13426   13427   13427       0   13429   13430   13430       0
   13432   13433   13433       0   13435   13436   13436       0   13438   13439
   13439       0   13441   13442   13442       0   13444   13445   13445       0
   13447   13448   13448       0   13450   13451   13451       0   13453   13454
   13454       0   13456   13457   13457       0   13459   13460   13460       0
   13462   13463   13463       0   13465   13466   13466       0   13468   13469
   13469       0   13471   13472   13472       0   13474   13475   13475       0
   13477   13478   13478       0   13480   13481   13481       0   13483   13484
   13484       0   13486   13487   13487       0   13489   13490   13490       0
   13492   13493   13493       0   13495   13496   13496       0   13498   13499
   13499       0   13501   13502   13502       0   13504   13505   13505       0
   13507   13508   13508       0   13510   13511   13511       0   13513   13514
   13514       0   13516   13517   13517       0   13519   13520   13520       0
   13522   13523   13523       0   13525   13526   13526       0   13528   13529
   13529       0   13531   13532   13532       0   13534   13535   13535       0
   13537   13538   13538       0   13540   13541   13541       0   13543   13544
   13544       0   13546   13547   13547       0   13549   13550   13550       0
   13552   13553   13553       0   13555   13556   13556       0   13558   13559
   13559       0   13561   13562   13562       0   13564   13565   13565       0
   13567   13568   13568       0   13570   13571   13571       0   13573   13574
   13574       0   13576   13577   13577       0   13579   13580   13580       0
   13582   13583   13583       0   13585   13586   13586       0   13588   13589
   13589       0   13591   13592   13592       0   13594   13595   13595       0
   13597   13598   13598       0   13600   13601   13601       0   13603   13604
   13604       0   13606   13607   13607       0   13609   13610   13610       0
   13612   13613   13613       0   13615   13616   13616       0   13618   13619
   13619       0   13621   13622   13622       0   13624   13625   13625       0
   13627   13628   13628       0   13630   13631   13631       0   13633   13634
   13634       0   13636   13637   13637       0   13639   13640   13640       0
   13642   13643   13643       0   13645   13646   13646       0   13648   13649
   13649       0   13651   13652   13652       0   13654   13655   13655       0
   13657   13658   13658       0   13660   13661   13661       0   13663   13664
   13664       0   13666   13667   13667       0   13669   13670   13670       0
   13672   13673   13673       0   13675   13676   13676       0   13678   13679
   13679       0   13681   13682   13682       0   13684   13685   13685       0
   13687   13688   13688       0   13690   13691   13691       0   13693   13694
   13694       0   13696   13697   13697       0   13699   13700   13700       0
   13702   13703   13703       0   13705   13706   13706       0   13708   13709
   13709       0   13711   13712   13712       0   13714   13715   13715       0
   13717   13718   13718       0   13720   13721   13721       0   13723   13724
   13724       0   13726   13727   13727       0   13729   13730   13730       0
   13732   13733   13733       0   13735   13736   13736       0   13738   13739
   13739       0   13741   13742   13742       0   13744   13745   13745       0
   13747   13748   13748       0   13750   13751   13751       0   13753   13754
   13754       0   13756   13757   13757       0   13759   13760   13760       0
   13762   13763   13763       0   13765   13766   13766       0   13768   13769
   13769       0   13771   13772   13772       0   13774   13775   13775       0
   13777   13778   13778       0   13780   13781   13781       0   13783   13784
   13784       0   13786   13787   13787       0   13789   13790   13790       0
   13792   13793   13793       0   13795   13796   13796       0   13798   13799
   13799       0   13801   13802   13802       0   13804   13805   13805       0
   13807   13808   13808       0   13810   13811   13811       0   13813   13814
   13814       0   13816   13817   13817       0   13819   13820   13820       0
   13822   13823   13823       0   13825   13826   13826       0   13828   13829
   13829       0   13831   13832   13832       0   13834   13835   13835       0
   13837   13838   13838       0   13840   13841   13841       0   13843   13844
   13844       0   13846   13847   13847       0   13849   13850   13850       0
   13852   13853   13853       0   13855   13856   13856       0   13858   13859
   13859       0   13861   13862   13862       0   13864   13865   13865       0
   13867   13868   13868       0   13870   13871   13871       0   13873   13874
   13874       0   13876   13877   13877       0   13879   13880   13880       0
   13882   13883   13883       0   13885   13886   13886       0   13888   13889
   13889       0   13891   13892   13892       0   13894   13895   13895       0
   13897   13898   13898       0   13900   13901   13901       0   13903   13904
   13904       0   13906   13907   13907       0   13909   13910   13910       0
   13912   13913   13913       0   13915   13916   13916       0   13918   13919
   13919       0   13921   13922   13922       0   13924   13925   13925       0
   13927   13928   13928       0   13930   13931   13931       0   13933   13934
   13934       0   13936   13937   13937       0   13939   13940   13940       0
   13942   13943   13943       0   13945   13946   13946       0   13948   13949
   13949       0   13951   13952   13952       0   13954   13955   13955       0
   13957   13958   13958       0   13960   13961   13961       0   13963   13964
   13964       0   13966   13967   13967       0   13969   13970   13970       0
   13972   13973   13973       0   13975   13976   13976       0   13978   13979
   13979       0   13981   13982   13982       0   13984   13985   13985       0
   13987   13988   13988       0   13990   13991   13991       0   13993   13994
   13994       0   13996   13997   13997       0   13999   14000   14000       0
   14002   14003   14003       0   14005   14006   14006       0   14008   14009
   14009       0   14011   14012   14012       0   14014   14015   14015       0
   14017   14018   14018       0   14020   14021   14021       0   14023   14024
   14024       0   14026   14027   14027       0   14029   14030   14030       0
   14032   14033   14033       0   14035   14036   14036       0   14038   14039
   14039       0   14041   14042   14042       0   14044   14045   14045       0
   14047   14048   14048       0   14050   14051   14051       0   14053   14054
   14054       0   14056   14057   14057       0   14059   14060   14060       0
   14062   14063   14063       0   14065   14066   14066       0   14068   14069
   14069       0   14071   14072   14072       0   14074   14075   14075       0
   14077   14078   14078       0   14080   14081   14081       0   14083   14084
   14084       0   14086   14087   14087       0   14089   14090   14090       0
   14092   14093   14093       0   14095   14096   14096       0   14098   14099
   14099       0   14101   14102   14102       0   14104   14105   14105       0
   14107   14108   14108       0   14110   14111   14111       0   14113   14114
   14114       0   14116   14117   14117       0   14119   14120   14120       0
   14122   14123   14123       0   14125   14126   14126       0   14128   14129
   14129       0   14131   14132   14132       0   14134   14135   14135       0
   14137   14138   14138       0   14140   14141   14141       0   14143   14144
   14144       0   14146   14147   14147       0   14149   14150   14150       0
   14152   14153   14153       0   14155   14156   14156       0   14158   14159
   14159       0   14161   14162   14162       0   14164   14165   14165       0
   14167   14168   14168       0   14170   14171   14171       0   14173   14174
   14174       0   14176   14177   14177       0   14179   14180   14180       0
   14182   14183   14183       0   14185   14186   14186       0   14188   14189
   14189       0   14191   14192   14192       0   14194   14195   14195       0
   14197   14198   14198       0   14200   14201   14201       0   14203   14204
   14204       0   14206   14207   14207       0   14209   14210   14210       0
   14212   14213   14213       0   14215   14216   14216       0   14218   14219
   14219       0   14221   14222   14222       0   14224   14225   14225       0
   14227   14228   14228       0   14230   14231   14231       0   14233   14234
   14234       0   14236   14237   14237       0   14239   14240   14240       0
   14242   14243   14243       0   14245   14246   14246       0   14248   14249
   14249       0   14251   14252   14252       0   14254   14255   14255       0
   14257   14258   14258       0   14260   14261   14261       0   14263   14264
   14264       0   14266   14267   14267       0   14269   14270   14270       0
   14272   14273   14273       0   14275   14276   14276       0   14278   14279
   14279       0   14281   14282   14282       0   14284   14285   14285       0
   14287   14288   14288       0   14290   14291   14291       0   14293   14294
   14294       0   14296   14297   14297       0   14299   14300   14300       0
   14302   14303   14303       0   14305   14306   14306       0   14308   14309
   14309       0   14311   14312   14312       0   14314   14315   14315       0
   14317   14318   14318       0   14320   14321   14321       0   14323   14324
   14324       0   14326   14327   14327       0   14329   14330   14330       0
   14332   14333   14333       0   14335   14336   14336       0   14338   14339
   14339       0   14341   14342   14342       0   14344   14345   14345       0
   14347   14348   14348       0   14350   14351   14351       0   14353   14354
   14354       0   14356   14357   14357       0   14359   14360   14360       0
   14362   14363   14363       0   14365   14366   14366       0   14368   14369
   14369       0   14371   14372   14372       0   14374   14375   14375       0
   14377   14378   14378       0   14380   14381   14381       0   14383   14384
   14384       0   14386   14387   14387       0   14389   14390   14390       0
   14392   14393   14393       0   14395   14396   14396       0   14398   14399
   14399       0   14401   14402   14402       0   14404   14405   14405       0
   14407   14408   14408       0   14410   14411   14411       0   14413   14414
   14414       0   14416   14417   14417       0   14419   14420   14420       0
   14422   14423   14423       0   14425   14426   14426       0   14428   14429
   14429       0   14431   14432   14432       0   14434   14435   14435       0
   14437   14438   14438       0   14440   14441   14441       0   14443   14444
   14444       0   14446   14447   14447       0   14449   14450   14450       0
   14452   14453   14453       0   14455   14456   14456       0   14458   14459
   14459       0   14461   14462   14462       0   14464   14465   14465       0
   14467   14468   14468       0   14470   14471   14471       0   14473   14474
   14474       0   14476   14477   14477       0   14479   14480   14480       0
   14482   14483   14483       0   14485   14486   14486       0   14488   14489
   14489       0   14491   14492   14492       0   14494   14495   14495       0
   14497   14498   14498       0   14500   14501   14501       0   14503   14504
   14504       0   14506   14507   14507       0   14509   14510   14510       0
   14512   14513   14513       0   14515   14516   14516       0   14518   14519
   14519       0   14521   14522   14522       0   14524   14525   14525       0
   14527   14528   14528       0   14530   14531   14531       0   14533   14534
   14534       0   14536   14537   14537       0   14539   14540   14540       0
   14542   14543   14543       0   14545   14546   14546       0   14548   14549
   14549       0   14551   14552   14552       0   14554   14555   14555       0
   14557   14558   14558       0   14560   14561   14561       0   14563   14564
   14564       0   14566   14567   14567       0   14569   14570   14570       0
   14572   14573   14573       0   14575   14576   14576       0   14578   14579
   14579       0   14581   14582   14582       0   14584   14585   14585       0
   14587   14588   14588       0   14590   14591   14591       0   14593   14594
   14594       0   14596   14597   14597       0   14599   14600   14600       0
   14602   14603   14603       0   14605   14606   14606       0   14608   14609
   14609       0   14611   14612   14612       0   14614   14615   14615       0
   14617   14618   14618       0   14620   14621   14621       0   14623   14624
   14624       0   14626   14627   14627       0   14629   14630   14630       0
   14632   14633   14633       0   14635   14636   14636       0   14638   14639
   14639       0   14641   14642   14642       0   14644   14645   14645       0
   14647   14648   14648       0   14650   14651   14651       0   14653   14654
   14654       0   14656   14657   14657       0   14659   14660   14660       0
   14662   14663   14663       0   14665   14666   14666       0   14668   14669
   14669       0   14671   14672   14672       0   14674   14675   14675       0
   14677   14678   14678       0   14680   14681   14681       0   14683   14684
   14684       0   14686   14687   14687       0   14689   14690   14690       0
   14692   14693   14693       0   14695   14696   14696       0   14698   14699
   14699       0   14701   14702   14702       0   14704   14705   14705       0
   14707   14708   14708       0   14710   14711   14711       0   14713   14714
   14714       0   14716   14717   14717       0   14719   14720   14720       0
   14722   14723   14723       0   14725   14726   14726       0   14728   14729
   14729       0   14731   14732   14732       0   14734   14735   14735       0
   14737   14738   14738       0   14740   14741   14741       0   14743   14744
   14744       0   14746   14747   14747       0   14749   14750   14750       0
   14752   14753   14753       0   14755   14756   14756       0   14758   14759
   14759       0   14761   14762   14762       0   14764   14765   14765       0
   14767   14768   14768       0   14770   14771   14771       0   14773   14774
   14774       0   14776   14777   14777       0   14779   14780   14780       0
   14782   14783   14783       0   14785   14786   14786       0   14788   14789
   14789       0   14791   14792   14792       0   14794   14795   14795       0
   14797   14798   14798       0   14800   14801   14801       0   14803   14804
   14804       0   14806   14807   14807       0   14809   14810   14810       0
   14812   14813   14813       0   14815   14816   14816       0   14818   14819
   14819       0   14821   14822   14822       0   14824   14825   14825       0
   14827   14828   14828       0   14830   14831   14831       0   14833   14834
   14834       0   14836   14837   14837       0   14839   14840   14840       0
   14842   14843   14843       0   14845   14846   14846       0   14848   14849
   14849       0   14851   14852   14852       0   14854   14855   14855       0
   14857   14858   14858       0   14860   14861   14861       0   14863   14864
   14864       0   14866   14867   14867       0   14869   14870   14870       0
   14872   14873   14873       0   14875   14876   14876       0   14878   14879
   14879       0   14881   14882   14882       0   14884   14885   14885       0
   14887   14888   14888       0   14890   14891   14891       0   14893   14894
   14894       0   14896   14897   14897       0   14899   14900   14900       0
   14902   14903   14903       0   14905   14906   14906       0   14908   14909
   14909       0   14911   14912   14912       0   14914   14915   14915       0
   14917   14918   14918       0   14920   14921   14921       0   14923   14924
   14924       0   14926   14927   14927       0   14929   14930   14930       0
   14932   14933   14933       0   14935   14936   14936       0   14938   14939
   14939       0   14941   14942   14942       0   14944   14945   14945       0
   14947   14948   14948       0   14950   14951   14951       0   14953   14954
   14954       0   14956   14957   14957       0   14959   14960   14960       0
   14962   14963   14963       0   14965   14966   14966       0   14968   14969
   14969       0   14971   14972   14972       0   14974   14975   14975       0
   14977   14978   14978       0   14980   14981   14981       0   14983   14984
   14984       0   14986   14987   14987       0   14989   14990   14990       0
   14992   14993   14993       0   14995   14996   14996       0   14998   14999
   14999       0   15001   15002   15002       0   15004   15005   15005       0
   15007   15008   15008       0   15010   15011   15011       0   15013   15014
   15014       0   15016   15017   15017       0   15019   15020   15020       0
   15022   15023   15023       0   15025   15026   15026       0   15028   15029
   15029       0   15031   15032   15032       0   15034   15035   15035       0
   15037   15038   15038       0   15040   15041   15041       0   15043   15044
   15044       0   15046   15047   15047       0   15049   15050   15050       0
   15052   15053   15053       0   15055   15056   15056       0   15058   15059
   15059       0   15061   15062   15062       0   15064   15065   15065       0
   15067   15068   15068       0   15070   15071   15071       0   15073   15074
   15074       0   15076   15077   15077       0   15079   15080   15080       0
   15082   15083   15083       0   15085   15086   15086       0   15088   15089
   15089       0   15091   15092   15092       0   15094   15095   15095       0
   15097   15098   15098       0   15100   15101   15101       0   15103   15104
   15104       0   15106   15107   15107       0   15109   15110   15110       0
   15112   15113   15113       0   15115   15116   15116       0   15118   15119
   15119       0   15121   15122   15122       0   15124   15125   15125       0
   15127   15128   15128       0   15130   15131   15131       0   15133   15134
   15134       0   15136   15137   15137       0   15139   15140   15140       0
   15142   15143   15143       0   15145   15146   15146       0   15148   15149
   15149       0   15151   15152   15152       0   15154   15155   15155       0
   15157   15158   15158       0   15160   15161   15161       0   15163   15164
   15164       0   15166   15167   15167       0   15169   15170   15170       0
   15172   15173   15173       0   15175   15176   15176       0   15178   15179
   15179       0   15181   15182   15182       0   15184   15185   15185       0
   15187   15188   15188       0   15190   15191   15191       0   15193   15194
   15194       0   15196   15197   15197       0   15199   15200   15200       0
   15202   15203   15203       0   15205   15206   15206       0   15208   15209
   15209       0   15211   15212   15212       0   15214   15215   15215       0
   15217   15218   15218       0   15220   15221   15221       0   15223   15224
   15224       0   15226   15227   15227       0   15229   15230   15230       0
   15232   15233   15233       0   15235   15236   15236       0   15238   15239
   15239       0   15241   15242   15242       0   15244   15245   15245       0
   15247   15248   15248       0   15250   15251   15251       0   15253   15254
   15254       0   15256   15257   15257       0   15259   15260   15260       0
   15262   15263   15263       0   15265   15266   15266       0   15268   15269
   15269       0   15271   15272   15272       0   15274   15275   15275       0
   15277   15278   15278       0   15280   15281   15281       0   15283   15284
   15284       0   15286   15287   15287       0   15289   15290   15290       0
   15292   15293   15293       0   15295   15296   15296       0   15298   15299
   15299       0   15301   15302   15302       0   15304   15305   15305       0
   15307   15308   15308       0   15310   15311   15311       0   15313   15314
   15314       0   15316   15317   15317       0   15319   15320   15320       0
   15322   15323   15323       0   15325   15326   15326       0   15328   15329
   15329       0   15331   15332   15332       0   15334   15335   15335       0
   15337   15338   15338       0   15340   15341   15341       0   15343   15344
   15344       0   15346   15347   15347       0   15349   15350   15350       0
   15352   15353   15353       0   15355   15356   15356       0   15358   15359
   15359       0   15361   15362   15362       0   15364   15365   15365       0
   15367   15368   15368       0   15370   15371   15371       0   15373   15374
   15374       0   15376   15377   15377       0   15379   15380   15380       0
   15382   15383   15383       0   15385   15386   15386       0   15388   15389
   15389       0   15391   15392   15392       0   15394   15395   15395       0
   15397   15398   15398       0   15400   15401   15401       0   15403   15404
   15404       0   15406   15407   15407       0   15409   15410   15410       0
   15412   15413   15413       0   15415   15416   15416       0   15418   15419
   15419       0   15421   15422   15422       0   15424   15425   15425       0
   15427   15428   15428       0   15430   15431   15431       0   15433   15434
   15434       0   15436   15437   15437       0   15439   15440   15440       0
   15442   15443   15443       0   15445   15446   15446       0   15448   15449
   15449       0   15451   15452   15452       0   15454   15455   15455       0
   15457   15458   15458       0   15460   15461   15461       0   15463   15464
   15464       0   15466   15467   15467       0   15469   15470   15470       0
   15472   15473   15473       0   15475   15476   15476       0   15478   15479
   15479       0   15481   15482   15482       0   15484   15485   15485       0
   15487   15488   15488       0   15490   15491   15491       0   15493   15494
   15494       0   15496   15497   15497       0   15499   15500   15500       0
   15502   15503   15503       0   15505   15506   15506       0   15508   15509
   15509       0   15511   15512   15512       0   15514   15515   15515       0
   15517   15518   15518       0   15520   15521   15521       0   15523   15524
   15524       0   15526   15527   15527       0   15529   15530   15530       0
   15532   15533   15533       0   15535   15536   15536       0   15538   15539
   15539       0   15541   15542   15542       0   15544   15545   15545       0
   15547   15548   15548       0   15550   15551   15551       0   15553   15554
   15554       0   15556   15557   15557       0   15559   15560   15560       0
   15562   15563   15563       0   15565   15566   15566       0   15568   15569
   15569       0   15571   15572   15572       0   15574   15575   15575       0
   15577   15578   15578       0   15580   15581   15581       0   15583   15584
   15584       0   15586   15587   15587       0   15589   15590   15590       0
   15592   15593   15593       0   15595   15596   15596       0   15598   15599
   15599       0   15601   15602   15602       0   15604   15605   15605       0
   15607   15608   15608       0   15610   15611   15611       0   15613   15614
   15614       0   15616   15617   15617       0   15619   15620   15620       0
   15622   15623   15623       0   15625   15626   15626       0   15628   15629
   15629       0   15631   15632   15632       0   15634   15635   15635       0
   15637   15638   15638       0   15640   15641   15641       0   15643   15644
   15644       0   15646   15647   15647       0   15649   15650   15650       0
   15652   15653   15653       0   15655   15656   15656       0   15658   15659
   15659       0   15661   15662   15662       0   15664   15665   15665       0
   15667   15668   15668       0   15670   15671   15671       0   15673   15674
   15674       0   15676   15677   15677       0   15679   15680   15680       0
   15682   15683   15683       0   15685   15686   15686       0   15688   15689
   15689       0   15691   15692   15692       0   15694   15695   15695       0
   15697   15698   15698       0   15700   15701   15701       0   15703   15704
   15704       0   15706   15707   15707       0   15709   15710   15710       0
   15712   15713   15713       0   15715   15716   15716       0   15718   15719
   15719       0   15721   15722   15722       0   15724   15725   15725       0
   15727   15728   15728       0   15730   15731   15731       0   15733   15734
   15734       0   15736   15737   15737       0   15739   15740   15740       0
   15742   15743   15743       0   15745   15746   15746       0   15748   15749
   15749       0   15751   15752   15752       0   15754   15755   15755       0
   15757   15758   15758       0   15760   15761   15761       0   15763   15764
   15764       0   15766   15767   15767       0   15769   15770   15770       0
   15772   15773   15773       0   15775   15776   15776       0   15778   15779
   15779       0   15781   15782   15782       0   15784   15785   15785       0
   15787   15788   15788       0   15790   15791   15791       0   15793   15794
   15794       0   15796   15797   15797       0   15799   15800   15800       0
   15802   15803   15803       0   15805   15806   15806       0   15808   15809
   15809       0   15811   15812   15812       0   15814   15815   15815       0
   15817   15818   15818       0   15820   15821   15821       0   15823   15824
   15824       0   15826   15827   15827       0   15829   15830   15830       0
   15832   15833   15833       0   15835   15836   15836       0   15838   15839
   15839       0   15841   15842   15842       0   15844   15845   15845       0
   15847   15848   15848       0   15850   15851   15851       0   15853   15854
   15854       0   15856   15857   15857       0   15859   15860   15860       0
   15862   15863   15863       0   15865   15866   15866       0   15868   15869
   15869       0   15871   15872   15872       0   15874   15875   15875       0
   15877   15878   15878       0   15880   15881   15881       0   15883   15884
   15884       0   15886   15887   15887       0   15889   15890   15890       0
   15892   15893   15893       0   15895   15896   15896       0   15898   15899
   15899       0   15901   15902   15902       0   15904   15905   15905       0
   15907   15908   15908       0   15910   15911   15911       0   15913   15914
   15914       0   15916   15917   15917       0   15919   15920   15920       0
   15922   15923   15923       0   15925   15926   15926       0   15928   15929
   15929       0   15931   15932   15932       0   15934   15935   15935       0
   15937   15938   15938       0   15940   15941   15941       0   15943   15944
   15944       0   15946   15947   15947       0   15949   15950   15950       0
   15952   15953   15953       0   15955   15956   15956       0   15958   15959
   15959       0   15961   15962   15962       0   15964   15965   15965       0
   15967   15968   15968       0   15970   15971   15971       0   15973   15974
   15974       0   15976   15977   15977       0   15979   15980   15980       0
   15982   15983   15983       0   15985   15986   15986       0   15988   15989
   15989       0   15991   15992   15992       0   15994   15995   15995       0
   15997   15998   15998       0   16000   16001   16001       0   16003   16004
   16004       0   16006   16007   16007       0   16009   16010   16010       0
   16012   16013   16013       0   16015   16016   16016       0   16018   16019
   16019       0   16021   16022   16022       0   16024   16025   16025       0
   16027   16028   16028       0   16030   16031   16031       0   16033   16034
   16034       0   16036   16037   16037       0   16039   16040   16040       0
   16042   16043   16043       0   16045   16046   16046       0   16048   16049
   16049       0   16051   16052   16052       0   16054   16055   16055       0
   16057   16058   16058       0   16060   16061   16061       0   16063   16064
   16064       0   16066   16067   16067       0   16069   16070   16070       0
   16072   16073   16073       0   16075   16076   16076       0   16078   16079
   16079       0   16081   16082   16082       0   16084   16085   16085       0
   16087   16088   16088       0   16090   16091   16091       0   16093   16094
   16094       0   16096   16097   16097       0   16099   16100   16100       0
   16102   16103   16103       0   16105   16106   16106       0   16108   16109
   16109       0   16111   16112   16112       0   16114   16115   16115       0
   16117   16118   16118       0   16120   16121   16121       0   16123   16124
   16124       0   16126   16127   16127       0   16129   16130   16130       0
   16132   16133   16133       0   16135   16136   16136       0   16138   16139
   16139       0   16141   16142   16142       0   16144   16145   16145       0
   16147   16148   16148       0   16150   16151   16151       0   16153   16154
   16154       0   16156   16157   16157       0   16159   16160   16160       0
   16162   16163   16163       0   16165   16166   16166       0   16168   16169
   16169       0   16171   16172   16172       0   16174   16175   16175       0
   16177   16178   16178       0   16180   16181   16181       0   16183   16184
   16184       0   16186   16187   16187       0   16189   16190   16190       0
   16192   16193   16193       0   16195   16196   16196       0   16198   16199
   16199       0   16201   16202   16202       0   16204   16205   16205       0
   16207   16208   16208       0   16210   16211   16211       0   16213   16214
   16214       0   16216   16217   16217       0   16219   16220   16220       0
   16222   16223   16223       0   16225   16226   16226       0   16228   16229
   16229       0   16231   16232   16232       0   16234   16235   16235       0
   16237   16238   16238       0   16240   16241   16241       0   16243   16244
   16244       0   16246   16247   16247       0   16249   16250   16250       0
   16252   16253   16253       0   16255   16256   16256       0   16258   16259
   16259       0   16261   16262   16262       0   16264   16265   16265       0
   16267   16268   16268       0   16270   16271   16271       0   16273   16274
   16274       0   16276   16277   16277       0   16279   16280   16280       0
   16282   16283   16283       0   16285   16286   16286       0   16288   16289
   16289       0   16291   16292   16292       0   16294   16295   16295       0
   16297   16298   16298       0   16300   16301   16301       0   16303   16304
   16304       0   16306   16307   16307       0   16309   16310   16310       0
   16312   16313   16313       0   16315   16316   16316       0   16318   16319
   16319       0   16321   16322   16322       0   16324   16325   16325       0
   16327   16328   16328       0   16330   16331   16331       0   16333   16334
   16334       0   16336   16337   16337       0   16339   16340   16340       0
   16342   16343   16343       0   16345   16346   16346       0   16348   16349
   16349       0   16351   16352   16352       0   16354   16355   16355       0
   16357   16358   16358       0   16360   16361   16361       0   16363   16364
   16364       0   16366   16367   16367       0   16369   16370   16370       0
   16372   16373   16373       0   16375   16376   16376       0   16378   16379
   16379       0   16381   16382   16382       0   16384   16385   16385       0
   16387   16388   16388       0   16390   16391   16391       0   16393   16394
   16394       0   16396   16397   16397       0   16399   16400   16400       0
   16402   16403   16403       0   16405   16406   16406       0   16408   16409
   16409       0   16411   16412   16412       0   16414   16415   16415       0
   16417   16418   16418       0   16420   16421   16421       0   16423   16424
   16424       0   16426   16427   16427       0   16429   16430   16430       0
   16432   16433   16433       0   16435   16436   16436       0   16438   16439
   16439       0   16441   16442   16442       0   16444   16445   16445       0
   16447   16448   16448       0   16450   16451   16451       0   16453   16454
   16454       0   16456   16457   16457       0   16459   16460   16460       0
   16462   16463   16463       0   16465   16466   16466       0   16468   16469
   16469       0   16471   16472   16472       0   16474   16475   16475       0
   16477   16478   16478       0   16480   16481   16481       0   16483   16484
   16484       0   16486   16487   16487       0   16489   16490   16490       0
   16492   16493   16493       0   16495   16496   16496       0   16498   16499
   16499       0   16501   16502   16502       0   16504   16505   16505       0
   16507   16508   16508       0   16510   16511   16511       0   16513   16514
   16514       0   16516   16517   16517       0   16519   16520   16520       0
   16522   16523   16523       0   16525   16526   16526       0   16528   16529
   16529       0   16531   16532   16532       0   16534   16535   16535       0
   16537   16538   16538       0   16540   16541   16541       0   16543   16544
   16544       0   16546   16547   16547       0   16549   16550   16550       0
   16552   16553   16553       0   16555   16556   16556       0   16558   16559
   16559       0   16561   16562   16562       0   16564   16565   16565       0
   16567   16568   16568       0   16570   16571   16571       0   16573   16574
   16574       0   16576   16577   16577       0   16579   16580   16580       0
   16582   16583   16583       0   16585   16586   16586       0   16588   16589
   16589       0   16591   16592   16592       0   16594   16595   16595       0
   16597   16598   16598       0   16600   16601   16601       0   16603   16604
   16604       0   16606   16607   16607       0   16609   16610   16610       0
   16612   16613   16613       0   16615   16616   16616       0   16618   16619
   16619       0   16621   16622   16622       0   16624   16625   16625       0
   16627   16628   16628       0   16630   16631   16631       0   16633   16634
   16634       0   16636   16637   16637       0   16639   16640   16640       0
   16642   16643   16643       0   16645   16646   16646       0   16648   16649
   16649       0   16651   16652   16652       0   16654   16655   16655       0
   16657   16658   16658       0   16660   16661   16661       0   16663   16664
   16664       0   16666   16667   16667       0   16669   16670   16670       0
   16672   16673   16673       0   16675   16676   16676       0   16678   16679
   16679       0   16681   16682   16682       0   16684   16685   16685       0
   16687   16688   16688       0   16690   16691   16691       0   16693   16694
   16694       0   16696   16697   16697       0   16699   16700   16700       0
   16702   16703   16703       0   16705   16706   16706       0   16708   16709
   16709       0   16711   16712   16712       0   16714   16715   16715       0
   16717   16718   16718       0   16720   16721   16721       0   16723   16724
   16724       0   16726   16727   16727       0   16729   16730   16730       0
   16732   16733   16733       0   16735   16736   16736       0   16738   16739
   16739       0   16741   16742   16742       0   16744   16745   16745       0
   16747   16748   16748       0   16750   16751   16751       0   16753   16754
   16754       0   16756   16757   16757       0   16759   16760   16760       0
   16762   16763   16763       0   16765   16766   16766       0   16768   16769
   16769       0   16771   16772   16772       0   16774   16775   16775       0
   16777   16778   16778       0   16780   16781   16781       0   16783   16784
   16784       0   16786   16787   16787       0   16789   16790   16790       0
   16792   16793   16793       0   16795   16796   16796       0   16798   16799
   16799       0   16801   16802   16802       0   16804   16805   16805       0
   16807   16808   16808       0   16810   16811   16811       0   16813   16814
   16814       0   16816   16817   16817       0   16819   16820   16820       0
   16822   16823   16823       0   16825   16826   16826       0   16828   16829
   16829       0   16831   16832   16832       0   16834   16835   16835       0
   16837   16838   16838       0   16840   16841   16841       0   16843   16844
   16844       0   16846   16847   16847       0   16849   16850   16850       0
   16852   16853   16853       0   16855   16856   16856       0   16858   16859
   16859       0   16861   16862   16862       0   16864   16865   16865       0
   16867   16868   16868       0   16870   16871   16871       0   16873   16874
   16874       0   16876   16877   16877       0   16879   16880   16880       0
   16882   16883   16883       0   16885   16886   16886       0   16888   16889
   16889       0   16891   16892   16892       0   16894   16895   16895       0
   16897   16898   16898       0   16900   16901   16901       0   16903   16904
   16904       0   16906   16907   16907       0   16909   16910   16910       0
   16912   16913   16913       0   16915   16916   16916       0   16918   16919
   16919       0   16921   16922   16922       0   16924   16925   16925       0
   16927   16928   16928       0   16930   16931   16931       0   16933   16934
   16934       0   16936   16937   16937       0   16939   16940   16940       0
   16942   16943   16943       0   16945   16946   16946       0   16948   16949
   16949       0   16951   16952   16952       0   16954   16955   16955       0
   16957   16958   16958       0   16960   16961   16961       0   16963   16964
   16964       0   16966   16967   16967       0   16969   16970   16970       0
   16972   16973   16973       0   16975   16976   16976       0   16978   16979
   16979       0   16981   16982   16982       0   16984   16985   16985       0
   16987   16988   16988       0   16990   16991   16991       0   16993   16994
   16994       0   16996   16997   16997       0   16999   17000   17000       0
   17002   17003   17003       0   17005   17006   17006       0   17008   17009
   17009       0   17011   17012   17012       0   17014   17015   17015       0
   17017   17018   17018       0   17020   17021   17021       0   17023   17024
   17024       0   17026   17027   17027       0   17029   17030   17030       0
   17032   17033   17033       0   17035   17036   17036       0   17038   17039
   17039       0   17041   17042   17042       0   17044   17045   17045       0
   17047   17048   17048       0   17050   17051   17051       0   17053   17054
   17054       0   17056   17057   17057       0   17059   17060   17060       0
   17062   17063   17063       0   17065   17066   17066       0   17068   17069
   17069       0   17071   17072   17072       0   17074   17075   17075       0
   17077   17078   17078       0   17080   17081   17081       0   17083   17084
   17084       0   17086   17087   17087       0   17089   17090   17090       0
   17092   17093   17093       0   17095   17096   17096       0   17098   17099
   17099       0   17101   17102   17102       0   17104   17105   17105       0
   17107   17108   17108       0   17110   17111   17111       0   17113   17114
   17114       0   17116   17117   17117       0   17119   17120   17120       0
   17122   17123   17123       0   17125   17126   17126       0   17128   17129
   17129       0   17131   17132   17132       0   17134   17135   17135       0
   17137   17138   17138       0   17140   17141   17141       0   17143   17144
   17144       0   17146   17147   17147       0   17149   17150   17150       0
   17152   17153   17153       0   17155   17156   17156       0   17158   17159
   17159       0   17161   17162   17162       0   17164   17165   17165       0
   17167   17168   17168       0   17170   17171   17171       0   17173   17174
   17174       0   17176   17177   17177       0   17179   17180   17180       0
   17182   17183   17183       0   17185   17186   17186       0   17188   17189
   17189       0   17191   17192   17192       0   17194   17195   17195       0
   17197   17198   17198       0   17200   17201   17201       0   17203   17204
   17204       0   17206   17207   17207       0   17209   17210   17210       0
   17212   17213   17213       0   17215   17216   17216       0   17218   17219
   17219       0   17221   17222   17222       0   17224   17225   17225       0
   17227   17228   17228       0   17230   17231   17231       0   17233   17234
   17234       0   17236   17237   17237       0   17239   17240   17240       0
   17242   17243   17243       0   17245   17246   17246       0   17248   17249
   17249       0   17251   17252   17252       0   17254   17255   17255       0
   17257   17258   17258       0   17260   17261   17261       0   17263   17264
   17264       0   17266   17267   17267       0   17269   17270   17270       0
   17272   17273   17273       0   17275   17276   17276       0   17278   17279
   17279       0   17281   17282   17282       0   17284   17285   17285       0
   17287   17288   17288       0   17290   17291   17291       0   17293   17294
   17294       0   17296   17297   17297       0   17299   17300   17300       0
   17302   17303   17303       0   17305   17306   17306       0   17308   17309
   17309       0   17311   17312   17312       0   17314   17315   17315       0
   17317   17318   17318       0   17320   17321   17321       0   17323   17324
   17324       0   17326   17327   17327       0   17329   17330   17330       0
   17332   17333   17333       0   17335   17336   17336       0   17338   17339
   17339       0   17341   17342   17342       0   17344   17345   17345       0
   17347   17348   17348       0   17350   17351   17351       0   17353   17354
   17354       0   17356   17357   17357       0   17359   17360   17360       0
   17362   17363   17363       0   17365   17366   17366       0   17368   17369
   17369       0   17371   17372   17372       0   17374   17375   17375       0
   17377   17378   17378       0   17380   17381   17381       0   17383   17384
   17384       0   17386   17387   17387       0   17389   17390   17390       0
   17392   17393   17393       0   17395   17396   17396       0   17398   17399
   17399       0   17401   17402   17402       0   17404   17405   17405       0
   17407   17408   17408       0   17410   17411   17411       0   17413   17414
   17414       0   17416   17417   17417       0   17419   17420   17420       0
   17422   17423   17423       0   17425   17426   17426       0   17428   17429
   17429       0   17431   17432   17432       0   17434   17435   17435       0
   17437   17438   17438       0   17440   17441   17441       0   17443   17444
   17444       0   17446   17447   17447       0   17449   17450   17450       0
   17452   17453   17453       0   17455   17456   17456       0   17458   17459
   17459       0   17461   17462   17462       0   17464   17465   17465       0
   17467   17468   17468       0   17470   17471   17471       0   17473   17474
   17474       0   17476   17477   17477       0   17479   17480   17480       0
   17482   17483   17483       0   17485   17486   17486       0   17488   17489
   17489       0   17491   17492   17492       0   17494   17495   17495       0
   17497   17498   17498       0   17500   17501   17501       0   17503   17504
   17504       0   17506   17507   17507       0   17509   17510   17510       0
   17512   17513   17513       0   17515   17516   17516       0   17518   17519
   17519       0   17521   17522   17522       0   17524   17525   17525       0
   17527   17528   17528       0   17530   17531   17531       0   17533   17534
   17534       0   17536   17537   17537       0   17539   17540   17540       0
   17542   17543   17543       0   17545   17546   17546       0   17548   17549
   17549       0   17551   17552   17552       0   17554   17555   17555       0
   17557   17558   17558       0   17560   17561   17561       0   17563   17564
   17564       0   17566   17567   17567       0   17569   17570   17570       0
   17572   17573   17573       0   17575   17576   17576       0   17578   17579
   17579       0   17581   17582   17582       0   17584   17585   17585       0
   17587   17588   17588       0   17590   17591   17591       0   17593   17594
   17594       0   17596   17597   17597       0   17599   17600   17600       0
   17602   17603   17603       0   17605   17606   17606       0   17608   17609
   17609       0   17611   17612   17612       0   17614   17615   17615       0
   17617   17618   17618       0   17620   17621   17621       0   17623   17624
   17624       0   17626   17627   17627       0   17629   17630   17630       0
   17632   17633   17633       0   17635   17636   17636       0   17638   17639
   17639       0   17641   17642   17642       0   17644   17645   17645       0
   17647   17648   17648       0   17650   17651   17651       0   17653   17654
   17654       0   17656   17657   17657       0   17659   17660   17660       0
   17662   17663   17663       0   17665   17666   17666       0   17668   17669
   17669       0   17671   17672   17672       0   17674   17675   17675       0
   17677   17678   17678       0   17680   17681   17681       0   17683   17684
   17684       0   17686   17687   17687       0   17689   17690   17690       0
   17692   17693   17693       0   17695   17696   17696       0   17698   17699
   17699       0   17701   17702   17702       0   17704   17705   17705       0
   17707   17708   17708       0   17710   17711   17711       0   17713   17714
   17714       0   17716   17717   17717       0   17719   17720   17720       0
   17722   17723   17723       0   17725   17726   17726       0   17728   17729
   17729       0   17731   17732   17732       0   17734   17735   17735       0
   17737   17738   17738       0   17740   17741   17741       0   17743   17744
   17744       0   17746   17747   17747       0   17749   17750   17750       0
   17752   17753   17753       0   17755   17756   17756       0   17758   17759
   17759       0   17761   17762   17762       0   17764   17765   17765       0
   17767   17768   17768       0   17770   17771   17771       0   17773   17774
   17774       0   17776   17777   17777       0   17779   17780   17780       0
   17782   17783   17783       0   17785   17786   17786       0   17788   17789
   17789       0   17791   17792   17792       0   17794   17795   17795       0
   17797   17798   17798       0   17800   17801   17801       0   17803   17804
   17804       0   17806   17807   17807       0   17809   17810   17810       0
   17812   17813   17813       0   17815   17816   17816       0   17818   17819
   17819       0   17821   17822   17822       0   17824   17825   17825       0
   17827   17828   17828       0   17830   17831   17831       0   17833   17834
   17834       0   17836   17837   17837       0   17839   17840   17840       0
   17842   17843   17843       0   17845   17846   17846       0   17848   17849
   17849       0   17851   17852   17852       0   17854   17855   17855       0
   17857   17858   17858       0   17860   17861   17861       0   17863   17864
   17864       0   17866   17867   17867       0   17869   17870   17870       0
   17872   17873   17873       0   17875   17876   17876       0   17878   17879
   17879       0   17881   17882   17882       0   17884   17885   17885       0
   17887   17888   17888       0   17890   17891   17891       0   17893   17894
   17894       0   17896   17897   17897       0   17899   17900   17900       0
   17902   17903   17903       0   17905   17906   17906       0   17908   17909
   17909       0   17911   17912   17912       0   17914   17915   17915       0
   17917   17918   17918       0   17920   17921   17921       0   17923   17924
   17924       0   17926   17927   17927       0   17929   17930   17930       0
   17932   17933   17933       0   17935   17936   17936       0   17938   17939
   17939       0   17941   17942   17942       0   17944   17945   17945       0
   17947   17948   17948       0   17950   17951   17951       0   17953   17954
   17954       0   17956   17957   17957       0   17959   17960   17960       0
   17962   17963   17963       0   17965   17966   17966       0   17968   17969
   17969       0   17971   17972   17972       0   17974   17975   17975       0
   17977   17978   17978       0   17980   17981   17981       0   17983   17984
   17984       0   17986   17987   17987       0   17989   17990   17990       0
   17992   17993   17993       0   17995   17996   17996       0   17998   17999
   17999       0   18001   18002   18002       0   18004   18005   18005       0
   18007   18008   18008       0   18010   18011   18011       0   18013   18014
   18014       0   18016   18017   18017       0   18019   18020   18020       0
   18022   18023   18023       0   18025   18026   18026       0   18028   18029
   18029       0   18031   18032   18032       0   18034   18035   18035       0
   18037   18038   18038       0   18040   18041   18041       0   18043   18044
   18044       0   18046   18047   18047       0   18049   18050   18050       0
   18052   18053   18053       0   18055   18056   18056       0   18058   18059
   18059       0   18061   18062   18062       0   18064   18065   18065       0
   18067   18068   18068       0   18070   18071   18071       0   18073   18074
   18074       0   18076   18077   18077       0   18079   18080   18080       0
   18082   18083   18083       0   18085   18086   18086       0   18088   18089
   18089       0   18091   18092   18092       0   18094   18095   18095       0
   18097   18098   18098       0   18100   18101   18101       0   18103   18104
   18104       0   18106   18107   18107       0   18109   18110   18110       0
   18112   18113   18113       0   18115   18116   18116       0   18118   18119
   18119       0   18121   18122   18122       0   18124   18125   18125       0
   18127   18128   18128       0   18130   18131   18131       0   18133   18134
   18134       0   18136   18137   18137       0   18139   18140   18140       0
   18142   18143   18143       0   18145   18146   18146       0   18148   18149
   18149       0   18151   18152   18152       0   18154   18155   18155       0
   18157   18158   18158       0   18160   18161   18161       0   18163   18164
   18164       0   18166   18167   18167       0   18169   18170   18170       0
   18172   18173   18173       0   18175   18176   18176       0   18178   18179
   18179       0   18181   18182   18182       0   18184   18185   18185       0
   18187   18188   18188       0   18190   18191   18191       0   18193   18194
   18194       0   18196   18197   18197       0   18199   18200   18200       0
   18202   18203   18203       0   18205   18206   18206       0   18208   18209
   18209       0   18211   18212   18212       0   18214   18215   18215       0
   18217   18218   18218       0   18220   18221   18221       0   18223   18224
   18224       0   18226   18227   18227       0   18229   18230   18230       0
   18232   18233   18233       0   18235   18236   18236       0   18238   18239
   18239       0   18241   18242   18242       0   18244   18245   18245       0
   18247   18248   18248       0   18250   18251   18251       0   18253   18254
   18254       0   18256   18257   18257       0   18259   18260   18260       0
   18262   18263   18263       0   18265   18266   18266       0   18268   18269
   18269       0   18271   18272   18272       0   18274   18275   18275       0
   18277   18278   18278       0   18280   18281   18281       0   18283   18284
   18284       0   18286   18287   18287       0   18289   18290   18290       0
   18292   18293   18293       0   18295   18296   18296       0   18298   18299
   18299       0   18301   18302   18302       0   18304   18305   18305       0
   18307   18308   18308       0   18310   18311   18311       0   18313   18314
   18314       0   18316   18317   18317       0   18319   18320   18320       0
   18322   18323   18323       0   18325   18326   18326       0   18328   18329
   18329       0   18331   18332   18332       0   18334   18335   18335       0
   18337   18338   18338       0   18340   18341   18341       0   18343   18344
   18344       0   18346   18347   18347       0   18349   18350   18350       0
   18352   18353   18353       0   18355   18356   18356       0   18358   18359
   18359       0   18361   18362   18362       0   18364   18365   18365       0
   18367   18368   18368       0   18370   18371   18371       0   18373   18374
   18374       0   18376   18377   18377       0   18379   18380   18380       0
   18382   18383   18383       0   18385   18386   18386       0   18388   18389
   18389       0   18391   18392   18392       0   18394   18395   18395       0
   18397   18398   18398       0   18400   18401   18401       0   18403   18404
   18404       0   18406   18407   18407       0   18409   18410   18410       0
   18412   18413   18413       0   18415   18416   18416       0   18418   18419
   18419       0   18421   18422   18422       0   18424   18425   18425       0
   18427   18428   18428       0   18430   18431   18431       0   18433   18434
   18434       0   18436   18437   18437       0   18439   18440   18440       0
   18442   18443   18443       0   18445   18446   18446       0   18448   18449
   18449       0   18451   18452   18452       0   18454   18455   18455       0
   18457   18458   18458       0   18460   18461   18461       0   18463   18464
   18464       0   18466   18467   18467       0   18469   18470   18470       0
   18472   18473   18473       0   18475   18476   18476       0   18478   18479
   18479       0   18481   18482   18482       0   18484   18485   18485       0
   18487   18488   18488       0   18490   18491   18491       0   18493   18494
   18494       0   18496   18497   18497       0   18499   18500   18500       0
   18502   18503   18503       0   18505   18506   18506       0   18508   18509
   18509       0   18511   18512   18512       0   18514   18515   18515       0
   18517   18518   18518       0   18520   18521   18521       0   18523   18524
   18524       0   18526   18527   18527       0   18529   18530   18530       0
   18532   18533   18533       0   18535   18536   18536       0   18538   18539
   18539       0   18541   18542   18542       0   18544   18545   18545       0
   18547   18548   18548       0   18550   18551   18551       0   18553   18554
   18554       0   18556   18557   18557       0   18559   18560   18560       0
   18562   18563   18563       0   18565   18566   18566       0   18568   18569
   18569       0   18571   18572   18572       0   18574   18575   18575       0
   18577   18578   18578       0   18580   18581   18581       0   18583   18584
   18584       0   18586   18587   18587       0   18589   18590   18590       0
   18592   18593   18593       0   18595   18596   18596       0   18598   18599
   18599       0   18601   18602   18602       0   18604   18605   18605       0
   18607   18608   18608       0   18610   18611   18611       0   18613   18614
   18614       0   18616   18617   18617       0   18619   18620   18620       0
   18622   18623   18623       0   18625   18626   18626       0   18628   18629
   18629       0   18631   18632   18632       0   18634   18635   18635       0
   18637   18638   18638       0   18640   18641   18641       0   18643   18644
   18644       0   18646   18647   18647       0   18649   18650   18650       0
   18652   18653   18653       0   18655   18656   18656       0   18658   18659
   18659       0   18661   18662   18662       0   18664   18665   18665       0
   18667   18668   18668       0   18670   18671   18671       0   18673   18674
   18674       0   18676   18677   18677       0   18679   18680   18680       0
   18682   18683   18683       0   18685   18686   18686       0   18688   18689
   18689       0   18691   18692   18692       0   18694   18695   18695       0
   18697   18698   18698       0   18700   18701   18701       0   18703   18704
   18704       0   18706   18707   18707       0   18709   18710   18710       0
   18712   18713   18713       0   18715   18716   18716       0   18718   18719
   18719       0   18721   18722   18722       0   18724   18725   18725       0
   18727   18728   18728       0   18730   18731   18731       0   18733   18734
   18734       0   18736   18737   18737       0   18739   18740   18740       0
   18742   18743   18743       0   18745   18746   18746       0   18748   18749
   18749       0   18751   18752   18752       0   18754   18755   18755       0
   18757   18758   18758       0   18760   18761   18761       0   18763   18764
   18764       0   18766   18767   18767       0   18769   18770   18770       0
   18772   18773   18773       0   18775   18776   18776       0   18778   18779
   18779       0   18781   18782   18782       0   18784   18785   18785       0
   18787   18788   18788       0   18790   18791   18791       0   18793   18794
   18794       0   18796   18797   18797       0   18799   18800   18800       0
   18802   18803   18803       0   18805   18806   18806       0   18808   18809
   18809       0   18811   18812   18812       0   18814   18815   18815       0
   18817   18818   18818       0   18820   18821   18821       0   18823   18824
   18824       0   18826   18827   18827       0   18829   18830   18830       0
   18832   18833   18833       0   18835   18836   18836       0   18838   18839
   18839       0   18841   18842   18842       0   18844   18845   18845       0
   18847   18848   18848       0   18850   18851   18851       0   18853   18854
   18854       0   18856   18857   18857       0   18859   18860   18860       0
   18862   18863   18863       0   18865   18866   18866       0   18868   18869
   18869       0   18871   18872   18872       0   18874   18875   18875       0
   18877   18878   18878       0   18880   18881   18881       0   18883   18884
   18884       0   18886   18887   18887       0   18889   18890   18890       0
   18892   18893   18893       0   18895   18896   18896       0   18898   18899
   18899       0   18901   18902   18902       0   18904   18905   18905       0
   18907   18908   18908       0   18910   18911   18911       0   18913   18914
   18914       0   18916   18917   18917       0   18919   18920   18920       0
   18922   18923   18923       0   18925   18926   18926       0   18928   18929
   18929       0   18931   18932   18932       0   18934   18935   18935       0
   18937   18938   18938       0   18940   18941   18941       0   18943   18944
   18944       0   18946   18947   18947       0   18949   18950   18950       0
   18952   18953   18953       0   18955   18956   18956       0   18958   18959
   18959       0   18961   18962   18962       0   18964   18965   18965       0
   18967   18968   18968       0   18970   18971   18971       0   18973   18974
   18974       0   18976   18977   18977       0   18979   18980   18980       0
   18982   18983   18983       0   18985   18986   18986       0   18988   18989
   18989       0   18991   18992   18992       0   18994   18995   18995       0
   18997   18998   18998       0   19000   19001   19001       0   19003   19004
   19004       0   19006   19007   19007       0   19009   19010   19010       0
   19012   19013   19013       0   19015   19016   19016       0   19018   19019
   19019       0   19021   19022   19022       0   19024   19025   19025       0
   19027   19028   19028       0   19030   19031   19031       0   19033   19034
   19034       0   19036   19037   19037       0   19039   19040   19040       0
   19042   19043   19043       0   19045   19046   19046       0   19048   19049
   19049       0   19051   19052   19052       0   19054   19055   19055       0
   19057   19058   19058       0   19060   19061   19061       0   19063   19064
   19064       0   19066   19067   19067       0   19069   19070   19070       0
   19072   19073   19073       0   19075   19076   19076       0   19078   19079
   19079       0   19081   19082   19082       0   19084   19085   19085       0
   19087   19088   19088       0   19090   19091   19091       0   19093   19094
   19094       0   19096   19097   19097       0   19099   19100   19100       0
   19102   19103   19103       0   19105   19106   19106       0   19108   19109
   19109       0   19111   19112   19112       0   19114   19115   19115       0
   19117   19118   19118       0   19120   19121   19121       0   19123   19124
   19124       0   19126   19127   19127       0   19129   19130   19130       0
   19132   19133   19133       0   19135   19136   19136       0   19138   19139
   19139       0   19141   19142   19142       0   19144   19145   19145       0
   19147   19148   19148       0   19150   19151   19151       0   19153   19154
   19154       0   19156   19157   19157       0   19159   19160   19160       0
   19162   19163   19163       0   19165   19166   19166       0   19168   19169
   19169       0   19171   19172   19172       0   19174   19175   19175       0
   19177   19178   19178       0   19180   19181   19181       0   19183   19184
   19184       0   19186   19187   19187       0   19189   19190   19190       0
   19192   19193   19193       0   19195   19196   19196       0   19198   19199
   19199       0   19201   19202   19202       0   19204   19205   19205       0
   19207   19208   19208       0   19210   19211   19211       0   19213   19214
   19214       0   19216   19217   19217       0   19219   19220   19220       0
   19222   19223   19223       0   19225   19226   19226       0   19228   19229
   19229       0   19231   19232   19232       0   19234   19235   19235       0
   19237   19238   19238       0   19240   19241   19241       0   19243   19244
   19244       0   19246   19247   19247       0   19249   19250   19250       0
   19252   19253   19253       0   19255   19256   19256       0   19258   19259
   19259       0   19261   19262   19262       0   19264   19265   19265       0
   19267   19268   19268       0   19270   19271   19271       0   19273   19274
   19274       0   19276   19277   19277       0   19279   19280   19280       0
   19282   19283   19283       0   19285   19286   19286       0   19288   19289
   19289       0   19291   19292   19292       0   19294   19295   19295       0
   19297   19298   19298       0   19300   19301   19301       0   19303   19304
   19304       0   19306   19307   19307       0   19309   19310   19310       0
   19312   19313   19313       0   19315   19316   19316       0   19318   19319
   19319       0   19321   19322   19322       0   19324   19325   19325       0
   19327   19328   19328       0   19330   19331   19331       0   19333   19334
   19334       0   19336   19337   19337       0   19339   19340   19340       0
   19342   19343   19343       0   19345   19346   19346       0   19348   19349
   19349       0   19351   19352   19352       0   19354   19355   19355       0
   19357   19358   19358       0   19360   19361   19361       0   19363   19364
   19364       0   19366   19367   19367       0   19369   19370   19370       0
   19372   19373   19373       0   19375   19376   19376       0   19378   19379
   19379       0   19381   19382   19382       0   19384   19385   19385       0
   19387   19388   19388       0   19390   19391   19391       0   19393   19394
   19394       0   19396   19397   19397       0   19399   19400   19400       0
   19402   19403   19403       0   19405   19406   19406       0   19408   19409
   19409       0   19411   19412   19412       0   19414   19415   19415       0
   19417   19418   19418       0   19420   19421   19421       0   19423   19424
   19424       0   19426   19427   19427       0   19429   19430   19430       0
   19432   19433   19433       0   19435   19436   19436       0   19438   19439
   19439       0   19441   19442   19442       0   19444   19445   19445       0
   19447   19448   19448       0   19450   19451   19451       0   19453   19454
   19454       0   19456   19457   19457       0   19459   19460   19460       0
   19462   19463   19463       0   19465   19466   19466       0   19468   19469
   19469       0   19471   19472   19472       0   19474   19475   19475       0
   19477   19478   19478       0   19480   19481   19481       0   19483   19484
   19484       0   19486   19487   19487       0   19489   19490   19490       0
   19492   19493   19493       0   19495   19496   19496       0   19498   19499
   19499       0   19501   19502   19502       0   19504   19505   19505       0
   19507   19508   19508       0   19510   19511   19511       0   19513   19514
   19514       0   19516   19517   19517       0   19519   19520   19520       0
   19522   19523   19523       0   19525   19526   19526       0   19528   19529
   19529       0   19531   19532   19532       0   19534   19535   19535       0
   19537   19538   19538       0   19540   19541   19541       0   19543   19544
   19544       0   19546   19547   19547       0   19549   19550   19550       0
   19552   19553   19553       0   19555   19556   19556       0   19558   19559
   19559       0   19561   19562   19562       0   19564   19565   19565       0
   19567   19568   19568       0   19570   19571   19571       0   19573   19574
   19574       0   19576   19577   19577       0   19579   19580   19580       0
   19582   19583   19583       0   19585   19586   19586       0   19588   19589
   19589       0   19591   19592   19592       0   19594   19595   19595       0
   19597   19598   19598       0   19600   19601   19601       0   19603   19604
   19604       0   19606   19607   19607       0   19609   19610   19610       0
   19612   19613   19613       0   19615   19616   19616       0   19618   19619
   19619       0   19621   19622   19622       0   19624   19625   19625       0
   19627   19628   19628       0   19630   19631   19631       0   19633   19634
   19634       0   19636   19637   19637       0   19639   19640   19640       0
   19642   19643   19643       0   19645   19646   19646       0   19648   19649
   19649       0   19651   19652   19652       0   19654   19655   19655       0
   19657   19658   19658       0   19660   19661   19661       0   19663   19664
   19664       0   19666   19667   19667       0   19669   19670   19670       0
   19672   19673   19673       0   19675   19676   19676       0   19678   19679
   19679       0   19681   19682   19682       0   19684   19685   19685       0
   19687   19688   19688       0   19690   19691   19691       0   19693   19694
   19694       0   19696   19697   19697       0   19699   19700   19700       0
   19702   19703   19703       0   19705   19706   19706       0   19708   19709
   19709       0   19711   19712   19712       0   19714   19715   19715       0
   19717   19718   19718       0   19720   19721   19721       0   19723   19724
   19724       0   19726   19727   19727       0   19729   19730   19730       0
   19732   19733   19733       0   19735   19736   19736       0   19738   19739
   19739       0   19741   19742   19742       0   19744   19745   19745       0
   19747   19748   19748       0   19750   19751   19751       0   19753   19754
   19754       0   19756   19757   19757       0   19759   19760   19760       0
   19762   19763   19763       0   19765   19766   19766       0   19768   19769
   19769       0   19771   19772   19772       0   19774   19775   19775       0
   19777   19778   19778       0   19780   19781   19781       0   19783   19784
   19784       0   19786   19787   19787       0   19789   19790   19790       0
   19792   19793   19793       0   19795   19796   19796       0   19798   19799
   19799       0   19801   19802   19802       0   19804   19805   19805       0
   19807   19808   19808       0   19810   19811   19811       0   19813   19814
   19814       0   19816   19817   19817       0   19819   19820   19820       0
   19822   19823   19823       0   19825   19826   19826       0   19828   19829
   19829       0   19831   19832   19832       0   19834   19835   19835       0
   19837   19838   19838       0   19840   19841   19841       0   19843   19844
   19844       0   19846   19847   19847       0   19849   19850   19850       0
   19852   19853   19853       0   19855   19856   19856       0   19858   19859
   19859       0   19861   19862   19862       0   19864   19865   19865       0
   19867   19868   19868       0   19870   19871   19871       0   19873   19874
   19874       0   19876   19877   19877       0   19879   19880   19880       0
   19882   19883   19883       0   19885   19886   19886       0   19888   19889
   19889       0   19891   19892   19892       0   19894   19895   19895       0
   19897   19898   19898       0   19900   19901   19901       0   19903   19904
   19904       0   19906   19907   19907       0   19909   19910   19910       0
   19912   19913   19913       0   19915   19916   19916       0   19918   19919
   19919       0   19921   19922   19922       0   19924   19925   19925       0
   19927   19928   19928       0   19930   19931   19931       0   19933   19934
   19934       0   19936   19937   19937       0   19939   19940   19940       0
   19942   19943   19943       0   19945   19946   19946       0   19948   19949
   19949       0   19951   19952   19952       0   19954   19955   19955       0
   19957   19958   19958       0   19960   19961   19961       0   19963   19964
   19964       0   19966   19967   19967       0   19969   19970   19970       0
   19972   19973   19973       0   19975   19976   19976       0   19978   19979
   19979       0   19981   19982   19982       0   19984   19985   19985       0
   19987   19988   19988       0   19990   19991   19991       0   19993   19994
   19994       0   19996   19997   19997       0   19999   20000   20000       0
   20002   20003   20003       0   20005   20006   20006       0   20008   20009
   20009       0   20011   20012   20012       0   20014   20015   20015       0
   20017   20018   20018       0   20020   20021   20021       0   20023   20024
   20024       0   20026   20027   20027       0   20029   20030   20030       0
   20032   20033   20033       0   20035   20036   20036       0   20038   20039
   20039       0   20041   20042   20042       0   20044   20045   20045       0
   20047   20048   20048       0   20050   20051   20051       0   20053   20054
   20054       0   20056   20057   20057       0   20059   20060   20060       0
   20062   20063   20063       0   20065   20066   20066       0   20068   20069
   20069       0   20071   20072   20072       0   20074   20075   20075       0
   20077   20078   20078       0   20080   20081   20081       0   20083   20084
   20084       0   20086   20087   20087       0   20089   20090   20090       0
   20092   20093   20093       0   20095   20096   20096       0   20098   20099
   20099       0   20101   20102   20102       0   20104   20105   20105       0
   20107   20108   20108       0   20110   20111   20111       0   20113   20114
   20114       0   20116   20117   20117       0   20119   20120   20120       0
   20122   20123   20123       0   20125   20126   20126       0   20128   20129
   20129       0   20131   20132   20132       0   20134   20135   20135       0
   20137   20138   20138       0   20140   20141   20141       0   20143   20144
   20144       0   20146   20147   20147       0   20149   20150   20150       0
   20152   20153   20153       0   20155   20156   20156       0   20158   20159
   20159       0   20161   20162   20162       0   20164   20165   20165       0
   20167   20168   20168       0   20170   20171   20171       0   20173   20174
   20174       0   20176   20177   20177       0   20179   20180   20180       0
   20182   20183   20183       0   20185   20186   20186       0   20188   20189
   20189       0   20191   20192   20192       0   20194   20195   20195       0
   20197   20198   20198       0   20200   20201   20201       0   20203   20204
   20204       0   20206   20207   20207       0   20209   20210   20210       0
   20212   20213   20213       0   20215   20216   20216       0   20218   20219
   20219       0   20221   20222   20222       0   20224   20225   20225       0
   20227   20228   20228       0   20230   20231   20231       0   20233   20234
   20234       0   20236   20237   20237       0   20239   20240   20240       0
   20242   20243   20243       0   20245   20246   20246       0   20248   20249
   20249       0   20251   20252   20252       0   20254   20255   20255       0
   20257   20258   20258       0   20260   20261   20261       0   20263   20264
   20264       0   20266   20267   20267       0   20269   20270   20270       0
   20272   20273   20273       0   20275   20276   20276       0   20278   20279
   20279       0   20281   20282   20282       0   20284   20285   20285       0
   20287   20288   20288       0   20290   20291   20291       0   20293   20294
   20294       0   20296   20297   20297       0   20299   20300   20300       0
   20302   20303   20303       0   20305   20306   20306       0   20308   20309
   20309       0   20311   20312   20312       0   20314   20315   20315       0
   20317   20318   20318       0   20320   20321   20321       0   20323   20324
   20324       0   20326   20327   20327       0   20329   20330   20330       0
   20332   20333   20333       0   20335   20336   20336       0   20338   20339
   20339       0   20341   20342   20342       0   20344   20345   20345       0
   20347   20348   20348       0   20350   20351   20351       0   20353   20354
   20354       0   20356   20357   20357       0   20359   20360   20360       0
   20362   20363   20363       0   20365   20366   20366       0   20368   20369
   20369       0   20371   20372   20372       0   20374   20375   20375       0
   20377   20378   20378       0   20380   20381   20381       0   20383   20384
   20384       0   20386   20387   20387       0   20389   20390   20390       0
   20392   20393   20393       0   20395   20396   20396       0   20398   20399
   20399       0   20401   20402   20402       0   20404   20405   20405       0
   20407   20408   20408       0   20410   20411   20411       0   20413   20414
   20414       0   20416   20417   20417       0   20419   20420   20420       0
   20422   20423   20423       0   20425   20426   20426       0   20428   20429
   20429       0   20431   20432   20432       0   20434   20435   20435       0
   20437   20438   20438       0   20440   20441   20441       0   20443   20444
   20444       0   20446   20447   20447       0   20449   20450   20450       0
   20452   20453   20453       0   20455   20456   20456       0   20458   20459
   20459       0   20461   20462   20462       0   20464   20465   20465       0
   20467   20468   20468       0   20470   20471   20471       0   20473   20474
   20474       0   20476   20477   20477       0   20479   20480   20480       0
   20482   20483   20483       0   20485   20486   20486       0   20488   20489
   20489       0   20491   20492   20492       0   20494   20495   20495       0
   20497   20498   20498       0   20500   20501   20501       0   20503   20504
   20504       0   20506   20507   20507       0   20509   20510   20510       0
   20512   20513   20513       0   20515   20516   20516       0   20518   20519
   20519       0   20521   20522   20522       0   20524   20525   20525       0
   20527   20528   20528       0   20530   20531   20531       0   20533   20534
   20534       0   20536   20537   20537       0   20539   20540   20540       0
   20542   20543   20543       0   20545   20546   20546       0   20548   20549
   20549       0   20551   20552   20552       0   20554   20555   20555       0
   20557   20558   20558       0   20560   20561   20561       0   20563   20564
   20564       0   20566   20567   20567       0   20569   20570   20570       0
   20572   20573   20573       0   20575   20576   20576       0   20578   20579
   20579       0   20581   20582   20582       0   20584   20585   20585       0
   20587   20588   20588       0   20590   20591   20591       0   20593   20594
   20594       0   20596   20597   20597       0   20599   20600   20600       0
   20602   20603   20603       0   20605   20606   20606       0   20608   20609
   20609       0   20611   20612   20612       0   20614   20615   20615       0
   20617   20618   20618       0   20620   20621   20621       0   20623   20624
   20624       0   20626   20627   20627       0   20629   20630   20630       0
   20632   20633   20633       0   20635   20636   20636       0   20638   20639
   20639       0   20641   20642   20642       0   20644   20645   20645       0
   20647   20648   20648       0   20650   20651   20651       0   20653   20654
   20654       0   20656   20657   20657       0   20659   20660   20660       0
   20662   20663   20663       0   20665   20666   20666       0   20668   20669
   20669       0   20671   20672   20672       0   20674   20675   20675       0
   20677   20678   20678       0   20680   20681   20681       0   20683   20684
   20684       0   20686   20687   20687       0   20689   20690   20690       0
   20692   20693   20693       0   20695   20696   20696       0   20698   20699
   20699       0   20701   20702   20702       0   20704   20705   20705       0
   20707   20708   20708       0   20710   20711   20711       0   20713   20714
   20714       0   20716   20717   20717       0   20719   20720   20720       0
   20722   20723   20723       0   20725   20726   20726       0   20728   20729
   20729       0   20731   20732   20732       0   20734   20735   20735       0
   20737   20738   20738       0   20740   20741   20741       0   20743   20744
   20744       0   20746   20747   20747       0   20749   20750   20750       0
   20752   20753   20753       0   20755   20756   20756       0   20758   20759
   20759       0   20761   20762   20762       0   20764   20765   20765       0
   20767   20768   20768       0   20770   20771   20771       0   20773   20774
   20774       0   20776   20777   20777       0   20779   20780   20780       0
   20782   20783   20783       0   20785   20786   20786       0   20788   20789
   20789       0   20791   20792   20792       0   20794   20795   20795       0
   20797   20798   20798       0   20800   20801   20801       0   20803   20804
   20804       0   20806   20807   20807       0   20809   20810   20810       0
   20812   20813   20813       0   20815   20816   20816       0   20818   20819
   20819       0   20821   20822   20822       0   20824   20825   20825       0
   20827   20828   20828       0   20830   20831   20831       0   20833   20834
   20834       0   20836   20837   20837       0   20839   20840   20840       0
   20842   20843   20843       0   20845   20846   20846       0   20848   20849
   20849       0   20851   20852   20852       0   20854   20855   20855       0
   20857   20858   20858       0   20860   20861   20861       0   20863   20864
   20864       0   20866   20867   20867       0   20869   20870   20870       0
   20872   20873   20873       0   20875   20876   20876       0   20878   20879
   20879       0   20881   20882   20882       0   20884   20885   20885       0
   20887   20888   20888       0   20890   20891   20891       0   20893   20894
   20894       0   20896   20897   20897       0   20899   20900   20900       0
   20902   20903   20903       0   20905   20906   20906       0   20908   20909
   20909       0   20911   20912   20912       0   20914   20915   20915       0
   20917   20918   20918       0   20920   20921   20921       0   20923   20924
   20924       0   20926   20927   20927       0   20929   20930   20930       0
   20932   20933   20933       0   20935   20936   20936       0   20938   20939
   20939       0   20941   20942   20942       0   20944   20945   20945       0
   20947   20948   20948       0   20950   20951   20951       0   20953   20954
   20954       0   20956   20957   20957       0   20959   20960   20960       0
   20962   20963   20963       0   20965   20966   20966       0   20968   20969
   20969       0   20971   20972   20972       0   20974   20975   20975       0
   20977   20978   20978       0   20980   20981   20981       0   20983   20984
   20984       0   20986   20987   20987       0   20989   20990   20990       0
   20992   20993   20993       0   20995   20996   20996       0   20998   20999
   20999       0   21001   21002   21002       0   21004   21005   21005       0
   21007   21008   21008       0   21010   21011   21011       0   21013   21014
   21014       0   21016   21017   21017       0   21019   21020   21020       0
   21022   21023   21023       0   21025   21026   21026       0   21028   21029
   21029       0   21031   21032   21032       0   21034   21035   21035       0
   21037   21038   21038       0   21040   21041   21041       0   21043   21044
   21044       0   21046   21047   21047       0   21049   21050   21050       0
   21052   21053   21053       0   21055   21056   21056       0   21058   21059
   21059       0   21061   21062   21062       0   21064   21065   21065       0
   21067   21068   21068       0   21070   21071   21071       0   21073   21074
   21074       0   21076   21077   21077       0   21079   21080   21080       0
   21082   21083   21083       0   21085   21086   21086       0   21088   21089
   21089       0   21091   21092   21092       0   21094   21095   21095       0
   21097   21098   21098       0   21100   21101   21101       0   21103   21104
   21104       0   21106   21107   21107       0   21109   21110   21110       0
   21112   21113   21113       0   21115   21116   21116       0   21118   21119
   21119       0   21121   21122   21122       0   21124   21125   21125       0
   21127   21128   21128       0   21130   21131   21131       0   21133   21134
   21134       0   21136   21137   21137       0   21139   21140   21140       0
   21142   21143   21143       0   21145   21146   21146       0   21148   21149
   21149       0   21151   21152   21152       0   21154   21155   21155       0
   21157   21158   21158       0   21160   21161   21161       0   21163   21164
   21164       0   21166   21167   21167       0   21169   21170   21170       0
   21172   21173   21173       0   21175   21176   21176       0   21178   21179
   21179       0   21181   21182   21182       0   21184   21185   21185       0
   21187   21188   21188       0   21190   21191   21191       0   21193   21194
   21194       0   21196   21197   21197       0   21199   21200   21200       0
   21202   21203   21203       0   21205   21206   21206       0   21208   21209
   21209       0   21211   21212   21212       0   21214   21215   21215       0
   21217   21218   21218       0   21220   21221   21221       0   21223   21224
   21224       0   21226   21227   21227       0   21229   21230   21230       0
   21232   21233   21233       0   21235   21236   21236       0   21238   21239
   21239       0   21241   21242   21242       0   21244   21245   21245       0
   21247   21248   21248       0   21250   21251   21251       0   21253   21254
   21254       0   21256   21257   21257       0   21259   21260   21260       0
   21262   21263   21263       0   21265   21266   21266       0   21268   21269
   21269       0   21271   21272   21272       0   21274   21275   21275       0
   21277   21278   21278       0   21280   21281   21281       0   21283   21284
   21284       0   21286   21287   21287       0   21289   21290   21290       0
   21292   21293   21293       0   21295   21296   21296       0   21298   21299
   21299       0   21301   21302   21302       0   21304   21305   21305       0
   21307   21308   21308       0   21310   21311   21311       0   21313   21314
   21314       0   21316   21317   21317       0   21319   21320   21320       0
   21322   21323   21323       0   21325   21326   21326       0   21328   21329
   21329       0   21331   21332   21332       0   21334   21335   21335       0
   21337   21338   21338       0   21340   21341   21341       0   21343   21344
   21344       0   21346   21347   21347       0   21349   21350   21350       0
   21352   21353   21353       0   21355   21356   21356       0   21358   21359
   21359       0   21361   21362   21362       0   21364   21365   21365       0
   21367   21368   21368       0   21370   21371   21371       0   21373   21374
   21374       0   21376   21377   21377       0   21379   21380   21380       0
   21382   21383   21383       0   21385   21386   21386       0   21388   21389
   21389       0   21391   21392   21392       0   21394   21395   21395       0
   21397   21398   21398       0   21400   21401   21401       0   21403   21404
   21404       0   21406   21407   21407       0   21409   21410   21410       0
   21412   21413   21413       0   21415   21416   21416       0   21418   21419
   21419       0   21421   21422   21422       0   21424   21425   21425       0
   21427   21428   21428       0   21430   21431   21431       0   21433   21434
   21434       0   21436   21437   21437       0   21439   21440   21440       0
   21442   21443   21443       0   21445   21446   21446       0   21448   21449
   21449       0   21451   21452   21452       0   21454   21455   21455       0
   21457   21458   21458       0   21460   21461   21461       0   21463   21464
   21464       0   21466   21467   21467       0   21469   21470   21470       0
   21472   21473   21473       0   21475   21476   21476       0   21478   21479
   21479       0   21481   21482   21482       0   21484   21485   21485       0
   21487   21488   21488       0   21490   21491   21491       0   21493   21494
   21494       0   21496   21497   21497       0   21499   21500   21500       0
   21502   21503   21503       0   21505   21506   21506       0   21508   21509
   21509       0   21511   21512   21512       0   21514   21515   21515       0
   21517   21518   21518       0   21520   21521   21521       0   21523   21524
   21524       0   21526   21527   21527       0   21529   21530   21530       0
   21532   21533   21533       0   21535   21536   21536       0   21538   21539
   21539       0   21541   21542   21542       0   21544   21545   21545       0
   21547   21548   21548       0   21550   21551   21551       0   21553   21554
   21554       0   21556   21557   21557       0   21559   21560   21560       0
   21562   21563   21563       0   21565   21566   21566       0   21568   21569
   21569       0   21571   21572   21572       0   21574   21575   21575       0
   21577   21578   21578       0   21580   21581   21581       0   21583   21584
   21584       0   21586   21587   21587       0   21589   21590   21590       0
   21592   21593   21593       0   21595   21596   21596       0   21598   21599
   21599       0   21601   21602   21602       0   21604   21605   21605       0
   21607   21608   21608       0   21610   21611   21611       0   21613   21614
   21614       0   21616   21617   21617       0   21619   21620   21620       0
   21622   21623   21623       0   21625   21626   21626       0   21628   21629
   21629       0   21631   21632   21632       0   21634   21635   21635       0
   21637   21638   21638       0   21640   21641   21641       0   21643   21644
   21644       0   21646   21647   21647       0   21649   21650   21650       0
   21652   21653   21653       0   21655   21656   21656       0   21658   21659
   21659       0   21661   21662   21662       0   21664   21665   21665       0
   21667   21668   21668       0   21670   21671   21671       0   21673   21674
   21674       0   21676   21677   21677       0   21679   21680   21680       0
   21682   21683   21683       0   21685   21686   21686       0   21688   21689
   21689       0   21691   21692   21692       0   21694   21695   21695       0
   21697   21698   21698       0   21700   21701   21701       0   21703   21704
   21704       0   21706   21707   21707       0   21709   21710   21710       0
   21712   21713   21713       0   21715   21716   21716       0   21718   21719
   21719       0   21721   21722   21722       0   21724   21725   21725       0
   21727   21728   21728       0   21730   21731   21731       0   21733   21734
   21734       0   21736   21737   21737       0   21739   21740   21740       0
   21742   21743   21743       0   21745   21746   21746       0   21748   21749
   21749       0   21751   21752   21752       0   21754   21755   21755       0
   21757   21758   21758       0   21760   21761   21761       0   21763   21764
   21764       0   21766   21767   21767       0   21769   21770   21770       0
   21772   21773   21773       0   21775   21776   21776       0   21778   21779
   21779       0   21781   21782   21782       0   21784   21785   21785       0
   21787   21788   21788       0   21790   21791   21791       0   21793   21794
   21794       0   21796   21797   21797       0   21799   21800   21800       0
   21802   21803   21803       0   21805   21806   21806       0   21808   21809
   21809       0   21811   21812   21812       0   21814   21815   21815       0
   21817   21818   21818       0   21820   21821   21821       0   21823   21824
   21824       0   21826   21827   21827       0   21829   21830   21830       0
   21832   21833   21833       0   21835   21836   21836       0   21838   21839
   21839       0   21841   21842   21842       0   21844   21845   21845       0
   21847   21848   21848       0   21850   21851   21851       0   21853   21854
   21854       0   21856   21857   21857       0   21859   21860   21860       0
   21862   21863   21863       0   21865   21866   21866       0   21868   21869
   21869       0   21871   21872   21872       0   21874   21875   21875       0
   21877   21878   21878       0   21880   21881   21881       0   21883   21884
   21884       0   21886   21887   21887       0   21889   21890   21890       0
   21892   21893   21893       0   21895   21896   21896       0   21898   21899
   21899       0   21901   21902   21902       0   21904   21905   21905       0
   21907   21908   21908       0   21910   21911   21911       0   21913   21914
   21914       0   21916   21917   21917       0   21919   21920   21920       0
   21922   21923   21923       0   21925   21926   21926       0   21928   21929
   21929       0   21931   21932   21932       0   21934   21935   21935       0
   21937   21938   21938       0   21940   21941   21941       0   21943   21944
   21944       0   21946   21947   21947       0   21949   21950   21950       0
   21952   21953   21953       0   21955   21956   21956       0   21958   21959
   21959       0   21961   21962   21962       0   21964   21965   21965       0
   21967   21968   21968       0   21970   21971   21971       0   21973   21974
   21974       0   21976   21977   21977       0   21979   21980   21980       0
   21982   21983   21983       0   21985   21986   21986       0   21988   21989
   21989       0   21991   21992   21992       0   21994   21995   21995       0
   21997   21998   21998       0   22000   22001   22001       0   22003   22004
   22004       0   22006   22007   22007       0   22009   22010   22010       0
   22012   22013   22013       0   22015   22016   22016       0   22018   22019
   22019       0   22021   22022   22022       0   22024   22025   22025       0
   22027   22028   22028       0   22030   22031   22031       0   22033   22034
   22034       0   22036   22037   22037       0   22039   22040   22040       0
   22042   22043   22043       0   22045   22046   22046       0   22048   22049
   22049       0   22051   22052   22052       0   22054   22055   22055       0
   22057   22058   22058       0   22060   22061   22061       0   22063   22064
   22064       0   22066   22067   22067       0   22069   22070   22070       0
   22072   22073   22073       0   22075   22076   22076       0   22078   22079
   22079       0   22081   22082   22082       0   22084   22085   22085       0
   22087   22088   22088       0   22090   22091   22091       0   22093   22094
   22094       0   22096   22097   22097       0   22099   22100   22100       0
   22102   22103   22103       0   22105   22106   22106       0   22108   22109
   22109       0   22111   22112   22112       0   22114   22115   22115       0
   22117   22118   22118       0   22120   22121   22121       0   22123   22124
   22124       0   22126   22127   22127       0   22129   22130   22130       0
   22132   22133   22133       0   22135   22136   22136       0   22138   22139
   22139       0   22141   22142   22142       0   22144   22145   22145       0
   22147   22148   22148       0   22150   22151   22151       0   22153   22154
   22154       0   22156   22157   22157       0   22159   22160   22160       0
   22162   22163   22163       0   22165   22166   22166       0   22168   22169
   22169       0   22171   22172   22172       0   22174   22175   22175       0
   22177   22178   22178       0   22180   22181   22181       0   22183   22184
   22184       0   22186   22187   22187       0   22189   22190   22190       0
   22192   22193   22193       0   22195   22196   22196       0   22198   22199
   22199       0   22201   22202   22202       0   22204   22205   22205       0
   22207   22208   22208       0   22210   22211   22211       0   22213   22214
   22214       0   22216   22217   22217       0   22219   22220   22220       0
   22222   22223   22223       0   22225   22226   22226       0   22228   22229
   22229       0   22231   22232   22232       0   22234   22235   22235       0
   22237   22238   22238       0   22240   22241   22241       0   22243   22244
   22244       0   22246   22247   22247       0   22249   22250   22250       0
   22252   22253   22253       0   22255   22256   22256       0   22258   22259
   22259       0   22261   22262   22262       0   22264   22265   22265       0
   22267   22268   22268       0   22270   22271   22271       0   22273   22274
   22274       0   22276   22277   22277       0   22279   22280   22280       0
   22282   22283   22283       0   22285   22286   22286       0   22288   22289
   22289       0   22291   22292   22292       0   22294   22295   22295       0
   22297   22298   22298       0   22300   22301   22301       0   22303   22304
   22304       0   22306   22307   22307       0   22309   22310   22310       0
   22312   22313   22313       0   22315   22316   22316       0   22318   22319
   22319       0   22321   22322   22322       0   22324   22325   22325       0
   22327   22328   22328       0   22330   22331   22331       0   22333   22334
   22334       0   22336   22337   22337       0   22339   22340   22340       0
   22342   22343   22343       0   22345   22346   22346       0   22348   22349
   22349       0   22351   22352   22352       0   22354   22355   22355       0
   22357   22358   22358       0   22360   22361   22361       0   22363   22364
   22364       0   22366   22367   22367       0   22369   22370   22370       0
   22372   22373   22373       0   22375   22376   22376       0   22378   22379
   22379       0   22381   22382   22382       0   22384   22385   22385       0
   22387   22388   22388       0   22390   22391   22391       0   22393   22394
   22394       0   22396   22397   22397       0   22399   22400   22400       0
   22402   22403   22403       0   22405   22406   22406       0   22408   22409
   22409       0   22411   22412   22412       0   22414   22415   22415       0
   22417   22418   22418       0   22420   22421   22421       0   22423   22424
   22424       0   22426   22427   22427       0   22429   22430   22430       0
   22432   22433   22433       0   22435   22436   22436       0   22438   22439
   22439       0   22441   22442   22442       0   22444   22445   22445       0
   22447   22448   22448       0   22450   22451   22451       0   22453   22454
   22454       0   22456   22457   22457       0   22459   22460   22460       0
   22462   22463   22463       0   22465   22466   22466       0   22468   22469
   22469       0   22471   22472   22472       0   22474   22475   22475       0
   22477   22478   22478       0   22480   22481   22481       0   22483   22484
   22484       0   22486   22487   22487       0   22489   22490   22490       0
   22492   22493   22493       0   22495   22496   22496       0   22498   22499
   22499       0   22501   22502   22502       0   22504   22505   22505       0
   22507   22508   22508       0   22510   22511   22511       0   22513   22514
   22514       0   22516   22517   22517       0   22519   22520   22520       0
   22522   22523   22523       0   22525   22526   22526       0   22528   22529
   22529       0   22531   22532   22532       0   22534   22535   22535       0
   22537   22538   22538       0   22540   22541   22541       0   22543   22544
   22544       0   22546   22547   22547       0   22549   22550   22550       0
   22552   22553   22553       0   22555   22556   22556       0   22558   22559
   22559       0   22561   22562   22562       0   22564   22565   22565       0
   22567   22568   22568       0   22570   22571   22571       0   22573   22574
   22574       0   22576   22577   22577       0   22579   22580   22580       0
   22582   22583   22583       0   22585   22586   22586       0   22588   22589
   22589       0   22591   22592   22592       0   22594   22595   22595       0
   22597   22598   22598       0   22600   22601   22601       0   22603   22604
   22604       0   22606   22607   22607       0   22609   22610   22610       0
   22612   22613   22613       0   22615   22616   22616       0   22618   22619
   22619       0   22621   22622   22622       0   22624   22625   22625       0
   22627   22628   22628       0   22630   22631   22631       0   22633   22634
   22634       0   22636   22637   22637       0   22639   22640   22640       0
   22642   22643   22643       0   22645   22646   22646       0   22648   22649
   22649       0   22651   22652   22652       0   22654   22655   22655       0
   22657   22658   22658       0   22660   22661   22661       0   22663   22664
   22664       0   22666   22667   22667       0   22669   22670   22670       0
   22672   22673   22673       0   22675   22676   22676       0   22678   22679
   22679       0   22681   22682   22682       0   22684   22685   22685       0
   22687   22688   22688       0   22690   22691   22691       0   22693   22694
   22694       0   22696   22697   22697       0   22699   22700   22700       0
   22702   22703   22703       0   22705   22706   22706       0   22708   22709
   22709       0   22711   22712   22712       0   22714   22715   22715       0
   22717   22718   22718       0   22720   22721   22721       0   22723   22724
   22724       0   22726   22727   22727       0   22729   22730   22730       0
   22732   22733   22733       0   22735   22736   22736       0   22738   22739
   22739       0   22741   22742   22742       0   22744   22745   22745       0
   22747   22748   22748       0   22750   22751   22751       0   22753   22754
   22754       0   22756   22757   22757       0   22759   22760   22760       0
   22762   22763   22763       0   22765   22766   22766       0   22768   22769
   22769       0   22771   22772   22772       0   22774   22775   22775       0
   22777   22778   22778       0   22780   22781   22781       0   22783   22784
   22784       0   22786   22787   22787       0   22789   22790   22790       0
   22792   22793   22793       0   22795   22796   22796       0   22798   22799
   22799       0   22801   22802   22802       0   22804   22805   22805       0
   22807   22808   22808       0   22810   22811   22811       0   22813   22814
   22814       0   22816   22817   22817       0   22819   22820   22820       0
   22822   22823   22823       0   22825   22826   22826       0   22828   22829
   22829       0   22831   22832   22832       0   22834   22835   22835       0
   22837   22838   22838       0   22840   22841   22841       0   22843   22844
   22844       0   22846   22847   22847       0   22849   22850   22850       0
   22852   22853   22853       0   22855   22856   22856       0   22858   22859
   22859       0   22861   22862   22862       0   22864   22865   22865       0
   22867   22868   22868       0   22870   22871   22871       0   22873   22874
   22874       0   22876   22877   22877       0   22879   22880   22880       0
   22882   22883   22883       0   22885   22886   22886       0   22888   22889
   22889       0   22891   22892   22892       0   22894   22895   22895       0
   22897   22898   22898       0   22900   22901   22901       0   22903   22904
   22904       0   22906   22907   22907       0   22909   22910   22910       0
   22912   22913   22913       0   22915   22916   22916       0   22918   22919
   22919       0   22921   22922   22922       0   22924   22925   22925       0
   22927   22928   22928       0   22930   22931   22931       0   22933   22934
   22934       0   22936   22937   22937       0   22939   22940   22940       0
   22942   22943   22943       0   22945   22946   22946       0   22948   22949
   22949       0   22951   22952   22952       0   22954   22955   22955       0
   22957   22958   22958       0   22960   22961   22961       0   22963   22964
   22964       0   22966   22967   22967       0   22969   22970   22970       0
   22972   22973   22973       0   22975   22976   22976       0   22978   22979
   22979       0   22981   22982   22982       0   22984   22985   22985       0
   22987   22988   22988       0   22990   22991   22991       0   22993   22994
   22994       0   22996   22997   22997       0   22999   23000   23000       0
   23002   23003   23003       0   23005   23006   23006       0   23008   23009
   23009       0   23011   23012   23012       0   23014   23015   23015       0
   23017   23018   23018       0   23020   23021   23021       0   23023   23024
   23024       0   23026   23027   23027       0   23029   23030   23030       0
   23032   23033   23033       0   23035   23036   23036       0   23038   23039
   23039       0   23041   23042   23042       0   23044   23045   23045       0
   23047   23048   23048       0   23050   23051   23051       0   23053   23054
   23054       0   23056   23057   23057       0   23059   23060   23060       0
   23062   23063   23063       0   23065   23066   23066       0   23068   23069
   23069       0   23071   23072   23072       0   23074   23075   23075       0
   23077   23078   23078       0   23080   23081   23081       0   23083   23084
   23084       0   23086   23087   23087       0   23089   23090   23090       0
   23092   23093   23093       0   23095   23096   23096       0   23098   23099
   23099       0   23101   23102   23102       0   23104   23105   23105       0
   23107   23108   23108       0   23110   23111   23111       0   23113   23114
   23114       0   23116   23117   23117       0   23119   23120   23120       0
   23122   23123   23123       0   23125   23126   23126       0   23128   23129
   23129       0   23131   23132   23132       0   23134   23135   23135       0
   23137   23138   23138       0   23140   23141   23141       0   23143   23144
   23144       0   23146   23147   23147       0   23149   23150   23150       0
   23152   23153   23153       0   23155   23156   23156       0   23158   23159
   23159       0   23161   23162   23162       0   23164   23165   23165       0
   23167   23168   23168       0   23170   23171   23171       0   23173   23174
   23174       0   23176   23177   23177       0   23179   23180   23180       0
   23182   23183   23183       0   23185   23186   23186       0   23188   23189
   23189       0   23191   23192   23192       0   23194   23195   23195       0
   23197   23198   23198       0   23200   23201   23201       0   23203   23204
   23204       0   23206   23207   23207       0   23209   23210   23210       0
   23212   23213   23213       0   23215   23216   23216       0   23218   23219
   23219       0   23221   23222   23222       0   23224   23225   23225       0
   23227   23228   23228       0   23230   23231   23231       0   23233   23234
   23234       0   23236   23237   23237       0   23239   23240   23240       0
   23242   23243   23243       0   23245   23246   23246       0   23248   23249
   23249       0   23251   23252   23252       0   23254   23255   23255       0
   23257   23258   23258       0   23260   23261   23261       0   23263   23264
   23264       0   23266   23267   23267       0   23269   23270   23270       0
   23272   23273   23273       0   23275   23276   23276       0   23278   23279
   23279       0   23281   23282   23282       0   23284   23285   23285       0
   23287   23288   23288       0   23290   23291   23291       0   23293   23294
   23294       0   23296   23297   23297       0   23299   23300   23300       0
   23302   23303   23303       0   23305   23306   23306       0   23308   23309
   23309       0   23311   23312   23312       0   23314   23315   23315       0
   23317   23318   23318       0   23320   23321   23321       0   23323   23324
   23324       0   23326   23327   23327       0   23329   23330   23330       0
   23332   23333   23333       0   23335   23336   23336       0   23338   23339
   23339       0   23341   23342   23342       0   23344   23345   23345       0
   23347   23348   23348       0   23350   23351   23351       0   23353   23354
   23354       0   23356   23357   23357       0   23359   23360   23360       0
   23362   23363   23363       0   23365   23366   23366       0   23368   23369
   23369       0   23371   23372   23372       0   23374   23375   23375       0
   23377   23378   23378       0   23380   23381   23381       0   23383   23384
   23384       0   23386   23387   23387       0   23389   23390   23390       0
   23392   23393   23393       0   23395   23396   23396       0   23398   23399
   23399       0   23401   23402   23402       0   23404   23405   23405       0
   23407   23408   23408       0   23410   23411   23411       0   23413   23414
   23414       0   23416   23417   23417       0   23419   23420   23420       0
   23422   23423   23423       0   23425   23426   23426       0   23428   23429
   23429       0   23431   23432   23432       0   23434   23435   23435       0
   23437   23438   23438       0   23440   23441   23441       0   23443   23444
   23444       0   23446   23447   23447       0   23449   23450   23450       0
   23452   23453   23453       0   23455   23456   23456       0   23458   23459
   23459       0   23461   23462   23462       0   23464   23465   23465       0
   23467   23468   23468       0   23470   23471   23471       0   23473   23474
   23474       0   23476   23477   23477       0   23479   23480   23480       0
   23482   23483   23483       0   23485   23486   23486       0   23488   23489
   23489       0   23491   23492   23492       0   23494   23495   23495       0
   23497   23498   23498       0   23500   23501   23501       0   23503   23504
   23504       0   23506   23507   23507       0   23509   23510   23510       0
   23512   23513   23513       0   23515   23516   23516       0   23518   23519
   23519       0   23521   23522   23522       0   23524   23525   23525       0
   23527   23528   23528       0   23530   23531   23531       0   23533   23534
   23534       0   23536   23537   23537       0   23539   23540   23540       0
   23542   23543   23543       0   23545   23546   23546       0   23548   23549
   23549       0   23551   23552   23552       0   23554   23555   23555       0
   23557   23558   23558       0   23560   23561   23561       0   23563   23564
   23564       0   23566   23567   23567       0   23569   23570   23570       0
   23572   23573   23573       0   23575   23576   23576       0   23578   23579
   23579       0   23581   23582   23582       0   23584   23585   23585       0
   23587   23588   23588       0   23590   23591   23591       0   23593   23594
   23594       0   23596   23597   23597       0   23599   23600   23600       0
   23602   23603   23603       0   23605   23606   23606       0   23608   23609
   23609       0   23611   23612   23612       0   23614   23615   23615       0
   23617   23618   23618       0   23620   23621   23621       0   23623   23624
   23624       0   23626   23627   23627       0   23629   23630   23630       0
   23632   23633   23633       0   23635   23636   23636       0   23638   23639
   23639       0   23641   23642   23642       0   23644   23645   23645       0
   23647   23648   23648       0   23650   23651   23651       0   23653   23654
   23654       0   23656   23657   23657       0   23659   23660   23660       0
   23662   23663   23663       0   23665   23666   23666       0   23668   23669
   23669       0   23671   23672   23672       0   23674   23675   23675       0
   23677   23678   23678       0   23680   23681   23681       0   23683   23684
   23684       0   23686   23687   23687       0   23689   23690   23690       0
   23692   23693   23693       0   23695   23696   23696       0   23698   23699
   23699       0   23701   23702   23702       0   23704   23705   23705       0
   23707   23708   23708       0   23710   23711   23711       0   23713   23714
   23714       0   23716   23717   23717       0   23719   23720   23720       0
   23722   23723   23723       0   23725   23726   23726       0   23728   23729
   23729       0   23731   23732   23732       0   23734   23735   23735       0
   23737   23738   23738       0   23740   23741   23741       0   23743   23744
   23744       0   23746   23747   23747       0   23749   23750   23750       0
   23752   23753   23753       0   23755   23756   23756       0   23758   23759
   23759       0   23761   23762   23762       0   23764   23765   23765       0
   23767   23768   23768       0   23770   23771   23771       0   23773   23774
   23774       0   23776   23777   23777       0   23779   23780   23780       0
   23782   23783   23783       0   23785   23786   23786       0   23788   23789
   23789       0   23791   23792   23792       0   23794   23795   23795       0
   23797   23798   23798       0   23800   23801   23801       0   23803   23804
   23804       0   23806   23807   23807       0   23809   23810   23810       0
   23812   23813   23813       0   23815   23816   23816       0   23818   23819
   23819       0   23821   23822   23822       0   23824   23825   23825       0
   23827   23828   23828       0   23830   23831   23831       0   23833   23834
   23834       0   23836   23837   23837       0   23839   23840   23840       0
   23842   23843   23843       0   23845   23846   23846       0   23848   23849
   23849       0   23851   23852   23852       0   23854   23855   23855       0
   23857   23858   23858       0   23860   23861   23861       0   23863   23864
   23864       0   23866   23867   23867       0   23869   23870   23870       0
   23872   23873   23873       0   23875   23876   23876       0   23878   23879
   23879       0   23881   23882   23882       0   23884   23885   23885       0
   23887   23888   23888       0   23890   23891   23891       0   23893   23894
   23894       0   23896   23897   23897       0   23899   23900   23900       0
   23902   23903   23903       0   23905   23906   23906       0   23908   23909
   23909       0   23911   23912   23912       0   23914   23915   23915       0
   23917   23918   23918       0   23920   23921   23921       0   23923   23924
   23924       0   23926   23927   23927       0   23929   23930   23930       0
   23932   23933   23933       0   23935   23936   23936       0   23938   23939
   23939       0   23941   23942   23942       0   23944   23945   23945       0
   23947   23948   23948       0   23950   23951   23951       0   23953   23954
   23954       0   23956   23957   23957       0   23959   23960   23960       0
   23962   23963   23963       0   23965   23966   23966       0   23968   23969
   23969       0   23971   23972   23972       0   23974   23975   23975       0
   23977   23978   23978       0   23980   23981   23981       0   23983   23984
   23984       0   23986   23987   23987       0   23989   23990   23990       0
   23992   23993   23993       0   23995   23996   23996       0   23998   23999
   23999       0   24001   24002   24002       0   24004   24005   24005       0
   24007   24008   24008       0   24010   24011   24011       0   24013   24014
   24014       0   24016   24017   24017       0   24019   24020   24020       0
   24022   24023   24023       0   24025   24026   24026       0   24028   24029
   24029       0   24031   24032   24032       0   24034   24035   24035       0
   24037   24038   24038       0   24040   24041   24041       0   24043   24044
   24044       0   24046   24047   24047       0   24049   24050   24050       0
   24052   24053   24053       0   24055   24056   24056       0   24058   24059
   24059       0   24061   24062   24062       0   24064   24065   24065       0
   24067   24068   24068       0   24070   24071   24071       0   24073   24074
   24074       0   24076   24077   24077       0   24079   24080   24080       0
   24082   24083   24083       0   24085   24086   24086       0   24088   24089
   24089       0   24091   24092   24092       0   24094   24095   24095       0
   24097   24098   24098       0   24100   24101   24101       0   24103   24104
   24104       0   24106   24107   24107       0   24109   24110   24110       0
   24112   24113   24113       0   24115   24116   24116       0   24118   24119
   24119       0   24121   24122   24122       0   24124   24125   24125       0
   24127   24128   24128       0   24130   24131   24131       0   24133   24134
   24134       0   24136   24137   24137       0   24139   24140   24140       0
   24142   24143   24143       0   24145   24146   24146       0   24148   24149
   24149       0   24151   24152   24152       0   24154   24155   24155       0
   24157   24158   24158       0   24160   24161   24161       0   24163   24164
   24164       0   24166   24167   24167       0   24169   24170   24170       0
   24172   24173   24173       0   24175   24176   24176       0   24178   24179
   24179       0   24181   24182   24182       0   24184   24185   24185       0
   24187   24188   24188       0   24190   24191   24191       0   24193   24194
   24194       0   24196   24197   24197       0   24199   24200   24200       0
   24202   24203   24203       0   24205   24206   24206       0   24208   24209
   24209       0   24211   24212   24212       0   24214   24215   24215       0
   24217   24218   24218       0   24220   24221   24221       0   24223   24224
   24224       0   24226   24227   24227       0   24229   24230   24230       0
   24232   24233   24233       0   24235   24236   24236       0   24238   24239
   24239       0   24241   24242   24242       0   24244   24245   24245       0
   24247   24248   24248       0   24250   24251   24251       0   24253   24254
   24254       0   24256   24257   24257       0   24259   24260   24260       0
   24262   24263   24263       0   24265   24266   24266       0   24268   24269
   24269       0   24271   24272   24272       0   24274   24275   24275       0
   24277   24278   24278       0   24280   24281   24281       0   24283   24284
   24284       0   24286   24287   24287       0   24289   24290   24290       0
   24292   24293   24293       0   24295   24296   24296       0   24298   24299
   24299       0   24301   24302   24302       0   24304   24305   24305       0
   24307   24308   24308       0   24310   24311   24311       0   24313   24314
   24314       0   24316   24317   24317       0   24319   24320   24320       0
   24322   24323   24323       0   24325   24326   24326       0   24328   24329
   24329       0   24331   24332   24332       0   24334   24335   24335       0
   24337   24338   24338       0   24340   24341   24341       0   24343   24344
   24344       0   24346   24347   24347       0   24349   24350   24350       0
   24352   24353   24353       0   24355   24356   24356       0   24358   24359
   24359       0   24361   24362   24362       0   24364   24365   24365       0
   24367   24368   24368       0   24370   24371   24371       0   24373   24374
   24374       0   24376   24377   24377       0   24379   24380   24380       0
   24382   24383   24383       0   24385   24386   24386       0   24388   24389
   24389       0   24391   24392   24392       0   24394   24395   24395       0
   24397   24398   24398       0   24400   24401   24401       0   24403   24404
   24404       0   24406   24407   24407       0   24409   24410   24410       0
   24412   24413   24413       0   24415   24416   24416       0   24418   24419
   24419       0   24421   24422   24422       0   24424   24425   24425       0
   24427   24428   24428       0   24430   24431   24431       0   24433   24434
   24434       0   24436   24437   24437       0   24439   24440   24440       0
   24442   24443   24443       0   24445   24446   24446       0   24448   24449
   24449       0   24451   24452   24452       0   24454   24455   24455       0
   24457   24458   24458       0   24460   24461   24461       0   24463   24464
   24464       0   24466   24467   24467       0   24469   24470   24470       0
   24472   24473   24473       0   24475   24476   24476       0   24478   24479
   24479       0   24481   24482   24482       0   24484   24485   24485       0
   24487   24488   24488       0   24490   24491   24491       0   24493   24494
   24494       0   24496   24497   24497       0   24499   24500   24500       0
   24502   24503   24503       0   24505   24506   24506       0   24508   24509
   24509       0   24511   24512   24512       0   24514   24515   24515       0
   24517   24518   24518       0   24520   24521   24521       0   24523   24524
   24524       0   24526   24527   24527       0   24529   24530   24530       0
   24532   24533   24533       0   24535   24536   24536       0   24538   24539
   24539       0   24541   24542   24542       0   24544   24545   24545       0
   24547   24548   24548       0   24550   24551   24551       0   24553   24554
   24554       0   24556   24557   24557       0   24559   24560   24560       0
   24562   24563   24563       0   24565   24566   24566       0   24568   24569
   24569       0   24571   24572   24572       0   24574   24575   24575       0
   24577   24578   24578       0   24580   24581   24581       0   24583   24584
   24584       0   24586   24587   24587       0   24589   24590   24590       0
   24592   24593   24593       0   24595   24596   24596       0   24598   24599
   24599       0   24601   24602   24602       0   24604   24605   24605       0
   24607   24608   24608       0   24610   24611   24611       0   24613   24614
   24614       0   24616   24617   24617       0   24619   24620   24620       0
   24622   24623   24623       0   24625   24626   24626       0   24628   24629
   24629       0   24631   24632   24632       0   24634   24635   24635       0
   24637   24638   24638       0   24640   24641   24641       0   24643   24644
   24644       0   24646   24647   24647       0   24649   24650   24650       0
   24652   24653   24653       0   24655   24656   24656       0   24658   24659
   24659       0   24661   24662   24662       0   24664   24665   24665       0
   24667   24668   24668       0   24670   24671   24671       0   24673   24674
   24674       0   24676   24677   24677       0   24679   24680   24680       0
   24682   24683   24683       0   24685   24686   24686       0   24688   24689
   24689       0   24691   24692   24692       0   24694   24695   24695       0
   24697   24698   24698       0   24700   24701   24701       0   24703   24704
   24704       0   24706   24707   24707       0   24709   24710   24710       0
   24712   24713   24713       0   24715   24716   24716       0   24718   24719
   24719       0   24721   24722   24722       0   24724   24725   24725       0
   24727   24728   24728       0   24730   24731   24731       0   24733   24734
   24734       0   24736   24737   24737       0   24739   24740   24740       0
   24742   24743   24743       0   24745   24746   24746       0   24748   24749
   24749       0   24751   24752   24752       0   24754   24755   24755       0
   24757   24758   24758       0   24760   24761   24761       0   24763   24764
   24764       0   24766   24767   24767       0   24769   24770   24770       0
   24772   24773   24773       0   24775   24776   24776       0   24778   24779
   24779       0   24781   24782   24782       0   24784   24785   24785       0
   24787   24788   24788       0   24790   24791   24791       0   24793   24794
   24794       0   24796   24797   24797       0   24799   24800   24800       0
   24802   24803   24803       0   24805   24806   24806       0   24808   24809
   24809       0   24811   24812   24812       0   24814   24815   24815       0
   24817   24818   24818       0   24820   24821   24821       0   24823   24824
   24824       0   24826   24827   24827       0   24829   24830   24830       0
   24832   24833   24833       0   24835   24836   24836       0   24838   24839
   24839       0   24841   24842   24842       0   24844   24845   24845       0
   24847   24848   24848       0   24850   24851   24851       0   24853   24854
   24854       0   24856   24857   24857       0   24859   24860   24860       0
   24862   24863   24863       0   24865   24866   24866       0   24868   24869
   24869       0   24871   24872   24872       0   24874   24875   24875       0
   24877   24878   24878       0   24880   24881   24881       0   24883   24884
   24884       0   24886   24887   24887       0   24889   24890   24890       0
   24892   24893   24893       0   24895   24896   24896       0   24898   24899
   24899       0   24901   24902   24902       0   24904   24905   24905       0
   24907   24908   24908       0   24910   24911   24911       0   24913   24914
   24914       0   24916   24917   24917       0   24919   24920   24920       0
   24922   24923   24923       0   24925   24926   24926       0   24928   24929
   24929       0   24931   24932   24932       0   24934   24935   24935       0
   24937   24938   24938       0   24940   24941   24941       0   24943   24944
   24944       0   24946   24947   24947       0   24949   24950   24950       0
   24952   24953   24953       0   24955   24956   24956       0   24958   24959
   24959       0   24961   24962   24962       0   24964   24965   24965       0
   24967   24968   24968       0   24970   24971   24971       0   24973   24974
   24974       0   24976   24977   24977       0   24979   24980   24980       0
   24982   24983   24983       0   24985   24986   24986       0   24988   24989
   24989       0   24991   24992   24992       0   24994   24995   24995       0
   24997   24998   24998       0   25000   25001   25001       0   25003   25004
   25004       0   25006   25007   25007       0   25009   25010   25010       0
   25012   25013   25013       0   25015   25016   25016       0   25018   25019
   25019       0   25021   25022   25022       0   25024   25025   25025       0
   25027   25028   25028       0   25030   25031   25031       0   25033   25034
   25034       0   25036   25037   25037       0   25039   25040   25040       0
   25042   25043   25043       0   25045   25046   25046       0   25048   25049
   25049       0   25051   25052   25052       0   25054   25055   25055       0
   25057   25058   25058       0   25060   25061   25061       0   25063   25064
   25064       0   25066   25067   25067       0   25069   25070   25070       0
   25072   25073   25073       0   25075   25076   25076       0   25078   25079
   25079       0   25081   25082   25082       0   25084   25085   25085       0
   25087   25088   25088       0   25090   25091   25091       0   25093   25094
   25094       0   25096   25097   25097       0   25099   25100   25100       0
   25102   25103   25103       0   25105   25106   25106       0   25108   25109
   25109       0   25111   25112   25112       0   25114   25115   25115       0
   25117   25118   25118       0   25120   25121   25121       0   25123   25124
   25124       0   25126   25127   25127       0   25129   25130   25130       0
   25132   25133   25133       0   25135   25136   25136       0   25138   25139
   25139       0   25141   25142   25142       0   25144   25145   25145       0
   25147   25148   25148       0   25150   25151   25151       0   25153   25154
   25154       0   25156   25157   25157       0   25159   25160   25160       0
   25162   25163   25163       0   25165   25166   25166       0   25168   25169
   25169       0   25171   25172   25172       0   25174   25175   25175       0
   25177   25178   25178       0   25180   25181   25181       0   25183   25184
   25184       0   25186   25187   25187       0   25189   25190   25190       0
   25192   25193   25193       0   25195   25196   25196       0   25198   25199
   25199       0   25201   25202   25202       0   25204   25205   25205       0
   25207   25208   25208       0   25210   25211   25211       0   25213   25214
   25214       0   25216   25217   25217       0   25219   25220   25220       0
   25222   25223   25223       0   25225   25226   25226       0   25228   25229
   25229       0   25231   25232   25232       0   25234   25235   25235       0
   25237   25238   25238       0   25240   25241   25241       0   25243   25244
   25244       0   25246   25247   25247       0   25249   25250   25250       0
   25252   25253   25253       0   25255   25256   25256       0   25258   25259
   25259       0   25261   25262   25262       0   25264   25265   25265       0
   25267   25268   25268       0   25270   25271   25271       0   25273   25274
   25274       0   25276   25277   25277       0   25279   25280   25280       0
   25282   25283   25283       0   25285   25286   25286       0   25288   25289
   25289       0   25291   25292   25292       0   25294   25295   25295       0
   25297   25298   25298       0   25300   25301   25301       0   25303   25304
   25304       0   25306   25307   25307       0   25309   25310   25310       0
   25312   25313   25313       0   25315   25316   25316       0   25318   25319
   25319       0   25321   25322   25322       0   25324   25325   25325       0
   25327   25328   25328       0   25330   25331   25331       0   25333   25334
   25334       0   25336   25337   25337       0   25339   25340   25340       0
   25342   25343   25343       0   25345   25346   25346       0   25348   25349
   25349       0   25351   25352   25352       0   25354   25355   25355       0
   25357   25358   25358       0   25360   25361   25361       0   25363   25364
   25364       0   25366   25367   25367       0   25369   25370   25370       0
   25372   25373   25373       0   25375   25376   25376       0   25378   25379
   25379       0   25381   25382   25382       0   25384   25385   25385       0
   25387   25388   25388       0   25390   25391   25391       0   25393   25394
   25394       0   25396   25397   25397       0   25399   25400   25400       0
   25402   25403   25403       0   25405   25406   25406       0   25408   25409
   25409       0   25411   25412   25412       0   25414   25415   25415       0
   25417   25418   25418       0   25420   25421   25421       0   25423   25424
   25424       0   25426   25427   25427       0   25429   25430   25430       0
   25432   25433   25433       0   25435   25436   25436       0   25438   25439
   25439       0   25441   25442   25442       0   25444   25445   25445       0
   25447   25448   25448       0   25450   25451   25451       0   25453   25454
   25454       0   25456   25457   25457       0   25459   25460   25460       0
   25462   25463   25463       0   25465   25466   25466       0   25468   25469
   25469       0   25471   25472   25472       0   25474   25475   25475       0
   25477   25478   25478       0   25480   25481   25481       0   25483   25484
   25484       0   25486   25487   25487       0   25489   25490   25490       0
   25492   25493   25493       0   25495   25496   25496       0   25498   25499
   25499       0   25501   25502   25502       0   25504   25505   25505       0
   25507   25508   25508       0   25510   25511   25511       0   25513   25514
   25514       0   25516   25517   25517       0   25519   25520   25520       0
   25522   25523   25523       0   25525   25526   25526       0   25528   25529
   25529       0   25531   25532   25532       0   25534   25535   25535       0
   25537   25538   25538       0   25540   25541   25541       0   25543   25544
   25544       0   25546   25547   25547       0   25549   25550   25550       0
   25552   25553   25553       0   25555   25556   25556       0   25558   25559
   25559       0   25561   25562   25562       0   25564   25565   25565       0
   25567   25568   25568       0   25570   25571   25571       0   25573   25574
   25574       0   25576   25577   25577       0   25579   25580   25580       0
   25582   25583   25583       0   25585   25586   25586       0   25588   25589
   25589       0   25591   25592   25592       0   25594   25595   25595       0
   25597   25598   25598       0   25600   25601   25601       0   25603   25604
   25604       0   25606   25607   25607       0   25609   25610   25610       0
   25612   25613   25613       0   25615   25616   25616       0   25618   25619
   25619       0   25621   25622   25622       0   25624   25625   25625       0
   25627   25628   25628       0   25630   25631   25631       0   25633   25634
   25634       0   25636   25637   25637       0   25639   25640   25640       0
   25642   25643   25643       0   25645   25646   25646       0   25648   25649
   25649       0   25651   25652   25652       0   25654   25655   25655       0
   25657   25658   25658       0   25660   25661   25661       0   25663   25664
   25664       0   25666   25667   25667       0   25669   25670   25670       0
   25672   25673   25673       0   25675   25676   25676       0   25678   25679
   25679       0   25681   25682   25682       0   25684   25685   25685       0
   25687   25688   25688       0   25690   25691   25691       0   25693   25694
   25694       0   25696   25697   25697       0   25699   25700   25700       0
   25702   25703   25703       0   25705   25706   25706       0   25708   25709
   25709       0   25711   25712   25712       0   25714   25715   25715       0
   25717   25718   25718       0   25720   25721   25721       0   25723   25724
   25724       0   25726   25727   25727       0   25729   25730   25730       0
   25732   25733   25733       0   25735   25736   25736       0   25738   25739
   25739       0   25741   25742   25742       0   25744   25745   25745       0
   25747   25748   25748       0   25750   25751   25751       0   25753   25754
   25754       0   25756   25757   25757       0   25759   25760   25760       0
   25762   25763   25763       0   25765   25766   25766       0   25768   25769
   25769       0   25771   25772   25772       0   25774   25775   25775       0
   25777   25778   25778       0   25780   25781   25781       0   25783   25784
   25784       0   25786   25787   25787       0   25789   25790   25790       0
   25792   25793   25793       0   25795   25796   25796       0   25798   25799
   25799       0   25801   25802   25802       0   25804   25805   25805       0
   25807   25808   25808       0   25810   25811   25811       0   25813   25814
   25814       0   25816   25817   25817       0   25819   25820   25820       0
   25822   25823   25823       0   25825   25826   25826       0   25828   25829
   25829       0   25831   25832   25832       0   25834   25835   25835       0
   25837   25838   25838       0   25840   25841   25841       0   25843   25844
   25844       0   25846   25847   25847       0   25849   25850   25850       0
   25852   25853   25853       0   25855   25856   25856       0   25858   25859
   25859       0   25861   25862   25862       0   25864   25865   25865       0
   25867   25868   25868       0   25870   25871   25871       0   25873   25874
   25874       0   25876   25877   25877       0   25879   25880   25880       0
   25882   25883   25883       0   25885   25886   25886       0   25888   25889
   25889       0   25891   25892   25892       0   25894   25895   25895       0
   25897   25898   25898       0   25900   25901   25901       0   25903   25904
   25904       0   25906   25907   25907       0   25909   25910   25910       0
   25912   25913   25913       0   25915   25916   25916       0   25918   25919
   25919       0   25921   25922   25922       0   25924   25925   25925       0
   25927   25928   25928       0   25930   25931   25931       0   25933   25934
   25934       0   25936   25937   25937       0   25939   25940   25940       0
   25942   25943   25943       0   25945   25946   25946       0   25948   25949
   25949       0   25951   25952   25952       0   25954   25955   25955       0
   25957   25958   25958       0   25960   25961   25961       0   25963   25964
   25964       0   25966   25967   25967       0   25969   25970   25970       0
   25972   25973   25973       0   25975   25976   25976       0   25978   25979
   25979       0   25981   25982   25982       0   25984   25985   25985       0
   25987   25988   25988       0   25990   25991   25991       0   25993   25994
   25994       0   25996   25997   25997       0   25999   26000   26000       0
   26002   26003   26003       0   26005   26006   26006       0   26008   26009
   26009       0   26011   26012   26012       0   26014   26015   26015       0
   26017   26018   26018       0   26020   26021   26021       0   26023   26024
   26024       0   26026   26027   26027       0   26029   26030   26030       0
   26032   26033   26033       0   26035   26036   26036       0   26038   26039
   26039       0   26041   26042   26042       0   26044   26045   26045       0
   26047   26048   26048       0   26050   26051   26051       0   26053   26054
   26054       0   26056   26057   26057       0   26059   26060   26060       0
   26062   26063   26063       0   26065   26066   26066       0   26068   26069
   26069       0   26071   26072   26072       0   26074   26075   26075       0
   26077   26078   26078       0   26080   26081   26081       0   26083   26084
   26084       0   26086   26087   26087       0   26089   26090   26090       0
   26092   26093   26093       0   26095   26096   26096       0   26098   26099
   26099       0   26101   26102   26102       0   26104   26105   26105       0
   26107   26108   26108       0   26110   26111   26111       0   26113   26114
   26114       0   26116   26117   26117       0   26119   26120   26120       0
   26122   26123   26123       0   26125   26126   26126       0   26128   26129
   26129       0   26131   26132   26132       0   26134   26135   26135       0
   26137   26138   26138       0   26140   26141   26141       0   26143   26144
   26144       0   26146   26147   26147       0   26149   26150   26150       0
   26152   26153   26153       0   26155   26156   26156       0   26158   26159
   26159       0   26161   26162   26162       0   26164   26165   26165       0
   26167   26168   26168       0   26170   26171   26171       0   26173   26174
   26174       0   26176   26177   26177       0   26179   26180   26180       0
   26182   26183   26183       0   26185   26186   26186       0   26188   26189
   26189       0   26191   26192   26192       0   26194   26195   26195       0
   26197   26198   26198       0   26200   26201   26201       0   26203   26204
   26204       0   26206   26207   26207       0   26209   26210   26210       0
   26212   26213   26213       0   26215   26216   26216       0   26218   26219
   26219       0   26221   26222   26222       0   26224   26225   26225       0
   26227   26228   26228       0   26230   26231   26231       0   26233   26234
   26234       0   26236   26237   26237       0   26239   26240   26240       0
   26242   26243   26243       0   26245   26246   26246       0   26248   26249
   26249       0   26251   26252   26252       0   26254   26255   26255       0
   26257   26258   26258       0   26260   26261   26261       0   26263   26264
   26264       0   26266   26267   26267       0   26269   26270   26270       0
   26272   26273   26273       0   26275   26276   26276       0   26278   26279
   26279       0   26281   26282   26282       0   26284   26285   26285       0
   26287   26288   26288       0   26290   26291   26291       0   26293   26294
   26294       0   26296   26297   26297       0   26299   26300   26300       0
   26302   26303   26303       0   26305   26306   26306       0   26308   26309
   26309       0   26311   26312   26312       0   26314   26315   26315       0
   26317   26318   26318       0   26320   26321   26321       0   26323   26324
   26324       0   26326   26327   26327       0   26329   26330   26330       0
   26332   26333   26333       0   26335   26336   26336       0   26338   26339
   26339       0   26341   26342   26342       0   26344   26345   26345       0
   26347   26348   26348       0   26350   26351   26351       0   26353   26354
   26354       0   26356   26357   26357       0   26359   26360   26360       0
   26362   26363   26363       0   26365   26366   26366       0   26368   26369
   26369       0   26371   26372   26372       0   26374   26375   26375       0
   26377   26378   26378       0   26380   26381   26381       0   26383   26384
   26384       0   26386   26387   26387       0   26389   26390   26390       0
   26392   26393   26393       0   26395   26396   26396       0   26398   26399
   26399       0   26401   26402   26402       0   26404   26405   26405       0
   26407   26408   26408       0   26410   26411   26411       0   26413   26414
   26414       0   26416   26417   26417       0   26419   26420   26420       0
   26422   26423   26423       0   26425   26426   26426       0   26428   26429
   26429       0   26431   26432   26432       0   26434   26435   26435       0
   26437   26438   26438       0   26440   26441   26441       0   26443   26444
   26444       0   26446   26447   26447       0   26449   26450   26450       0
   26452   26453   26453       0   26455   26456   26456       0   26458   26459
   26459       0   26461   26462   26462       0   26464   26465   26465       0
   26467   26468   26468       0   26470   26471   26471       0   26473   26474
   26474       0   26476   26477   26477       0   26479   26480   26480       0
   26482   26483   26483       0   26485   26486   26486       0   26488   26489
   26489       0   26491   26492   26492       0   26494   26495   26495       0
   26497   26498   26498       0   26500   26501   26501       0   26503   26504
   26504       0   26506   26507   26507       0   26509   26510   26510       0
   26512   26513   26513       0   26515   26516   26516       0   26518   26519
   26519       0   26521   26522   26522       0   26524   26525   26525       0
   26527   26528   26528       0   26530   26531   26531       0   26533   26534
   26534       0   26536   26537   26537       0   26539   26540   26540       0
   26542   26543   26543       0   26545   26546   26546       0   26548   26549
   26549       0   26551   26552   26552       0   26554   26555   26555       0
   26557   26558   26558       0   26560   26561   26561       0   26563   26564
   26564       0   26566   26567   26567       0   26569   26570   26570       0
   26572   26573   26573       0   26575   26576   26576       0   26578   26579
   26579       0   26581   26582   26582       0   26584   26585   26585       0
   26587   26588   26588       0   26590   26591   26591       0   26593   26594
   26594       0   26596   26597   26597       0   26599   26600   26600       0
   26602   26603   26603       0   26605   26606   26606       0   26608   26609
   26609       0   26611   26612   26612       0   26614   26615   26615       0
   26617   26618   26618       0   26620   26621   26621       0   26623   26624
   26624       0   26626   26627   26627       0   26629   26630   26630       0
   26632   26633   26633       0   26635   26636   26636       0   26638   26639
   26639       0   26641   26642   26642       0   26644   26645   26645       0
   26647   26648   26648       0   26650   26651   26651       0   26653   26654
   26654       0   26656   26657   26657       0   26659   26660   26660       0
   26662   26663   26663       0   26665   26666   26666       0   26668   26669
   26669       0   26671   26672   26672       0   26674   26675   26675       0
   26677   26678   26678       0   26680   26681   26681       0   26683   26684
   26684       0   26686   26687   26687       0   26689   26690   26690       0
   26692   26693   26693       0   26695   26696   26696       0   26698   26699
   26699       0   26701   26702   26702       0   26704   26705   26705       0
   26707   26708   26708       0   26710   26711   26711       0   26713   26714
   26714       0   26716   26717   26717       0   26719   26720   26720       0
   26722   26723   26723       0   26725   26726   26726       0   26728   26729
   26729       0   26731   26732   26732       0   26734   26735   26735       0
   26737   26738   26738       0   26740   26741   26741       0   26743   26744
   26744       0   26746   26747   26747       0   26749   26750   26750       0
   26752   26753   26753       0   26755   26756   26756       0   26758   26759
   26759       0   26761   26762   26762       0   26764   26765   26765       0
   26767   26768   26768       0   26770   26771   26771       0   26773   26774
   26774       0   26776   26777   26777       0   26779   26780   26780       0
   26782   26783   26783       0   26785   26786   26786       0   26788   26789
   26789       0   26791   26792   26792       0   26794   26795   26795       0
   26797   26798   26798       0   26800   26801   26801       0   26803   26804
   26804       0   26806   26807   26807       0   26809   26810   26810       0
   26812   26813   26813       0   26815   26816   26816       0   26818   26819
   26819       0   26821   26822   26822       0   26824   26825   26825       0
   26827   26828   26828       0   26830   26831   26831       0   26833   26834
   26834       0   26836   26837   26837       0   26839   26840   26840       0
   26842   26843   26843       0   26845   26846   26846       0   26848   26849
   26849       0   26851   26852   26852       0   26854   26855   26855       0
   26857   26858   26858       0   26860   26861   26861       0   26863   26864
   26864       0   26866   26867   26867       0   26869   26870   26870       0
   26872   26873   26873       0   26875   26876   26876       0   26878   26879
   26879       0   26881   26882   26882       0   26884   26885   26885       0
   26887   26888   26888       0   26890   26891   26891       0   26893   26894
   26894       0   26896   26897   26897       0   26899   26900   26900       0
   26902   26903   26903       0   26905   26906   26906       0   26908   26909
   26909       0   26911   26912   26912       0   26914   26915   26915       0
   26917   26918   26918       0   26920   26921   26921       0   26923   26924
   26924       0   26926   26927   26927       0   26929   26930   26930       0
   26932   26933   26933       0   26935   26936   26936       0   26938   26939
   26939       0   26941   26942   26942       0   26944   26945   26945       0
   26947   26948   26948       0   26950   26951   26951       0   26953   26954
   26954       0   26956   26957   26957       0   26959   26960   26960       0
   26962   26963   26963       0   26965   26966   26966       0   26968   26969
   26969       0   26971   26972   26972       0   26974   26975   26975       0
   26977   26978   26978       0   26980   26981   26981       0   26983   26984
   26984       0   26986   26987   26987       0   26989   26990   26990       0
   26992   26993   26993       0   26995   26996   26996       0   26998   26999
   26999       0   27001   27002   27002       0   27004   27005   27005       0
   27007   27008   27008       0   27010   27011   27011       0   27013   27014
   27014       0   27016   27017   27017       0   27019   27020   27020       0
   27022   27023   27023       0   27025   27026   27026       0   27028   27029
   27029       0   27031   27032   27032       0   27034   27035   27035       0
   27037   27038   27038       0   27040   27041   27041       0   27043   27044
   27044       0   27046   27047   27047       0   27049   27050   27050       0
   27052   27053   27053       0   27055   27056   27056       0   27058   27059
   27059       0   27061   27062   27062       0   27064   27065   27065       0
   27067   27068   27068       0   27070   27071   27071       0   27073   27074
   27074       0   27076   27077   27077       0   27079   27080   27080       0
   27082   27083   27083       0   27085   27086   27086       0   27088   27089
   27089       0   27091   27092   27092       0   27094   27095   27095       0
   27097   27098   27098       0   27100   27101   27101       0   27103   27104
   27104       0   27106   27107   27107       0   27109   27110   27110       0
   27112   27113   27113       0   27115   27116   27116       0   27118   27119
   27119       0   27121   27122   27122       0   27124   27125   27125       0
   27127   27128   27128       0   27130   27131   27131       0   27133   27134
   27134       0   27136   27137   27137       0   27139   27140   27140       0
   27142   27143   27143       0   27145   27146   27146       0   27148   27149
   27149       0   27151   27152   27152       0   27154   27155   27155       0
   27157   27158   27158       0   27160   27161   27161       0   27163   27164
   27164       0   27166   27167   27167       0   27169   27170   27170       0
   27172   27173   27173       0   27175   27176   27176       0   27178   27179
   27179       0   27181   27182   27182       0   27184   27185   27185       0
   27187   27188   27188       0   27190   27191   27191       0   27193   27194
   27194       0   27196   27197   27197       0   27199   27200   27200       0
   27202   27203   27203       0   27205   27206   27206       0   27208   27209
   27209       0   27211   27212   27212       0   27214   27215   27215       0
   27217   27218   27218       0   27220   27221   27221       0   27223   27224
   27224       0   27226   27227   27227       0   27229   27230   27230       0
   27232   27233   27233       0   27235   27236   27236       0   27238   27239
   27239       0   27241   27242   27242       0   27244   27245   27245       0
   27247   27248   27248       0   27250   27251   27251       0   27253   27254
   27254       0   27256   27257   27257       0   27259   27260   27260       0
   27262   27263   27263       0   27265   27266   27266       0   27268   27269
   27269       0   27271   27272   27272       0   27274   27275   27275       0
   27277   27278   27278       0   27280   27281   27281       0   27283   27284
   27284       0   27286   27287   27287       0   27289   27290   27290       0
   27292   27293   27293       0   27295   27296   27296       0   27298   27299
   27299       0   27301   27302   27302       0   27304   27305   27305       0
   27307   27308   27308       0   27310   27311   27311       0   27313   27314
   27314       0   27316   27317   27317       0   27319   27320   27320       0
   27322   27323   27323       0   27325   27326   27326       0   27328   27329
   27329       0   27331   27332   27332       0   27334   27335   27335       0
   27337   27338   27338       0   27340   27341   27341       0   27343   27344
   27344       0   27346   27347   27347       0   27349   27350   27350       0
   27352   27353   27353       0   27355   27356   27356       0   27358   27359
   27359       0   27361   27362   27362       0   27364   27365   27365       0
   27367   27368   27368       0   27370   27371   27371       0   27373   27374
   27374       0   27376   27377   27377       0   27379   27380   27380       0
   27382   27383   27383       0   27385   27386   27386       0   27388   27389
   27389       0   27391   27392   27392       0   27394   27395   27395       0
   27397   27398   27398       0   27400   27401   27401       0   27403   27404
   27404       0   27406   27407   27407       0   27409   27410   27410       0
   27412   27413   27413       0   27415   27416   27416       0   27418   27419
   27419       0   27421   27422   27422       0   27424   27425   27425       0
   27427   27428   27428       0   27430   27431   27431       0   27433   27434
   27434       0   27436   27437   27437       0   27439   27440   27440       0
   27442   27443   27443       0   27445   27446   27446       0   27448   27449
   27449       0   27451   27452   27452       0   27454   27455   27455       0
   27457   27458   27458       0   27460   27461   27461       0   27463   27464
   27464       0   27466   27467   27467       0   27469   27470   27470       0
   27472   27473   27473       0   27475   27476   27476       0   27478   27479
   27479       0   27481   27482   27482       0   27484   27485   27485       0
   27487   27488   27488       0   27490   27491   27491       0   27493   27494
   27494       0   27496   27497   27497       0   27499   27500   27500       0
   27502   27503   27503       0   27505   27506   27506       0   27508   27509
   27509       0   27511   27512   27512       0   27514   27515   27515       0
   27517   27518   27518       0   27520   27521   27521       0   27523   27524
   27524       0   27526   27527   27527       0   27529   27530   27530       0
   27532   27533   27533       0   27535   27536   27536       0   27538   27539
   27539       0   27541   27542   27542       0   27544   27545   27545       0
   27547   27548   27548       0   27550   27551   27551       0   27553   27554
   27554       0   27556   27557   27557       0   27559   27560   27560       0
   27562   27563   27563       0   27565   27566   27566       0   27568   27569
   27569       0   27571   27572   27572       0   27574   27575   27575       0
   27577   27578   27578       0   27580   27581   27581       0   27583   27584
   27584       0   27586   27587   27587       0   27589   27590   27590       0
   27592   27593   27593       0   27595   27596   27596       0   27598   27599
   27599       0   27601   27602   27602       0   27604   27605   27605       0
   27607   27608   27608       0   27610   27611   27611       0   27613   27614
   27614       0   27616   27617   27617       0   27619   27620   27620       0
   27622   27623   27623       0   27625   27626   27626       0   27628   27629
   27629       0   27631   27632   27632       0   27634   27635   27635       0
   27637   27638   27638       0   27640   27641   27641       0   27643   27644
   27644       0   27646   27647   27647       0   27649   27650   27650       0
   27652   27653   27653       0   27655   27656   27656       0   27658   27659
   27659       0   27661   27662   27662       0   27664   27665   27665       0
   27667   27668   27668       0   27670   27671   27671       0   27673   27674
   27674       0   27676   27677   27677       0   27679   27680   27680       0
   27682   27683   27683       0   27685   27686   27686       0   27688   27689
   27689       0   27691   27692   27692       0   27694   27695   27695       0
   27697   27698   27698       0   27700   27701   27701       0   27703   27704
   27704       0   27706   27707   27707       0   27709   27710   27710       0
   27712   27713   27713       0   27715   27716   27716       0   27718   27719
   27719       0   27721   27722   27722       0   27724   27725   27725       0
   27727   27728   27728       0   27730   27731   27731       0   27733   27734
   27734       0   27736   27737   27737       0   27739   27740   27740       0
   27742   27743   27743       0   27745   27746   27746       0   27748   27749
   27749       0   27751   27752   27752       0   27754   27755   27755       0
   27757   27758   27758       0   27760   27761   27761       0   27763   27764
   27764       0   27766   27767   27767       0   27769   27770   27770       0
   27772   27773   27773       0   27775   27776   27776       0   27778   27779
   27779       0   27781   27782   27782       0   27784   27785   27785       0
   27787   27788   27788       0   27790   27791   27791       0   27793   27794
   27794       0   27796   27797   27797       0   27799   27800   27800       0
   27802   27803   27803       0   27805   27806   27806       0   27808   27809
   27809       0   27811   27812   27812       0   27814   27815   27815       0
   27817   27818   27818       0   27820   27821   27821       0   27823   27824
   27824       0   27826   27827   27827       0   27829   27830   27830       0
   27832   27833   27833       0   27835   27836   27836       0   27838   27839
   27839       0   27841   27842   27842       0   27844   27845   27845       0
   27847   27848   27848       0   27850   27851   27851       0   27853   27854
   27854       0   27856   27857   27857       0   27859   27860   27860       0
   27862   27863   27863       0   27865   27866   27866       0   27868   27869
   27869       0   27871   27872   27872       0   27874   27875   27875       0
   27877   27878   27878       0   27880   27881   27881       0   27883   27884
   27884       0   27886   27887   27887       0   27889   27890   27890       0
   27892   27893   27893       0   27895   27896   27896       0   27898   27899
   27899       0   27901   27902   27902       0   27904   27905   27905       0
   27907   27908   27908       0   27910   27911   27911       0   27913   27914
   27914       0   27916   27917   27917       0   27919   27920   27920       0
   27922   27923   27923       0   27925   27926   27926       0   27928   27929
   27929       0   27931   27932   27932       0   27934   27935   27935       0
   27937   27938   27938       0   27940   27941   27941       0   27943   27944
   27944       0   27946   27947   27947       0   27949   27950   27950       0
   27952   27953   27953       0   27955   27956   27956       0   27958   27959
   27959       0   27961   27962   27962       0   27964   27965   27965       0
   27967   27968   27968       0   27970   27971   27971       0   27973   27974
   27974       0   27976   27977   27977       0   27979   27980   27980       0
   27982   27983   27983       0   27985   27986   27986       0   27988   27989
   27989       0   27991   27992   27992       0   27994   27995   27995       0
   27997   27998   27998       0   28000   28001   28001       0   28003   28004
   28004       0   28006   28007   28007       0   28009   28010   28010       0
   28012   28013   28013       0   28015   28016   28016       0   28018   28019
   28019       0   28021   28022   28022       0   28024   28025   28025       0
   28027   28028   28028       0   28030   28031   28031       0   28033   28034
   28034       0   28036   28037   28037       0   28039   28040   28040       0
   28042   28043   28043       0   28045   28046   28046       0   28048   28049
   28049       0   28051   28052   28052       0   28054   28055   28055       0
   28057   28058   28058       0   28060   28061   28061       0   28063   28064
   28064       0   28066   28067   28067       0   28069   28070   28070       0
   28072   28073   28073       0   28075   28076   28076       0   28078   28079
   28079       0   28081   28082   28082       0   28084   28085   28085       0
   28087   28088   28088       0   28090   28091   28091       0   28093   28094
   28094       0   28096   28097   28097       0   28099   28100   28100       0
   28102   28103   28103       0   28105   28106   28106       0   28108   28109
   28109       0   28111   28112   28112       0   28114   28115   28115       0
   28117   28118   28118       0   28120   28121   28121       0   28123   28124
   28124       0   28126   28127   28127       0   28129   28130   28130       0
   28132   28133   28133       0   28135   28136   28136       0   28138   28139
   28139       0   28141   28142   28142       0   28144   28145   28145       0
   28147   28148   28148       0   28150   28151   28151       0   28153   28154
   28154       0   28156   28157   28157       0   28159   28160   28160       0
   28162   28163   28163       0   28165   28166   28166       0   28168   28169
   28169       0   28171   28172   28172       0   28174   28175   28175       0
   28177   28178   28178       0   28180   28181   28181       0   28183   28184
   28184       0   28186   28187   28187       0   28189   28190   28190       0
   28192   28193   28193       0   28195   28196   28196       0   28198   28199
   28199       0   28201   28202   28202       0   28204   28205   28205       0
   28207   28208   28208       0   28210   28211   28211       0   28213   28214
   28214       0   28216   28217   28217       0   28219   28220   28220       0
   28222   28223   28223       0   28225   28226   28226       0   28228   28229
   28229       0   28231   28232   28232       0   28234   28235   28235       0
   28237   28238   28238       0   28240   28241   28241       0   28243   28244
   28244       0   28246   28247   28247       0   28249   28250   28250       0
   28252   28253   28253       0   28255   28256   28256       0   28258   28259
   28259       0   28261   28262   28262       0   28264   28265   28265       0
   28267   28268   28268       0   28270   28271   28271       0   28273   28274
   28274       0   28276   28277   28277       0   28279   28280   28280       0
   28282   28283   28283       0   28285   28286   28286       0   28288   28289
   28289       0   28291   28292   28292       0   28294   28295   28295       0
   28297   28298   28298       0   28300   28301   28301       0   28303   28304
   28304       0   28306   28307   28307       0   28309   28310   28310       0
   28312   28313   28313       0   28315   28316   28316       0   28318   28319
   28319       0   28321   28322   28322       0   28324   28325   28325       0
   28327   28328   28328       0   28330   28331   28331       0   28333   28334
   28334       0   28336   28337   28337       0   28339   28340   28340       0
   28342   28343   28343       0   28345   28346   28346       0   28348   28349
   28349       0   28351   28352   28352       0   28354   28355   28355       0
   28357   28358   28358       0   28360   28361   28361       0   28363   28364
   28364       0   28366   28367   28367       0   28369   28370   28370       0
   28372   28373   28373       0   28375   28376   28376       0   28378   28379
   28379       0   28381   28382   28382       0   28384   28385   28385       0
   28387   28388   28388       0   28390   28391   28391       0   28393   28394
   28394       0   28396   28397   28397       0   28399   28400   28400       0
   28402   28403   28403       0   28405   28406   28406       0   28408   28409
   28409       0   28411   28412   28412       0   28414   28415   28415       0
   28417   28418   28418       0   28420   28421   28421       0   28423   28424
   28424       0   28426   28427   28427       0   28429   28430   28430       0
   28432   28433   28433       0   28435   28436   28436       0   28438   28439
   28439       0   28441   28442   28442       0   28444   28445   28445       0
   28447   28448   28448       0   28450   28451   28451       0   28453   28454
   28454       0   28456   28457   28457       0   28459   28460   28460       0
   28462   28463   28463       0   28465   28466   28466       0   28468   28469
   28469       0   28471   28472   28472       0   28474   28475   28475       0
   28477   28478   28478       0   28480   28481   28481       0   28483   28484
   28484       0   28486   28487   28487       0   28489   28490   28490       0
   28492   28493   28493       0   28495   28496   28496       0   28498   28499
   28499       0   28501   28502   28502       0   28504   28505   28505       0
   28507   28508   28508       0   28510   28511   28511       0   28513   28514
   28514       0   28516   28517   28517       0   28519   28520   28520       0
   28522   28523   28523       0   28525   28526   28526       0   28528   28529
   28529       0   28531   28532   28532       0   28534   28535   28535       0
   28537   28538   28538       0   28540   28541   28541       0   28543   28544
   28544       0   28546   28547   28547       0   28549   28550   28550       0
   28552   28553   28553       0   28555   28556   28556       0   28558   28559
   28559       0   28561   28562   28562       0   28564   28565   28565       0
   28567   28568   28568       0   28570   28571   28571       0   28573   28574
   28574       0   28576   28577   28577       0   28579   28580   28580       0
   28582   28583   28583       0   28585   28586   28586       0   28588   28589
   28589       0   28591   28592   28592       0   28594   28595   28595       0
   28597   28598   28598       0   28600   28601   28601       0   28603   28604
   28604       0   28606   28607   28607       0   28609   28610   28610       0
   28612   28613   28613       0   28615   28616   28616       0   28618   28619
   28619       0   28621   28622   28622       0   28624   28625   28625       0
   28627   28628   28628       0   28630   28631   28631       0   28633   28634
   28634       0   28636   28637   28637       0   28639   28640   28640       0
   28642   28643   28643       0   28645   28646   28646       0   28648   28649
   28649       0   28651   28652   28652       0   28654   28655   28655       0
   28657   28658   28658       0   28660   28661   28661       0   28663   28664
   28664       0   28666   28667   28667       0   28669   28670   28670       0
   28672   28673   28673       0   28675   28676   28676       0   28678   28679
   28679       0   28681   28682   28682       0   28684   28685   28685       0
   28687   28688   28688       0   28690   28691   28691       0   28693   28694
   28694       0   28696   28697   28697       0   28699   28700   28700       0
   28702   28703   28703       0   28705   28706   28706       0   28708   28709
   28709       0   28711   28712   28712       0   28714   28715   28715       0
   28717   28718   28718       0   28720   28721   28721       0   28723   28724
   28724       0   28726   28727   28727       0   28729   28730   28730       0
   28732   28733   28733       0   28735   28736   28736       0   28738   28739
   28739       0   28741   28742   28742       0   28744   28745   28745       0
   28747   28748   28748       0   28750   28751   28751       0   28753   28754
   28754       0   28756   28757   28757       0   28759   28760   28760       0
   28762   28763   28763       0   28765   28766   28766       0   28768   28769
   28769       0   28771   28772   28772       0   28774   28775   28775       0
   28777   28778   28778       0   28780   28781   28781       0   28783   28784
   28784       0   28786   28787   28787       0   28789   28790   28790       0
   28792   28793   28793       0   28795   28796   28796       0   28798   28799
   28799       0   28801   28802   28802       0   28804   28805   28805       0
   28807   28808   28808       0   28810   28811   28811       0   28813   28814
   28814       0   28816   28817   28817       0   28819   28820   28820       0
   28822   28823   28823       0   28825   28826   28826       0   28828   28829
   28829       0   28831   28832   28832       0   28834   28835   28835       0
   28837   28838   28838       0   28840   28841   28841       0   28843   28844
   28844       0   28846   28847   28847       0   28849   28850   28850       0
   28852   28853   28853       0   28855   28856   28856       0   28858   28859
   28859       0   28861   28862   28862       0   28864   28865   28865       0
   28867   28868   28868       0   28870   28871   28871       0   28873   28874
   28874       0   28876   28877   28877       0   28879   28880   28880       0
   28882   28883   28883       0   28885   28886   28886       0   28888   28889
   28889       0   28891   28892   28892       0   28894   28895   28895       0
   28897   28898   28898       0   28900   28901   28901       0   28903   28904
   28904       0   28906   28907   28907       0   28909   28910   28910       0
   28912   28913   28913       0   28915   28916   28916       0   28918   28919
   28919       0   28921   28922   28922       0   28924   28925   28925       0
   28927   28928   28928       0   28930   28931   28931       0   28933   28934
   28934       0   28936   28937   28937       0   28939   28940   28940       0
   28942   28943   28943       0   28945   28946   28946       0   28948   28949
   28949       0   28951   28952   28952       0   28954   28955   28955       0
   28957   28958   28958       0   28960   28961   28961       0   28963   28964
   28964       0   28966   28967   28967       0   28969   28970   28970       0
   28972   28973   28973       0   28975   28976   28976       0   28978   28979
   28979       0   28981   28982   28982       0   28984   28985   28985       0
   28987   28988   28988       0   28990   28991   28991       0   28993   28994
   28994       0   28996   28997   28997       0   28999   29000   29000       0
   29002   29003   29003       0   29005   29006   29006       0   29008   29009
   29009       0   29011   29012   29012       0   29014   29015   29015       0
   29017   29018   29018       0   29020   29021   29021       0   29023   29024
   29024       0   29026   29027   29027       0   29029   29030   29030       0
   29032   29033   29033       0   29035   29036   29036       0   29038   29039
   29039       0   29041   29042   29042       0   29044   29045   29045       0
   29047   29048   29048       0   29050   29051   29051       0   29053   29054
   29054       0   29056   29057   29057       0   29059   29060   29060       0
   29062   29063   29063       0   29065   29066   29066       0   29068   29069
   29069       0   29071   29072   29072       0   29074   29075   29075       0
   29077   29078   29078       0   29080   29081   29081       0   29083   29084
   29084       0   29086   29087   29087       0   29089   29090   29090       0
   29092   29093   29093       0   29095   29096   29096       0   29098   29099
   29099       0   29101   29102   29102       0   29104   29105   29105       0
   29107   29108   29108       0   29110   29111   29111       0   29113   29114
   29114       0   29116   29117   29117       0   29119   29120   29120       0
   29122   29123   29123       0   29125   29126   29126       0   29128   29129
   29129       0   29131   29132   29132       0   29134   29135   29135       0
   29137   29138   29138       0   29140   29141   29141       0   29143   29144
   29144       0   29146   29147   29147       0   29149   29150   29150       0
   29152   29153   29153       0   29155   29156   29156       0   29158   29159
   29159       0   29161   29162   29162       0   29164   29165   29165       0
   29167   29168   29168       0   29170   29171   29171       0   29173   29174
   29174       0   29176   29177   29177       0   29179   29180   29180       0
   29182   29183   29183       0   29185   29186   29186       0   29188   29189
   29189       0   29191   29192   29192       0   29194   29195   29195       0
   29197   29198   29198       0   29200   29201   29201       0   29203   29204
   29204       0   29206   29207   29207       0   29209   29210   29210       0
   29212   29213   29213       0   29215   29216   29216       0   29218   29219
   29219       0   29221   29222   29222       0   29224   29225   29225       0
   29227   29228   29228       0   29230   29231   29231       0   29233   29234
   29234       0   29236   29237   29237       0   29239   29240   29240       0
   29242   29243   29243       0   29245   29246   29246       0   29248   29249
   29249       0   29251   29252   29252       0   29254   29255   29255       0
   29257   29258   29258       0   29260   29261   29261       0   29263   29264
   29264       0   29266   29267   29267       0   29269   29270   29270       0
   29272   29273   29273       0   29275   29276   29276       0   29278   29279
   29279       0   29281   29282   29282       0   29284   29285   29285       0
   29287   29288   29288       0   29290   29291   29291       0   29293   29294
   29294       0   29296   29297   29297       0   29299   29300   29300       0
   29302   29303   29303       0   29305   29306   29306       0   29308   29309
   29309       0   29311   29312   29312       0   29314   29315   29315       0
   29317   29318   29318       0   29320   29321   29321       0   29323   29324
   29324       0   29326   29327   29327       0   29329   29330   29330       0
   29332   29333   29333       0   29335   29336   29336       0   29338   29339
   29339       0   29341   29342   29342       0   29344   29345   29345       0
   29347   29348   29348       0   29350   29351   29351       0   29353   29354
   29354       0   29356   29357   29357       0   29359   29360   29360       0
   29362   29363   29363       0   29365   29366   29366       0   29368   29369
   29369       0   29371   29372   29372       0   29374   29375   29375       0
   29377   29378   29378       0   29380   29381   29381       0   29383   29384
   29384       0   29386   29387   29387       0   29389   29390   29390       0
   29392   29393   29393       0   29395   29396   29396       0   29398   29399
   29399       0   29401   29402   29402       0   29404   29405   29405       0
   29407   29408   29408       0   29410   29411   29411       0   29413   29414
   29414       0   29416   29417   29417       0   29419   29420   29420       0
   29422   29423   29423       0   29425   29426   29426       0   29428   29429
   29429       0   29431   29432   29432       0   29434   29435   29435       0
   29437   29438   29438       0   29440   29441   29441       0   29443   29444
   29444       0   29446   29447   29447       0   29449   29450   29450       0
   29452   29453   29453       0   29455   29456   29456       0   29458   29459
   29459       0   29461   29462   29462       0   29464   29465   29465       0
   29467   29468   29468       0   29470   29471   29471       0   29473   29474
   29474       0   29476   29477   29477       0   29479   29480   29480       0
   29482   29483   29483       0   29485   29486   29486       0   29488   29489
   29489       0   29491   29492   29492       0   29494   29495   29495       0
   29497   29498   29498       0   29500   29501   29501       0   29503   29504
   29504       0   29506   29507   29507       0   29509   29510   29510       0
   29512   29513   29513       0   29515   29516   29516       0   29518   29519
   29519       0   29521   29522   29522       0   29524   29525   29525       0
   29527   29528   29528       0   29530   29531   29531       0   29533   29534
   29534       0   29536   29537   29537       0   29539   29540   29540       0
   29542   29543   29543       0   29545   29546   29546       0   29548   29549
   29549       0   29551   29552   29552       0   29554   29555   29555       0
   29557   29558   29558       0   29560   29561   29561       0   29563   29564
   29564       0   29566   29567   29567       0   29569   29570   29570       0
   29572   29573   29573       0   29575   29576   29576       0   29578   29579
   29579       0   29581   29582   29582       0   29584   29585   29585       0
   29587   29588   29588       0   29590   29591   29591       0   29593   29594
   29594       0   29596   29597   29597       0   29599   29600   29600       0
   29602   29603   29603       0   29605   29606   29606       0   29608   29609
   29609       0   29611   29612   29612       0   29614   29615   29615       0
   29617   29618   29618       0   29620   29621   29621       0   29623   29624
   29624       0   29626   29627   29627       0   29629   29630   29630       0
   29632   29633   29633       0   29635   29636   29636       0   29638   29639
   29639       0   29641   29642   29642       0   29644   29645   29645       0
   29647   29648   29648       0   29650   29651   29651       0   29653   29654
   29654       0   29656   29657   29657       0   29659   29660   29660       0
   29662   29663   29663       0   29665   29666   29666       0   29668   29669
   29669       0   29671   29672   29672       0   29674   29675   29675       0
   29677   29678   29678       0   29680   29681   29681       0   29683   29684
   29684       0   29686   29687   29687       0   29689   29690   29690       0
   29692   29693   29693       0   29695   29696   29696       0   29698   29699
   29699       0   29701   29702   29702       0   29704   29705   29705       0
   29707   29708   29708       0   29710   29711   29711       0   29713   29714
   29714       0   29716   29717   29717       0   29719   29720   29720       0
   29722   29723   29723       0   29725   29726   29726       0   29728   29729
   29729       0   29731   29732   29732       0   29734   29735   29735       0
   29737   29738   29738       0   29740   29741   29741       0   29743   29744
   29744       0   29746   29747   29747       0   29749   29750   29750       0
   29752   29753   29753       0   29755   29756   29756       0   29758   29759
   29759       0   29761   29762   29762       0   29764   29765   29765       0
   29767   29768   29768       0   29770   29771   29771       0   29773   29774
   29774       0   29776   29777   29777       0   29779   29780   29780       0
   29782   29783   29783       0   29785   29786   29786       0   29788   29789
   29789       0   29791   29792   29792       0   29794   29795   29795       0
   29797   29798   29798       0   29800   29801   29801       0   29803   29804
   29804       0   29806   29807   29807       0   29809   29810   29810       0
   29812   29813   29813       0   29815   29816   29816       0   29818   29819
   29819       0   29821   29822   29822       0   29824   29825   29825       0
   29827   29828   29828       0   29830   29831   29831       0   29833   29834
   29834       0   29836   29837   29837       0   29839   29840   29840       0
   29842   29843   29843       0   29845   29846   29846       0   29848   29849
   29849       0   29851   29852   29852       0   29854   29855   29855       0
   29857   29858   29858       0   29860   29861   29861       0   29863   29864
   29864       0   29866   29867   29867       0   29869   29870   29870       0
   29872   29873   29873       0   29875   29876   29876       0   29878   29879
   29879       0   29881   29882   29882       0   29884   29885   29885       0
   29887   29888   29888       0   29890   29891   29891       0   29893   29894
   29894       0   29896   29897   29897       0   29899   29900   29900       0
   29902   29903   29903       0   29905   29906   29906       0   29908   29909
   29909       0   29911   29912   29912       0   29914   29915   29915       0
   29917   29918   29918       0   29920   29921   29921       0   29923   29924
   29924       0   29926   29927   29927       0   29929   29930   29930       0
   29932   29933   29933       0   29935   29936   29936       0   29938   29939
   29939       0   29941   29942   29942       0   29944   29945   29945       0
   29947   29948   29948       0   29950   29951   29951       0   29953   29954
   29954       0   29956   29957   29957       0   29959   29960   29960       0
   29962   29963   29963       0   29965   29966   29966       0   29968   29969
   29969       0   29971   29972   29972       0   29974   29975   29975       0
   29977   29978   29978       0   29980   29981   29981       0   29983   29984
   29984       0   29986   29987   29987       0   29989   29990   29990       0
   29992   29993   29993       0   29995   29996   29996       0   29998   29999
   29999       0   30001   30002   30002       0   30004   30005   30005       0
   30007   30008   30008       0   30010   30011   30011       0   30013   30014
   30014       0   30016   30017   30017       0   30019   30020   30020       0
   30022   30023   30023       0   30025   30026   30026       0   30028   30029
   30029       0   30031   30032   30032       0   30034   30035   30035       0
   30037   30038   30038       0   30040   30041   30041       0   30043   30044
   30044       0   30046   30047   30047       0   30049   30050   30050       0
   30052   30053   30053       0   30055   30056   30056       0   30058   30059
   30059       0   30061   30062   30062       0   30064   30065   30065       0
   30067   30068   30068       0   30070   30071   30071       0   30073   30074
   30074       0   30076   30077   30077       0   30079   30080   30080       0
   30082   30083   30083       0   30085   30086   30086       0   30088   30089
   30089       0   30091   30092   30092       0   30094   30095   30095       0
   30097   30098   30098       0   30100   30101   30101       0   30103   30104
   30104       0   30106   30107   30107       0   30109   30110   30110       0
   30112   30113   30113       0   30115   30116   30116       0   30118   30119
   30119       0   30121   30122   30122       0   30124   30125   30125       0
   30127   30128   30128       0   30130   30131   30131       0   30133   30134
   30134       0   30136   30137   30137       0   30139   30140   30140       0
   30142   30143   30143       0   30145   30146   30146       0   30148   30149
   30149       0   30151   30152   30152       0   30154   30155   30155       0
   30157   30158   30158       0   30160   30161   30161       0   30163   30164
   30164       0   30166   30167   30167       0   30169   30170   30170       0
   30172   30173   30173       0   30175   30176   30176       0   30178   30179
   30179       0   30181   30182   30182       0   30184   30185   30185       0
   30187   30188   30188       0   30190   30191   30191       0   30193   30194
   30194       0   30196   30197   30197       0   30199   30200   30200       0
   30202   30203   30203       0   30205   30206   30206       0   30208   30209
   30209       0   30211   30212   30212       0   30214   30215   30215       0
   30217   30218   30218       0   30220   30221   30221       0   30223   30224
   30224       0   30226   30227   30227       0   30229   30230   30230       0
   30232   30233   30233       0   30235   30236   30236       0   30238   30239
   30239       0   30241   30242   30242       0   30244   30245   30245       0
   30247   30248   30248       0   30250   30251   30251       0   30253   30254
   30254       0   30256   30257   30257       0   30259   30260   30260       0
   30262   30263   30263       0   30265   30266   30266       0   30268   30269
   30269       0   30271   30272   30272       0   30274   30275   30275       0
   30277   30278   30278       0   30280   30281   30281       0   30283   30284
   30284       0   30286   30287   30287       0   30289   30290   30290       0
   30292   30293   30293       0   30295   30296   30296       0   30298   30299
   30299       0   30301   30302   30302       0   30304   30305   30305       0
   30307   30308   30308       0   30310   30311   30311       0   30313   30314
   30314       0   30316   30317   30317       0   30319   30320   30320       0
   30322   30323   30323       0   30325   30326   30326       0   30328   30329
   30329       0   30331   30332   30332       0   30334   30335   30335       0
   30337   30338   30338       0   30340   30341   30341       0   30343   30344
   30344       0   30346   30347   30347       0   30349   30350   30350       0
   30352   30353   30353       0   30355   30356   30356       0   30358   30359
   30359       0   30361   30362   30362       0   30364   30365   30365       0
   30367   30368   30368       0   30370   30371   30371       0   30373   30374
   30374       0   30376   30377   30377       0   30379   30380   30380       0
   30382   30383   30383       0   30385   30386   30386       0   30388   30389
   30389       0   30391   30392   30392       0   30394   30395   30395       0
   30397   30398   30398       0   30400   30401   30401       0   30403   30404
   30404       0   30406   30407   30407       0   30409   30410   30410       0
   30412   30413   30413       0   30415   30416   30416       0   30418   30419
   30419       0   30421   30422   30422       0   30424   30425   30425       0
   30427   30428   30428       0   30430   30431   30431       0   30433   30434
   30434       0   30436   30437   30437       0   30439   30440   30440       0
   30442   30443   30443       0   30445   30446   30446       0   30448   30449
   30449       0   30451   30452   30452       0   30454   30455   30455       0
   30457   30458   30458       0   30460   30461   30461       0   30463   30464
   30464       0   30466   30467   30467       0   30469   30470   30470       0
   30472   30473   30473       0   30475   30476   30476       0   30478   30479
   30479       0   30481   30482   30482       0   30484   30485   30485       0
   30487   30488   30488       0   30490   30491   30491       0   30493   30494
   30494       0   30496   30497   30497       0   30499   30500   30500       0
   30502   30503   30503       0   30505   30506   30506       0   30508   30509
   30509       0   30511   30512   30512       0   30514   30515   30515       0
   30517   30518   30518       0   30520   30521   30521       0   30523   30524
   30524       0   30526   30527   30527       0   30529   30530   30530       0
   30532   30533   30533       0   30535   30536   30536       0   30538   30539
   30539       0   30541   30542   30542       0   30544   30545   30545       0
   30547   30548   30548       0   30550   30551   30551       0   30553   30554
   30554       0   30556   30557   30557       0   30559   30560   30560       0
   30562   30563   30563       0   30565   30566   30566       0   30568   30569
   30569       0   30571   30572   30572       0   30574   30575   30575       0
   30577   30578   30578       0   30580   30581   30581       0   30583   30584
   30584       0   30586   30587   30587       0   30589   30590   30590       0
   30592   30593   30593       0   30595   30596   30596       0   30598   30599
   30599       0   30601   30602   30602       0   30604   30605   30605       0
   30607   30608   30608       0   30610   30611   30611       0   30613   30614
   30614       0   30616   30617   30617       0   30619   30620   30620       0
   30622   30623   30623       0   30625   30626   30626       0   30628   30629
   30629       0   30631   30632   30632       0   30634   30635   30635       0
   30637   30638   30638       0   30640   30641   30641       0   30643   30644
   30644       0   30646   30647   30647       0   30649   30650   30650       0
   30652   30653   30653       0   30655   30656   30656       0   30658   30659
   30659       0   30661   30662   30662       0   30664   30665   30665       0
   30667   30668   30668       0   30670   30671   30671       0   30673   30674
   30674       0   30676   30677   30677       0   30679   30680   30680       0
   30682   30683   30683       0   30685   30686   30686       0   30688   30689
   30689       0   30691   30692   30692       0   30694   30695   30695       0
   30697   30698   30698       0   30700   30701   30701       0   30703   30704
   30704       0   30706   30707   30707       0   30709   30710   30710       0
   30712   30713   30713       0   30715   30716   30716       0   30718   30719
   30719       0   30721   30722   30722       0   30724   30725   30725       0
   30727   30728   30728       0   30730   30731   30731       0   30733   30734
   30734       0   30736   30737   30737       0   30739   30740   30740       0
   30742   30743   30743       0   30745   30746   30746       0   30748   30749
   30749       0   30751   30752   30752       0   30754   30755   30755       0
   30757   30758   30758       0   30760   30761   30761       0   30763   30764
   30764       0   30766   30767   30767       0   30769   30770   30770       0
   30772   30773   30773       0   30775   30776   30776       0   30778   30779
   30779       0   30781   30782   30782       0   30784   30785   30785       0
   30787   30788   30788       0   30790   30791   30791       0   30793   30794
   30794       0   30796   30797   30797       0   30799   30800   30800       0
   30802   30803   30803       0   30805   30806   30806       0   30808   30809
   30809       0   30811   30812   30812       0   30814   30815   30815       0
   30817   30818   30818       0   30820   30821   30821       0   30823   30824
   30824       0   30826   30827   30827       0   30829   30830   30830       0
   30832   30833   30833       0   30835   30836   30836       0   30838   30839
   30839       0   30841   30842   30842       0   30844   30845   30845       0
   30847   30848   30848       0   30850   30851   30851       0   30853   30854
   30854       0   30856   30857   30857       0   30859   30860   30860       0
   30862   30863   30863       0   30865   30866   30866       0   30868   30869
   30869       0   30871   30872   30872       0   30874   30875   30875       0
   30877   30878   30878       0   30880   30881   30881       0   30883   30884
   30884       0   30886   30887   30887       0   30889   30890   30890       0
   30892   30893   30893       0   30895   30896   30896       0   30898   30899
   30899       0   30901   30902   30902       0   30904   30905   30905       0
   30907   30908   30908       0   30910   30911   30911       0   30913   30914
   30914       0   30916   30917   30917       0   30919   30920   30920       0
   30922   30923   30923       0   30925   30926   30926       0   30928   30929
   30929       0   30931   30932   30932       0   30934   30935   30935       0
   30937   30938   30938       0   30940   30941   30941       0   30943   30944
   30944       0   30946   30947   30947       0   30949   30950   30950       0
   30952   30953   30953       0   30955   30956   30956       0   30958   30959
   30959       0   30961   30962   30962       0   30964   30965   30965       0
   30967   30968   30968       0   30970   30971   30971       0   30973   30974
   30974       0   30976   30977   30977       0   30979   30980   30980       0
   30982   30983   30983       0   30985   30986   30986       0   30988   30989
   30989       0   30991   30992   30992       0   30994   30995   30995       0
   30997   30998   30998       0   31000   31001   31001       0   31003   31004
   31004       0   31006   31007   31007       0   31009   31010   31010       0
   31012   31013   31013       0   31015   31016   31016       0   31018   31019
   31019       0   31021   31022   31022       0   31024   31025   31025       0
   31027   31028   31028       0   31030   31031   31031       0   31033   31034
   31034       0   31036   31037   31037       0   31039   31040   31040       0
   31042   31043   31043       0   31045   31046   31046       0   31048   31049
   31049       0   31051   31052   31052       0   31054   31055   31055       0
   31057   31058   31058       0   31060   31061   31061       0   31063   31064
   31064       0   31066   31067   31067       0   31069   31070   31070       0
   31072   31073   31073       0   31075   31076   31076       0   31078   31079
   31079       0   31081   31082   31082       0   31084   31085   31085       0
   31087   31088   31088       0   31090   31091   31091       0   31093   31094
   31094       0   31096   31097   31097       0   31099   31100   31100       0
   31102   31103   31103       0   31105   31106   31106       0   31108   31109
   31109       0   31111   31112   31112       0   31114   31115   31115       0
   31117   31118   31118       0   31120   31121   31121       0   31123   31124
   31124       0   31126   31127   31127       0
%FLAG HBOND_ACOEF                                                               
%FORMAT(5E16.8)                                                                 

%FLAG HBOND_BCOEF                                                               
%FORMAT(5E16.8)                                                                 

%FLAG HBCUT                                                                     
%FORMAT(5E16.8)                                                                 

%FLAG AMBER_ATOM_TYPE                                                           
%FORMAT(20a4)                                                                   
n3  c3  o   c3  n3  o   c3  n3  o   c3  o   c3  o   c3  o   c3  c   c3  c   c3  
c   h1  h1  h1  h1  h1  h1  h1  h1  h1  h1  h1  h1  h1  h1  h1  h1  h1  h1  Zn2+
Na+ OW  HW  HW  OW  HW  HW  OW  HW  HW  OW  HW  HW  OW  HW  HW  OW  HW  HW  OW  
HW  HW  OW  HW  HW  OW  HW  HW  OW  HW  HW  OW  HW  HW  OW  HW  HW  OW  HW  HW  
OW  HW  HW  OW  HW  HW  OW  HW  HW  OW  HW  HW  OW  HW  HW  OW  HW  HW  OW  HW  
HW  OW  HW  HW  OW  HW  HW  OW  HW  HW  OW  HW  HW  OW  HW  HW  OW  HW  HW  OW  
HW  HW  OW  HW  HW  OW  HW  HW  OW  HW  HW  OW  HW  HW  OW  HW  HW  OW  HW  HW  
OW  HW  HW  OW  HW  HW  OW  HW  HW  OW  HW  HW  OW  HW  HW  OW  HW  HW  OW  HW  
HW  OW  HW  HW  OW  HW  HW  OW  HW  HW  OW  HW  HW  OW  HW  HW  OW  HW  HW  OW  
HW  HW  OW  HW  HW  OW  HW  HW  OW  HW  HW  OW  HW  HW  OW  HW  HW  OW  HW  HW  
OW  HW  HW  OW  HW  HW  OW  HW  HW  OW  HW  HW  OW  HW  HW  OW  HW  HW  OW  HW  
HW  OW  HW  HW  OW  HW  HW  OW  HW  HW  OW  HW  HW  OW  HW  HW  OW  HW  HW  OW  
HW  HW  OW  HW  HW  OW  HW  HW  OW  HW  HW  OW  HW  HW  OW  HW  HW  OW  HW  HW  
OW  HW  HW  OW  HW  HW  OW  HW  HW  OW  HW  HW  OW  HW  HW  OW  HW  HW  OW  HW  
HW  OW  HW  HW  OW  HW  HW  OW  HW  HW  OW  HW  HW  OW  HW  HW  OW  HW  HW  OW  
HW  HW  OW  HW  HW  OW  HW  HW  OW  HW  HW  OW  HW  HW  OW  HW  HW  OW  HW  HW  
OW  HW  HW  OW  HW  HW  OW  HW  HW  OW  HW  HW  OW  HW  HW  OW  HW  HW  OW  HW  
HW  OW  HW  HW  OW  HW  HW  OW  HW  HW  OW  HW  HW  OW  HW  HW  OW  HW  HW  OW  
HW  HW  OW  HW  HW  OW  HW  HW  OW  HW  HW  OW  HW  HW  OW  HW  HW  OW  HW  HW  
OW  HW  HW  OW  HW  HW  OW  HW  HW  OW  HW  HW  OW  HW  HW  OW  HW  HW  OW  HW  
HW  OW  HW  HW  OW  HW  HW  OW  HW  HW  OW  HW  HW  OW  HW  HW  OW  HW  HW  OW  
HW  HW  OW  HW  HW  OW  HW  HW  OW  HW  HW  OW  HW  HW  OW  HW  HW  OW  HW  HW  
OW  HW  HW  OW  HW  HW  OW  HW  HW  OW  HW  HW  OW  HW  HW  OW  HW  HW  OW  HW  
HW  OW  HW  HW  OW  HW  HW  OW  HW  HW  OW  HW  HW  OW  HW  HW  OW  HW  HW  OW  
HW  HW  OW  HW  HW  OW  HW  HW  OW  HW  HW  OW  HW  HW  OW  HW  HW  OW  HW  HW  
OW  HW  HW  OW  HW  HW  OW  HW  HW  OW  HW  HW  OW  HW  HW  OW  HW  HW  OW  HW  
HW  OW  HW  HW  OW  HW  HW  OW  HW  HW  OW  HW  HW  OW  HW  HW  OW  HW  HW  OW  
HW  HW  OW  HW  HW  OW  HW  HW  OW  HW  HW  OW  HW  HW  OW  HW  HW  OW  HW  HW  
OW  HW  HW  OW  HW  HW  OW  HW  HW  OW  HW  HW  OW  HW  HW  OW  HW  HW  OW  HW  
HW  OW  HW  HW  OW  HW  HW  OW  HW  HW  OW  HW  HW  OW  HW  HW  OW  HW  HW  OW  
HW  HW  OW  HW  HW  OW  HW  HW  OW  HW  HW  OW  HW  HW  OW  HW  HW  OW  HW  HW  
OW  HW  HW  OW  HW  HW  OW  HW  HW  OW  HW  HW  OW  HW  HW  OW  HW  HW  OW  HW  
HW  OW  HW  HW  OW  HW  HW  OW  HW  HW  OW  HW  HW  OW  HW  HW  OW  HW  HW  OW  
HW  HW  OW  HW  HW  OW  HW  HW  OW  HW  HW  OW  HW  HW  OW  HW  HW  OW  HW  HW  
OW  HW  HW  OW  HW  HW  OW  HW  HW  OW  HW  HW  OW  HW  HW  OW  HW  HW  OW  HW  
HW  OW  HW  HW  OW  HW  HW  OW  HW  HW  OW  HW  HW  OW  HW  HW  OW  HW  HW  OW  
HW  HW  OW  HW  HW  OW  HW  HW  OW  HW  HW  OW  HW  HW  OW  HW  HW  OW  HW  HW  
OW  HW  HW  OW  HW  HW  OW  HW  HW  OW  HW  HW  OW  HW  HW  OW  HW  HW  OW  HW  
HW  OW  HW  HW  OW  HW  HW  OW  HW  HW  OW  HW  HW  OW  HW  HW  OW  HW  HW  OW  
HW  HW  OW  HW  HW  OW  HW  HW  OW  HW  HW  OW  HW  HW  OW  HW  HW  OW  HW  HW  
OW  HW  HW  OW  HW  HW  OW  HW  HW  OW  HW  HW  OW  HW  HW  OW  HW  HW  OW  HW  
HW  OW  HW  HW  OW  HW  HW  OW  HW  HW  OW  HW  HW  OW  HW  HW  OW  HW  HW  OW  
HW  HW  OW  HW  HW  OW  HW  HW  OW  HW  HW  OW  HW  HW  OW  HW  HW  OW  HW  HW  
OW  HW  HW  OW  HW  HW  OW  HW  HW  OW  HW  HW  OW  HW  HW  OW  HW  HW  OW  HW  
HW  OW  HW  HW  OW  HW  HW  OW  HW  HW  OW  HW  HW  OW  HW  HW  OW  HW  HW  OW  
HW  HW  OW  HW  HW  OW  HW  HW  OW  HW  HW  OW  HW  HW  OW  HW  HW  OW  HW  HW  
OW  HW  HW  OW  HW  HW  OW  HW  HW  OW  HW  HW  OW  HW  HW  OW  HW  HW  OW  HW  
HW  OW  HW  HW  OW  HW  HW  OW  HW  HW  OW  HW  HW  OW  HW  HW  OW  HW  HW  OW  
HW  HW  OW  HW  HW  OW  HW  HW  OW  HW  HW  OW  HW  HW  OW  HW  HW  OW  HW  HW  
OW  HW  HW  OW  HW  HW  OW  HW  HW  OW  HW  HW  OW  HW  HW  OW  HW  HW  OW  HW  
HW  OW  HW  HW  OW  HW  HW  OW  HW  HW  OW  HW  HW  OW  HW  HW  OW  HW  HW  OW  
HW  HW  OW  HW  HW  OW  HW  HW  OW  HW  HW  OW  HW  HW  OW  HW  HW  OW  HW  HW  
OW  HW  HW  OW  HW  HW  OW  HW  HW  OW  HW  HW  OW  HW  HW  OW  HW  HW  OW  HW  
HW  OW  HW  HW  OW  HW  HW  OW  HW  HW  OW  HW  HW  OW  HW  HW  OW  HW  HW  OW  
HW  HW  OW  HW  HW  OW  HW  HW  OW  HW  HW  OW  HW  HW  OW  HW  HW  OW  HW  HW  
OW  HW  HW  OW  HW  HW  OW  HW  HW  OW  HW  HW  OW  HW  HW  OW  HW  HW  OW  HW  
HW  OW  HW  HW  OW  HW  HW  OW  HW  HW  OW  HW  HW  OW  HW  HW  OW  HW  HW  OW  
HW  HW  OW  HW  HW  OW  HW  HW  OW  HW  HW  OW  HW  HW  OW  HW  HW  OW  HW  HW  
OW  HW  HW  OW  HW  HW  OW  HW  HW  OW  HW  HW  OW  HW  HW  OW  HW  HW  OW  HW  
HW  OW  HW  HW  OW  HW  HW  OW  HW  HW  OW  HW  HW  OW  HW  HW  OW  HW  HW  OW  
HW  HW  OW  HW  HW  OW  HW  HW  OW  HW  HW  OW  HW  HW  OW  HW  HW  OW  HW  HW  
OW  HW  HW  OW  HW  HW  OW  HW  HW  OW  HW  HW  OW  HW  HW  OW  HW  HW  OW  HW  
HW  OW  HW  HW  OW  HW  HW  OW  HW  HW  OW  HW  HW  OW  HW  HW  OW  HW  HW  OW  
HW  HW  OW  HW  HW  OW  HW  HW  OW  HW  HW  OW  HW  HW  OW  HW  HW  OW  HW  HW  
OW  HW  HW  OW  HW  HW  OW  HW  HW  OW  HW  HW  OW  HW  HW  OW  HW  HW  OW  HW  
HW  OW  HW  HW  OW  HW  HW  OW  HW  HW  OW  HW  HW  OW  HW  HW  OW  HW  HW  OW  
HW  HW  OW  HW  HW  OW  HW  HW  OW  HW  HW  OW  HW  HW  OW  HW  HW  OW  HW  HW  
OW  HW  HW  OW  HW  HW  OW  HW  HW  OW  HW  HW  OW  HW  HW  OW  HW  HW  OW  HW  
HW  OW  HW  HW  OW  HW  HW  OW  HW  HW  OW  HW  HW  OW  HW  HW  OW  HW  HW  OW  
HW  HW  OW  HW  HW  OW  HW  HW  OW  HW  HW  OW  HW  HW  OW  HW  HW  OW  HW  HW  
OW  HW  HW  OW  HW  HW  OW  HW  HW  OW  HW  HW  OW  HW  HW  OW  HW  HW  OW  HW  
HW  OW  HW  HW  OW  HW  HW  OW  HW  HW  OW  HW  HW  OW  HW  HW  OW  HW  HW  OW  
HW  HW  OW  HW  HW  OW  HW  HW  OW  HW  HW  OW  HW  HW  OW  HW  HW  OW  HW  HW  
OW  HW  HW  OW  HW  HW  OW  HW  HW  OW  HW  HW  OW  HW  HW  OW  HW  HW  OW  HW  
HW  OW  HW  HW  OW  HW  HW  OW  HW  HW  OW  HW  HW  OW  HW  HW  OW  HW  HW  OW  
HW  HW  OW  HW  HW  OW  HW  HW  OW  HW  HW  OW  HW  HW  OW  HW  HW  OW  HW  HW  
OW  HW  HW  OW  HW  HW  OW  HW  HW  OW  HW  HW  OW  HW  HW  OW  HW  HW  OW  HW  
HW  OW  HW  HW  OW  HW  HW  OW  HW  HW  OW  HW  HW  OW  HW  HW  OW  HW  HW  OW  
HW  HW  OW  HW  HW  OW  HW  HW  OW  HW  HW  OW  HW  HW  OW  HW  HW  OW  HW  HW  
OW  HW  HW  OW  HW  HW  OW  HW  HW  OW  HW  HW  OW  HW  HW  OW  HW  HW  OW  HW  
HW  OW  HW  HW  OW  HW  HW  OW  HW  HW  OW  HW  HW  OW  HW  HW  OW  HW  HW  OW  
HW  HW  OW  HW  HW  OW  HW  HW  OW  HW  HW  OW  HW  HW  OW  HW  HW  OW  HW  HW  
OW  HW  HW  OW  HW  HW  OW  HW  HW  OW  HW  HW  OW  HW  HW  OW  HW  HW  OW  HW  
HW  OW  HW  HW  OW  HW  HW  OW  HW  HW  OW  HW  HW  OW  HW  HW  OW  HW  HW  OW  
HW  HW  OW  HW  HW  OW  HW  HW  OW  HW  HW  OW  HW  HW  OW  HW  HW  OW  HW  HW  
OW  HW  HW  OW  HW  HW  OW  HW  HW  OW  HW  HW  OW  HW  HW  OW  HW  HW  OW  HW  
HW  OW  HW  HW  OW  HW  HW  OW  HW  HW  OW  HW  HW  OW  HW  HW  OW  HW  HW  OW  
HW  HW  OW  HW  HW  OW  HW  HW  OW  HW  HW  OW  HW  HW  OW  HW  HW  OW  HW  HW  
OW  HW  HW  OW  HW  HW  OW  HW  HW  OW  HW  HW  OW  HW  HW  OW  HW  HW  OW  HW  
HW  OW  HW  HW  OW  HW  HW  OW  HW  HW  OW  HW  HW  OW  HW  HW  OW  HW  HW  OW  
HW  HW  OW  HW  HW  OW  HW  HW  OW  HW  HW  OW  HW  HW  OW  HW  HW  OW  HW  HW  
OW  HW  HW  OW  HW  HW  OW  HW  HW  OW  HW  HW  OW  HW  HW  OW  HW  HW  OW  HW  
HW  OW  HW  HW  OW  HW  HW  OW  HW  HW  OW  HW  HW  OW  HW  HW  OW  HW  HW  OW  
HW  HW  OW  HW  HW  OW  HW  HW  OW  HW  HW  OW  HW  HW  OW  HW  HW  OW  HW  HW  
OW  HW  HW  OW  HW  HW  OW  HW  HW  OW  HW  HW  OW  HW  HW  OW  HW  HW  OW  HW  
HW  OW  HW  HW  OW  HW  HW  OW  HW  HW  OW  HW  HW  OW  HW  HW  OW  HW  HW  OW  
HW  HW  OW  HW  HW  OW  HW  HW  OW  HW  HW  OW  HW  HW  OW  HW  HW  OW  HW  HW  
OW  HW  HW  OW  HW  HW  OW  HW  HW  OW  HW  HW  OW  HW  HW  OW  HW  HW  OW  HW  
HW  OW  HW  HW  OW  HW  HW  OW  HW  HW  OW  HW  HW  OW  HW  HW  OW  HW  HW  OW  
HW  HW  OW  HW  HW  OW  HW  HW  OW  HW  HW  OW  HW  HW  OW  HW  HW  OW  HW  HW  
OW  HW  HW  OW  HW  HW  OW  HW  HW  OW  HW  HW  OW  HW  HW  OW  HW  HW  OW  HW  
HW  OW  HW  HW  OW  HW  HW  OW  HW  HW  OW  HW  HW  OW  HW  HW  OW  HW  HW  OW  
HW  HW  OW  HW  HW  OW  HW  HW  OW  HW  HW  OW  HW  HW  OW  HW  HW  OW  HW  HW  
OW  HW  HW  OW  HW  HW  OW  HW  HW  OW  HW  HW  OW  HW  HW  OW  HW  HW  OW  HW  
HW  OW  HW  HW  OW  HW  HW  OW  HW  HW  OW  HW  HW  OW  HW  HW  OW  HW  HW  OW  
HW  HW  OW  HW  HW  OW  HW  HW  OW  HW  HW  OW  HW  HW  OW  HW  HW  OW  HW  HW  
OW  HW  HW  OW  HW  HW  OW  HW  HW  OW  HW  HW  OW  HW  HW  OW  HW  HW  OW  HW  
HW  OW  HW  HW  OW  HW  HW  OW  HW  HW  OW  HW  HW  OW  HW  HW  OW  HW  HW  OW  
HW  HW  OW  HW  HW  OW  HW  HW  OW  HW  HW  OW  HW  HW  OW  HW  HW  OW  HW  HW  
OW  HW  HW  OW  HW  HW  OW  HW  HW  OW  HW  HW  OW  HW  HW  OW  HW  HW  OW  HW  
HW  OW  HW  HW  OW  HW  HW  OW  HW  HW  OW  HW  HW  OW  HW  HW  OW  HW  HW  OW  
HW  HW  OW  HW  HW  OW  HW  HW  OW  HW  HW  OW  HW  HW  OW  HW  HW  OW  HW  HW  
OW  HW  HW  OW  HW  HW  OW  HW  HW  OW  HW  HW  OW  HW  HW  OW  HW  HW  OW  HW  
HW  OW  HW  HW  OW  HW  HW  OW  HW  HW  OW  HW  HW  OW  HW  HW  OW  HW  HW  OW  
HW  HW  OW  HW  HW  OW  HW  HW  OW  HW  HW  OW  HW  HW  OW  HW  HW  OW  HW  HW  
OW  HW  HW  OW  HW  HW  OW  HW  HW  OW  HW  HW  OW  HW  HW  OW  HW  HW  OW  HW  
HW  OW  HW  HW  OW  HW  HW  OW  HW  HW  OW  HW  HW  OW  HW  HW  OW  HW  HW  OW  
HW  HW  OW  HW  HW  OW  HW  HW  OW  HW  HW  OW  HW  HW  OW  HW  HW  OW  HW  HW  
OW  HW  HW  OW  HW  HW  OW  HW  HW  OW  HW  HW  OW  HW  HW  OW  HW  HW  OW  HW  
HW  OW  HW  HW  OW  HW  HW  OW  HW  HW  OW  HW  HW  OW  HW  HW  OW  HW  HW  OW  
HW  HW  OW  HW  HW  OW  HW  HW  OW  HW  HW  OW  HW  HW  OW  HW  HW  OW  HW  HW  
OW  HW  HW  OW  HW  HW  OW  HW  HW  OW  HW  HW  OW  HW  HW  OW  HW  HW  OW  HW  
HW  OW  HW  HW  OW  HW  HW  OW  HW  HW  OW  HW  HW  OW  HW  HW  OW  HW  HW  OW  
HW  HW  OW  HW  HW  OW  HW  HW  OW  HW  HW  OW  HW  HW  OW  HW  HW  OW  HW  HW  
OW  HW  HW  OW  HW  HW  OW  HW  HW  OW  HW  HW  OW  HW  HW  OW  HW  HW  OW  HW  
HW  OW  HW  HW  OW  HW  HW  OW  HW  HW  OW  HW  HW  OW  HW  HW  OW  HW  HW  OW  
HW  HW  OW  HW  HW  OW  HW  HW  OW  HW  HW  OW  HW  HW  OW  HW  HW  OW  HW  HW  
OW  HW  HW  OW  HW  HW  OW  HW  HW  OW  HW  HW  OW  HW  HW  OW  HW  HW  OW  HW  
HW  OW  HW  HW  OW  HW  HW  OW  HW  HW  OW  HW  HW  OW  HW  HW  OW  HW  HW  OW  
HW  HW  OW  HW  HW  OW  HW  HW  OW  HW  HW  OW  HW  HW  OW  HW  HW  OW  HW  HW  
OW  HW  HW  OW  HW  HW  OW  HW  HW  OW  HW  HW  OW  HW  HW  OW  HW  HW  OW  HW  
HW  OW  HW  HW  OW  HW  HW  OW  HW  HW  OW  HW  HW  OW  HW  HW  OW  HW  HW  OW  
HW  HW  OW  HW  HW  OW  HW  HW  OW  HW  HW  OW  HW  HW  OW  HW  HW  OW  HW  HW  
OW  HW  HW  OW  HW  HW  OW  HW  HW  OW  HW  HW  OW  HW  HW  OW  HW  HW  OW  HW  
HW  OW  HW  HW  OW  HW  HW  OW  HW  HW  OW  HW  HW  OW  HW  HW  OW  HW  HW  OW  
HW  HW  OW  HW  HW  OW  HW  HW  OW  HW  HW  OW  HW  HW  OW  HW  HW  OW  HW  HW  
OW  HW  HW  OW  HW  HW  OW  HW  HW  OW  HW  HW  OW  HW  HW  OW  HW  HW  OW  HW  
HW  OW  HW  HW  OW  HW  HW  OW  HW  HW  OW  HW  HW  OW  HW  HW  OW  HW  HW  OW  
HW  HW  OW  HW  HW  OW  HW  HW  OW  HW  HW  OW  HW  HW  OW  HW  HW  OW  HW  HW  
OW  HW  HW  OW  HW  HW  OW  HW  HW  OW  HW  HW  OW  HW  HW  OW  HW  HW  OW  HW  
HW  OW  HW  HW  OW  HW  HW  OW  HW  HW  OW  HW  HW  OW  HW  HW  OW  HW  HW  OW  
HW  HW  OW  HW  HW  OW  HW  HW  OW  HW  HW  OW  HW  HW  OW  HW  HW  OW  HW  HW  
OW  HW  HW  OW  HW  HW  OW  HW  HW  OW  HW  HW  OW  HW  HW  OW  HW  HW  OW  HW  
HW  OW  HW  HW  OW  HW  HW  OW  HW  HW  OW  HW  HW  OW  HW  HW  OW  HW  HW  OW  
HW  HW  OW  HW  HW  OW  HW  HW  OW  HW  HW  OW  HW  HW  OW  HW  HW  OW  HW  HW  
OW  HW  HW  OW  HW  HW  OW  HW  HW  OW  HW  HW  OW  HW  HW  OW  HW  HW  OW  HW  
HW  OW  HW  HW  OW  HW  HW  OW  HW  HW  OW  HW  HW  OW  HW  HW  OW  HW  HW  OW  
HW  HW  OW  HW  HW  OW  HW  HW  OW  HW  HW  OW  HW  HW  OW  HW  HW  OW  HW  HW  
OW  HW  HW  OW  HW  HW  OW  HW  HW  OW  HW  HW  OW  HW  HW  OW  HW  HW  OW  HW  
HW  OW  HW  HW  OW  HW  HW  OW  HW  HW  OW  HW  HW  OW  HW  HW  OW  HW  HW  OW  
HW  HW  OW  HW  HW  OW  HW  HW  OW  HW  HW  OW  HW  HW  OW  HW  HW  OW  HW  HW  
OW  HW  HW  OW  HW  HW  OW  HW  HW  OW  HW  HW  OW  HW  HW  OW  HW  HW  OW  HW  
HW  OW  HW  HW  OW  HW  HW  OW  HW  HW  OW  HW  HW  OW  HW  HW  OW  HW  HW  OW  
HW  HW  OW  HW  HW  OW  HW  HW  OW  HW  HW  OW  HW  HW  OW  HW  HW  OW  HW  HW  
OW  HW  HW  OW  HW  HW  OW  HW  HW  OW  HW  HW  OW  HW  HW  OW  HW  HW  OW  HW  
HW  OW  HW  HW  OW  HW  HW  OW  HW  HW  OW  HW  HW  OW  HW  HW  OW  HW  HW  OW  
HW  HW  OW  HW  HW  OW  HW  HW  OW  HW  HW  OW  HW  HW  OW  HW  HW  OW  HW  HW  
OW  HW  HW  OW  HW  HW  OW  HW  HW  OW  HW  HW  OW  HW  HW  OW  HW  HW  OW  HW  
HW  OW  HW  HW  OW  HW  HW  OW  HW  HW  OW  HW  HW  OW  HW  HW  OW  HW  HW  OW  
HW  HW  OW  HW  HW  OW  HW  HW  OW  HW  HW  OW  HW  HW  OW  HW  HW  OW  HW  HW  
OW  HW  HW  OW  HW  HW  OW  HW  HW  OW  HW  HW  OW  HW  HW  OW  HW  HW  OW  HW  
HW  OW  HW  HW  OW  HW  HW  OW  HW  HW  OW  HW  HW  OW  HW  HW  OW  HW  HW  OW  
HW  HW  OW  HW  HW  OW  HW  HW  OW  HW  HW  OW  HW  HW  OW  HW  HW  OW  HW  HW  
OW  HW  HW  OW  HW  HW  OW  HW  HW  OW  HW  HW  OW  HW  HW  OW  HW  HW  OW  HW  
HW  OW  HW  HW  OW  HW  HW  OW  HW  HW  OW  HW  HW  OW  HW  HW  OW  HW  HW  OW  
HW  HW  OW  HW  HW  OW  HW  HW  OW  HW  HW  OW  HW  HW  OW  HW  HW  OW  HW  HW  
OW  HW  HW  OW  HW  HW  OW  HW  HW  OW  HW  HW  OW  HW  HW  OW  HW  HW  OW  HW  
HW  OW  HW  HW  OW  HW  HW  OW  HW  HW  OW  HW  HW  OW  HW  HW  OW  HW  HW  OW  
HW  HW  OW  HW  HW  OW  HW  HW  OW  HW  HW  OW  HW  HW  OW  HW  HW  OW  HW  HW  
OW  HW  HW  OW  HW  HW  OW  HW  HW  OW  HW  HW  OW  HW  HW  OW  HW  HW  OW  HW  
HW  OW  HW  HW  OW  HW  HW  OW  HW  HW  OW  HW  HW  OW  HW  HW  OW  HW  HW  OW  
HW  HW  OW  HW  HW  OW  HW  HW  OW  HW  HW  OW  HW  HW  OW  HW  HW  OW  HW  HW  
OW  HW  HW  OW  HW  HW  OW  HW  HW  OW  HW  HW  OW  HW  HW  OW  HW  HW  OW  HW  
HW  OW  HW  HW  OW  HW  HW  OW  HW  HW  OW  HW  HW  OW  HW  HW  OW  HW  HW  OW  
HW  HW  OW  HW  HW  OW  HW  HW  OW  HW  HW  OW  HW  HW  OW  HW  HW  OW  HW  HW  
OW  HW  HW  OW  HW  HW  OW  HW  HW  OW  HW  HW  OW  HW  HW  OW  HW  HW  OW  HW  
HW  OW  HW  HW  OW  HW  HW  OW  HW  HW  OW  HW  HW  OW  HW  HW  OW  HW  HW  OW  
HW  HW  OW  HW  HW  OW  HW  HW  OW  HW  HW  OW  HW  HW  OW  HW  HW  OW  HW  HW  
OW  HW  HW  OW  HW  HW  OW  HW  HW  OW  HW  HW  OW  HW  HW  OW  HW  HW  OW  HW  
HW  OW  HW  HW  OW  HW  HW  OW  HW  HW  OW  HW  HW  OW  HW  HW  OW  HW  HW  OW  
HW  HW  OW  HW  HW  OW  HW  HW  OW  HW  HW  OW  HW  HW  OW  HW  HW  OW  HW  HW  
OW  HW  HW  OW  HW  HW  OW  HW  HW  OW  HW  HW  OW  HW  HW  OW  HW  HW  OW  HW  
HW  OW  HW  HW  OW  HW  HW  OW  HW  HW  OW  HW  HW  OW  HW  HW  OW  HW  HW  OW  
HW  HW  OW  HW  HW  OW  HW  HW  OW  HW  HW  OW  HW  HW  OW  HW  HW  OW  HW  HW  
OW  HW  HW  OW  HW  HW  OW  HW  HW  OW  HW  HW  OW  HW  HW  OW  HW  HW  OW  HW  
HW  OW  HW  HW  OW  HW  HW  OW  HW  HW  OW  HW  HW  OW  HW  HW  OW  HW  HW  OW  
HW  HW  OW  HW  HW  OW  HW  HW  OW  HW  HW  OW  HW  HW  OW  HW  HW  OW  HW  HW  
OW  HW  HW  OW  HW  HW  OW  HW  HW  OW  HW  HW  OW  HW  HW  OW  HW  HW  OW  HW  
HW  OW  HW  HW  OW  HW  HW  OW  HW  HW  OW  HW  HW  OW  HW  HW  OW  HW  HW  OW  
HW  HW  OW  HW  HW  OW  HW  HW  OW  HW  HW  OW  HW  HW  OW  HW  HW  OW  HW  HW  
OW  HW  HW  OW  HW  HW  OW  HW  HW  OW  HW  HW  OW  HW  HW  OW  HW  HW  OW  HW  
HW  OW  HW  HW  OW  HW  HW  OW  HW  HW  OW  HW  HW  OW  HW  HW  OW  HW  HW  OW  
HW  HW  OW  HW  HW  OW  HW  HW  OW  HW  HW  OW  HW  HW  OW  HW  HW  OW  HW  HW  
OW  HW  HW  OW  HW  HW  OW  HW  HW  OW  HW  HW  OW  HW  HW  OW  HW  HW  OW  HW  
HW  OW  HW  HW  OW  HW  HW  OW  HW  HW  OW  HW  HW  OW  HW  HW  OW  HW  HW  OW  
HW  HW  OW  HW  HW  OW  HW  HW  OW  HW  HW  OW  HW  HW  OW  HW  HW  OW  HW  HW  
OW  HW  HW  OW  HW  HW  OW  HW  HW  OW  HW  HW  OW  HW  HW  OW  HW  HW  OW  HW  
HW  OW  HW  HW  OW  HW  HW  OW  HW  HW  OW  HW  HW  OW  HW  HW  OW  HW  HW  OW  
HW  HW  OW  HW  HW  OW  HW  HW  OW  HW  HW  OW  HW  HW  OW  HW  HW  OW  HW  HW  
OW  HW  HW  OW  HW  HW  OW  HW  HW  OW  HW  HW  OW  HW  HW  OW  HW  HW  OW  HW  
HW  OW  HW  HW  OW  HW  HW  OW  HW  HW  OW  HW  HW  OW  HW  HW  OW  HW  HW  OW  
HW  HW  OW  HW  HW  OW  HW  HW  OW  HW  HW  OW  HW  HW  OW  HW  HW  OW  HW  HW  
OW  HW  HW  OW  HW  HW  OW  HW  HW  OW  HW  HW  OW  HW  HW  OW  HW  HW  OW  HW  
HW  OW  HW  HW  OW  HW  HW  OW  HW  HW  OW  HW  HW  OW  HW  HW  OW  HW  HW  OW  
HW  HW  OW  HW  HW  OW  HW  HW  OW  HW  HW  OW  HW  HW  OW  HW  HW  OW  HW  HW  
OW  HW  HW  OW  HW  HW  OW  HW  HW  OW  HW  HW  OW  HW  HW  OW  HW  HW  OW  HW  
HW  OW  HW  HW  OW  HW  HW  OW  HW  HW  OW  HW  HW  OW  HW  HW  OW  HW  HW  OW  
HW  HW  OW  HW  HW  OW  HW  HW  OW  HW  HW  OW  HW  HW  OW  HW  HW  OW  HW  HW  
OW  HW  HW  OW  HW  HW  OW  HW  HW  OW  HW  HW  OW  HW  HW  OW  HW  HW  OW  HW  
HW  OW  HW  HW  OW  HW  HW  OW  HW  HW  OW  HW  HW  OW  HW  HW  OW  HW  HW  OW  
HW  HW  OW  HW  HW  OW  HW  HW  OW  HW  HW  OW  HW  HW  OW  HW  HW  OW  HW  HW  
OW  HW  HW  OW  HW  HW  OW  HW  HW  OW  HW  HW  OW  HW  HW  OW  HW  HW  OW  HW  
HW  OW  HW  HW  OW  HW  HW  OW  HW  HW  OW  HW  HW  OW  HW  HW  OW  HW  HW  OW  
HW  HW  OW  HW  HW  OW  HW  HW  OW  HW  HW  OW  HW  HW  OW  HW  HW  OW  HW  HW  
OW  HW  HW  OW  HW  HW  OW  HW  HW  OW  HW  HW  OW  HW  HW  OW  HW  HW  OW  HW  
HW  OW  HW  HW  OW  HW  HW  OW  HW  HW  OW  HW  HW  OW  HW  HW  OW  HW  HW  OW  
HW  HW  OW  HW  HW  OW  HW  HW  OW  HW  HW  OW  HW  HW  OW  HW  HW  OW  HW  HW  
OW  HW  HW  OW  HW  HW  OW  HW  HW  OW  HW  HW  OW  HW  HW  OW  HW  HW  OW  HW  
HW  OW  HW  HW  OW  HW  HW  OW  HW  HW  OW  HW  HW  OW  HW  HW  OW  HW  HW  OW  
HW  HW  OW  HW  HW  OW  HW  HW  OW  HW  HW  OW  HW  HW  OW  HW  HW  OW  HW  HW  
OW  HW  HW  OW  HW  HW  OW  HW  HW  OW  HW  HW  OW  HW  HW  OW  HW  HW  OW  HW  
HW  OW  HW  HW  OW  HW  HW  OW  HW  HW  OW  HW  HW  OW  HW  HW  OW  HW  HW  OW  
HW  HW  OW  HW  HW  OW  HW  HW  OW  HW  HW  OW  HW  HW  OW  HW  HW  OW  HW  HW  
OW  HW  HW  OW  HW  HW  OW  HW  HW  OW  HW  HW  OW  HW  HW  OW  HW  HW  OW  HW  
HW  OW  HW  HW  OW  HW  HW  OW  HW  HW  OW  HW  HW  OW  HW  HW  OW  HW  HW  OW  
HW  HW  OW  HW  HW  OW  HW  HW  OW  HW  HW  OW  HW  HW  OW  HW  HW  OW  HW  HW  
OW  HW  HW  OW  HW  HW  OW  HW  HW  OW  HW  HW  OW  HW  HW  OW  HW  HW  OW  HW  
HW  OW  HW  HW  OW  HW  HW  OW  HW  HW  OW  HW  HW  OW  HW  HW  OW  HW  HW  OW  
HW  HW  OW  HW  HW  OW  HW  HW  OW  HW  HW  OW  HW  HW  OW  HW  HW  OW  HW  HW  
OW  HW  HW  OW  HW  HW  OW  HW  HW  OW  HW  HW  OW  HW  HW  OW  HW  HW  OW  HW  
HW  OW  HW  HW  OW  HW  HW  OW  HW  HW  OW  HW  HW  OW  HW  HW  OW  HW  HW  OW  
HW  HW  OW  HW  HW  OW  HW  HW  OW  HW  HW  OW  HW  HW  OW  HW  HW  OW  HW  HW  
OW  HW  HW  OW  HW  HW  OW  HW  HW  OW  HW  HW  OW  HW  HW  OW  HW  HW  OW  HW  
HW  OW  HW  HW  OW  HW  HW  OW  HW  HW  OW  HW  HW  OW  HW  HW  OW  HW  HW  OW  
HW  HW  OW  HW  HW  OW  HW  HW  OW  HW  HW  OW  HW  HW  OW  HW  HW  OW  HW  HW  
OW  HW  HW  OW  HW  HW  OW  HW  HW  OW  HW  HW  OW  HW  HW  OW  HW  HW  OW  HW  
HW  OW  HW  HW  OW  HW  HW  OW  HW  HW  OW  HW  HW  OW  HW  HW  OW  HW  HW  OW  
HW  HW  OW  HW  HW  OW  HW  HW  OW  HW  HW  OW  HW  HW  OW  HW  HW  OW  HW  HW  
OW  HW  HW  OW  HW  HW  OW  HW  HW  OW  HW  HW  OW  HW  HW  OW  HW  HW  OW  HW  
HW  OW  HW  HW  OW  HW  HW  OW  HW  HW  OW  HW  HW  OW  HW  HW  OW  HW  HW  OW  
HW  HW  OW  HW  HW  OW  HW  HW  OW  HW  HW  OW  HW  HW  OW  HW  HW  OW  HW  HW  
OW  HW  HW  OW  HW  HW  OW  HW  HW  OW  HW  HW  OW  HW  HW  OW  HW  HW  OW  HW  
HW  OW  HW  HW  OW  HW  HW  OW  HW  HW  OW  HW  HW  OW  HW  HW  OW  HW  HW  OW  
HW  HW  OW  HW  HW  OW  HW  HW  OW  HW  HW  OW  HW  HW  OW  HW  HW  OW  HW  HW  
OW  HW  HW  OW  HW  HW  OW  HW  HW  OW  HW  HW  OW  HW  HW  OW  HW  HW  OW  HW  
HW  OW  HW  HW  OW  HW  HW  OW  HW  HW  OW  HW  HW  OW  HW  HW  OW  HW  HW  OW  
HW  HW  OW  HW  HW  OW  HW  HW  OW  HW  HW  OW  HW  HW  OW  HW  HW  OW  HW  HW  
OW  HW  HW  OW  HW  HW  OW  HW  HW  OW  HW  HW  OW  HW  HW  OW  HW  HW  OW  HW  
HW  OW  HW  HW  OW  HW  HW  OW  HW  HW  OW  HW  HW  OW  HW  HW  OW  HW  HW  OW  
HW  HW  OW  HW  HW  OW  HW  HW  OW  HW  HW  OW  HW  HW  OW  HW  HW  OW  HW  HW  
OW  HW  HW  OW  HW  HW  OW  HW  HW  OW  HW  HW  OW  HW  HW  OW  HW  HW  OW  HW  
HW  OW  HW  HW  OW  HW  HW  OW  HW  HW  OW  HW  HW  OW  HW  HW  OW  HW  HW  OW  
HW  HW  OW  HW  HW  OW  HW  HW  OW  HW  HW  OW  HW  HW  OW  HW  HW  OW  HW  HW  
OW  HW  HW  OW  HW  HW  OW  HW  HW  OW  HW  HW  OW  HW  HW  OW  HW  HW  OW  HW  
HW  OW  HW  HW  OW  HW  HW  OW  HW  HW  OW  HW  HW  OW  HW  HW  OW  HW  HW  OW  
HW  HW  OW  HW  HW  OW  HW  HW  OW  HW  HW  OW  HW  HW  OW  HW  HW  OW  HW  HW  
OW  HW  HW  OW  HW  HW  OW  HW  HW  OW  HW  HW  OW  HW  HW  OW  HW  HW  OW  HW  
HW  OW  HW  HW  OW  HW  HW  OW  HW  HW  OW  HW  HW  OW  HW  HW  OW  HW  HW  OW  
HW  HW  OW  HW  HW  OW  HW  HW  OW  HW  HW  OW  HW  HW  OW  HW  HW  OW  HW  HW  
OW  HW  HW  OW  HW  HW  OW  HW  HW  OW  HW  HW  OW  HW  HW  OW  HW  HW  OW  HW  
HW  OW  HW  HW  OW  HW  HW  OW  HW  HW  OW  HW  HW  OW  HW  HW  OW  HW  HW  OW  
HW  HW  OW  HW  HW  OW  HW  HW  OW  HW  HW  OW  HW  HW  OW  HW  HW  OW  HW  HW  
OW  HW  HW  OW  HW  HW  OW  HW  HW  OW  HW  HW  OW  HW  HW  OW  HW  HW  OW  HW  
HW  OW  HW  HW  OW  HW  HW  OW  HW  HW  OW  HW  HW  OW  HW  HW  OW  HW  HW  OW  
HW  HW  OW  HW  HW  OW  HW  HW  OW  HW  HW  OW  HW  HW  OW  HW  HW  OW  HW  HW  
OW  HW  HW  OW  HW  HW  OW  HW  HW  OW  HW  HW  OW  HW  HW  OW  HW  HW  OW  HW  
HW  OW  HW  HW  OW  HW  HW  OW  HW  HW  OW  HW  HW  OW  HW  HW  OW  HW  HW  OW  
HW  HW  OW  HW  HW  OW  HW  HW  OW  HW  HW  OW  HW  HW  OW  HW  HW  OW  HW  HW  
OW  HW  HW  OW  HW  HW  OW  HW  HW  OW  HW  HW  OW  HW  HW  OW  HW  HW  OW  HW  
HW  OW  HW  HW  OW  HW  HW  OW  HW  HW  OW  HW  HW  OW  HW  HW  OW  HW  HW  OW  
HW  HW  OW  HW  HW  OW  HW  HW  OW  HW  HW  OW  HW  HW  OW  HW  HW  OW  HW  HW  
OW  HW  HW  OW  HW  HW  OW  HW  HW  OW  HW  HW  OW  HW  HW  OW  HW  HW  OW  HW  
HW  OW  HW  HW  OW  HW  HW  OW  HW  HW  OW  HW  HW  OW  HW  HW  OW  HW  HW  OW  
HW  HW  OW  HW  HW  OW  HW  HW  OW  HW  HW  OW  HW  HW  OW  HW  HW  OW  HW  HW  
OW  HW  HW  OW  HW  HW  OW  HW  HW  OW  HW  HW  OW  HW  HW  OW  HW  HW  OW  HW  
HW  OW  HW  HW  OW  HW  HW  OW  HW  HW  OW  HW  HW  OW  HW  HW  OW  HW  HW  OW  
HW  HW  OW  HW  HW  OW  HW  HW  OW  HW  HW  OW  HW  HW  OW  HW  HW  OW  HW  HW  
OW  HW  HW  OW  HW  HW  OW  HW  HW  OW  HW  HW  OW  HW  HW  OW  HW  HW  OW  HW  
HW  OW  HW  HW  OW  HW  HW  OW  HW  HW  OW  HW  HW  OW  HW  HW  OW  HW  HW  OW  
HW  HW  OW  HW  HW  OW  HW  HW  OW  HW  HW  OW  HW  HW  OW  HW  HW  OW  HW  HW  
OW  HW  HW  OW  HW  HW  OW  HW  HW  OW  HW  HW  OW  HW  HW  OW  HW  HW  OW  HW  
HW  OW  HW  HW  OW  HW  HW  OW  HW  HW  OW  HW  HW  OW  HW  HW  OW  HW  HW  OW  
HW  HW  OW  HW  HW  OW  HW  HW  OW  HW  HW  OW  HW  HW  OW  HW  HW  OW  HW  HW  
OW  HW  HW  OW  HW  HW  OW  HW  HW  OW  HW  HW  OW  HW  HW  OW  HW  HW  OW  HW  
HW  OW  HW  HW  OW  HW  HW  OW  HW  HW  OW  HW  HW  OW  HW  HW  OW  HW  HW  OW  
HW  HW  OW  HW  HW  OW  HW  HW  OW  HW  HW  OW  HW  HW  OW  HW  HW  OW  HW  HW  
OW  HW  HW  OW  HW  HW  OW  HW  HW  OW  HW  HW  OW  HW  HW  OW  HW  HW  OW  HW  
HW  OW  HW  HW  OW  HW  HW  OW  HW  HW  OW  HW  HW  OW  HW  HW  OW  HW  HW  OW  
HW  HW  OW  HW  HW  OW  HW  HW  OW  HW  HW  OW  HW  HW  OW  HW  HW  OW  HW  HW  
OW  HW  HW  OW  HW  HW  OW  HW  HW  OW  HW  HW  OW  HW  HW  OW  HW  HW  OW  HW  
HW  OW  HW  HW  OW  HW  HW  OW  HW  HW  OW  HW  HW  OW  HW  HW  OW  HW  HW  OW  
HW  HW  OW  HW  HW  OW  HW  HW  OW  HW  HW  OW  HW  HW  OW  HW  HW  OW  HW  HW  
OW  HW  HW  OW  HW  HW  OW  HW  HW  OW  HW  HW  OW  HW  HW  OW  HW  HW  OW  HW  
HW  OW  HW  HW  OW  HW  HW  OW  HW  HW  OW  HW  HW  OW  HW  HW  OW  HW  HW  OW  
HW  HW  OW  HW  HW  OW  HW  HW  OW  HW  HW  OW  HW  HW  OW  HW  HW  OW  HW  HW  
OW  HW  HW  OW  HW  HW  OW  HW  HW  OW  HW  HW  OW  HW  HW  OW  HW  HW  OW  HW  
HW  OW  HW  HW  OW  HW  HW  OW  HW  HW  OW  HW  HW  OW  HW  HW  OW  HW  HW  OW  
HW  HW  OW  HW  HW  OW  HW  HW  OW  HW  HW  OW  HW  HW  OW  HW  HW  OW  HW  HW  
OW  HW  HW  OW  HW  HW  OW  HW  HW  OW  HW  HW  OW  HW  HW  OW  HW  HW  OW  HW  
HW  OW  HW  HW  OW  HW  HW  OW  HW  HW  OW  HW  HW  OW  HW  HW  OW  HW  HW  OW  
HW  HW  OW  HW  HW  OW  HW  HW  OW  HW  HW  OW  HW  HW  OW  HW  HW  OW  HW  HW  
OW  HW  HW  OW  HW  HW  OW  HW  HW  OW  HW  HW  OW  HW  HW  OW  HW  HW  OW  HW  
HW  OW  HW  HW  OW  HW  HW  OW  HW  HW  OW  HW  HW  OW  HW  HW  OW  HW  HW  OW  
HW  HW  OW  HW  HW  OW  HW  HW  OW  HW  HW  OW  HW  HW  OW  HW  HW  OW  HW  HW  
OW  HW  HW  OW  HW  HW  OW  HW  HW  OW  HW  HW  OW  HW  HW  OW  HW  HW  OW  HW  
HW  OW  HW  HW  OW  HW  HW  OW  HW  HW  OW  HW  HW  OW  HW  HW  OW  HW  HW  OW  
HW  HW  OW  HW  HW  OW  HW  HW  OW  HW  HW  OW  HW  HW  OW  HW  HW  OW  HW  HW  
OW  HW  HW  OW  HW  HW  OW  HW  HW  OW  HW  HW  OW  HW  HW  OW  HW  HW  OW  HW  
HW  OW  HW  HW  OW  HW  HW  OW  HW  HW  OW  HW  HW  OW  HW  HW  OW  HW  HW  OW  
HW  HW  OW  HW  HW  OW  HW  HW  OW  HW  HW  OW  HW  HW  OW  HW  HW  OW  HW  HW  
OW  HW  HW  OW  HW  HW  OW  HW  HW  OW  HW  HW  OW  HW  HW  OW  HW  HW  OW  HW  
HW  OW  HW  HW  OW  HW  HW  OW  HW  HW  OW  HW  HW  OW  HW  HW  OW  HW  HW  OW  
HW  HW  OW  HW  HW  OW  HW  HW  OW  HW  HW  OW  HW  HW  OW  HW  HW  OW  HW  HW  
OW  HW  HW  OW  HW  HW  OW  HW  HW  OW  HW  HW  OW  HW  HW  OW  HW  HW  OW  HW  
HW  OW  HW  HW  OW  HW  HW  OW  HW  HW  OW  HW  HW  OW  HW  HW  OW  HW  HW  OW  
HW  HW  OW  HW  HW  OW  HW  HW  OW  HW  HW  OW  HW  HW  OW  HW  HW  OW  HW  HW  
OW  HW  HW  OW  HW  HW  OW  HW  HW  OW  HW  HW  OW  HW  HW  OW  HW  HW  OW  HW  
HW  OW  HW  HW  OW  HW  HW  OW  HW  HW  OW  HW  HW  OW  HW  HW  OW  HW  HW  OW  
HW  HW  OW  HW  HW  OW  HW  HW  OW  HW  HW  OW  HW  HW  OW  HW  HW  OW  HW  HW  
OW  HW  HW  OW  HW  HW  OW  HW  HW  OW  HW  HW  OW  HW  HW  OW  HW  HW  OW  HW  
HW  OW  HW  HW  OW  HW  HW  OW  HW  HW  OW  HW  HW  OW  HW  HW  OW  HW  HW  OW  
HW  HW  OW  HW  HW  OW  HW  HW  OW  HW  HW  OW  HW  HW  OW  HW  HW  OW  HW  HW  
OW  HW  HW  OW  HW  HW  OW  HW  HW  OW  HW  HW  OW  HW  HW  OW  HW  HW  OW  HW  
HW  OW  HW  HW  OW  HW  HW  OW  HW  HW  OW  HW  HW  OW  HW  HW  OW  HW  HW  OW  
HW  HW  OW  HW  HW  OW  HW  HW  OW  HW  HW  OW  HW  HW  OW  HW  HW  OW  HW  HW  
OW  HW  HW  OW  HW  HW  OW  HW  HW  OW  HW  HW  OW  HW  HW  OW  HW  HW  OW  HW  
HW  OW  HW  HW  OW  HW  HW  OW  HW  HW  OW  HW  HW  OW  HW  HW  OW  HW  HW  OW  
HW  HW  OW  HW  HW  OW  HW  HW  OW  HW  HW  OW  HW  HW  OW  HW  HW  OW  HW  HW  
OW  HW  HW  OW  HW  HW  OW  HW  HW  OW  HW  HW  OW  HW  HW  OW  HW  HW  OW  HW  
HW  OW  HW  HW  OW  HW  HW  OW  HW  HW  OW  HW  HW  OW  HW  HW  OW  HW  HW  OW  
HW  HW  OW  HW  HW  OW  HW  HW  OW  HW  HW  OW  HW  HW  OW  HW  HW  OW  HW  HW  
OW  HW  HW  OW  HW  HW  OW  HW  HW  OW  HW  HW  OW  HW  HW  OW  HW  HW  OW  HW  
HW  OW  HW  HW  OW  HW  HW  OW  HW  HW  OW  HW  HW  OW  HW  HW  OW  HW  HW  OW  
HW  HW  OW  HW  HW  OW  HW  HW  OW  HW  HW  OW  HW  HW  OW  HW  HW  OW  HW  HW  
OW  HW  HW  OW  HW  HW  OW  HW  HW  OW  HW  HW  OW  HW  HW  OW  HW  HW  OW  HW  
HW  OW  HW  HW  OW  HW  HW  OW  HW  HW  OW  HW  HW  OW  HW  HW  OW  HW  HW  OW  
HW  HW  OW  HW  HW  OW  HW  HW  OW  HW  HW  OW  HW  HW  OW  HW  HW  OW  HW  HW  
OW  HW  HW  OW  HW  HW  OW  HW  HW  OW  HW  HW  OW  HW  HW  OW  HW  HW  OW  HW  
HW  OW  HW  HW  OW  HW  HW  OW  HW  HW  OW  HW  HW  OW  HW  HW  OW  HW  HW  OW  
HW  HW  OW  HW  HW  OW  HW  HW  OW  HW  HW  OW  HW  HW  OW  HW  HW  OW  HW  HW  
OW  HW  HW  OW  HW  HW  OW  HW  HW  OW  HW  HW  OW  HW  HW  OW  HW  HW  OW  HW  
HW  OW  HW  HW  OW  HW  HW  OW  HW  HW  OW  HW  HW  OW  HW  HW  OW  HW  HW  OW  
HW  HW  OW  HW  HW  OW  HW  HW  OW  HW  HW  OW  HW  HW  OW  HW  HW  OW  HW  HW  
OW  HW  HW  OW  HW  HW  OW  HW  HW  OW  HW  HW  OW  HW  HW  OW  HW  HW  OW  HW  
HW  OW  HW  HW  OW  HW  HW  OW  HW  HW  OW  HW  HW  OW  HW  HW  OW  HW  HW  OW  
HW  HW  OW  HW  HW  OW  HW  HW  OW  HW  HW  OW  HW  HW  OW  HW  HW  OW  HW  HW  
OW  HW  HW  OW  HW  HW  OW  HW  HW  OW  HW  HW  OW  HW  HW  OW  HW  HW  OW  HW  
HW  OW  HW  HW  OW  HW  HW  OW  HW  HW  OW  HW  HW  OW  HW  HW  OW  HW  HW  OW  
HW  HW  OW  HW  HW  OW  HW  HW  OW  HW  HW  OW  HW  HW  OW  HW  HW  OW  HW  HW  
OW  HW  HW  OW  HW  HW  OW  HW  HW  OW  HW  HW  OW  HW  HW  OW  HW  HW  OW  HW  
HW  OW  HW  HW  OW  HW  HW  OW  HW  HW  OW  HW  HW  OW  HW  HW  OW  HW  HW  OW  
HW  HW  OW  HW  HW  OW  HW  HW  OW  HW  HW  OW  HW  HW  OW  HW  HW  OW  HW  HW  
OW  HW  HW  OW  HW  HW  OW  HW  HW  OW  HW  HW  OW  HW  HW  OW  HW  HW  OW  HW  
HW  OW  HW  HW  OW  HW  HW  OW  HW  HW  OW  HW  HW  OW  HW  HW  OW  HW  HW  OW  
HW  HW  OW  HW  HW  OW  HW  HW  OW  HW  HW  OW  HW  HW  OW  HW  HW  OW  HW  HW  
OW  HW  HW  OW  HW  HW  OW  HW  HW  OW  HW  HW  OW  HW  HW  OW  HW  HW  OW  HW  
HW  OW  HW  HW  OW  HW  HW  OW  HW  HW  OW  HW  HW  OW  HW  HW  OW  HW  HW  OW  
HW  HW  OW  HW  HW  OW  HW  HW  OW  HW  HW  OW  HW  HW  OW  HW  HW  OW  HW  HW  
OW  HW  HW  OW  HW  HW  OW  HW  HW  OW  HW  HW  OW  HW  HW  OW  HW  HW  OW  HW  
HW  OW  HW  HW  OW  HW  HW  OW  HW  HW  OW  HW  HW  OW  HW  HW  OW  HW  HW  OW  
HW  HW  OW  HW  HW  OW  HW  HW  OW  HW  HW  OW  HW  HW  OW  HW  HW  OW  HW  HW  
OW  HW  HW  OW  HW  HW  OW  HW  HW  OW  HW  HW  OW  HW  HW  OW  HW  HW  OW  HW  
HW  OW  HW  HW  OW  HW  HW  OW  HW  HW  OW  HW  HW  OW  HW  HW  OW  HW  HW  OW  
HW  HW  OW  HW  HW  OW  HW  HW  OW  HW  HW  OW  HW  HW  OW  HW  HW  OW  HW  HW  
OW  HW  HW  OW  HW  HW  OW  HW  HW  OW  HW  HW  OW  HW  HW  OW  HW  HW  OW  HW  
HW  OW  HW  HW  OW  HW  HW  OW  HW  HW  OW  HW  HW  OW  HW  HW  OW  HW  HW  OW  
HW  HW  OW  HW  HW  OW  HW  HW  OW  HW  HW  OW  HW  HW  OW  HW  HW  OW  HW  HW  
OW  HW  HW  OW  HW  HW  OW  HW  HW  OW  HW  HW  OW  HW  HW  OW  HW  HW  OW  HW  
HW  OW  HW  HW  OW  HW  HW  OW  HW  HW  OW  HW  HW  OW  HW  HW  OW  HW  HW  OW  
HW  HW  OW  HW  HW  OW  HW  HW  OW  HW  HW  OW  HW  HW  OW  HW  HW  OW  HW  HW  
OW  HW  HW  OW  HW  HW  OW  HW  HW  OW  HW  HW  OW  HW  HW  OW  HW  HW  OW  HW  
HW  OW  HW  HW  OW  HW  HW  OW  HW  HW  OW  HW  HW  OW  HW  HW  OW  HW  HW  OW  
HW  HW  OW  HW  HW  OW  HW  HW  OW  HW  HW  OW  HW  HW  OW  HW  HW  OW  HW  HW  
OW  HW  HW  OW  HW  HW  OW  HW  HW  OW  HW  HW  OW  HW  HW  OW  HW  HW  OW  HW  
HW  OW  HW  HW  OW  HW  HW  OW  HW  HW  OW  HW  HW  OW  HW  HW  OW  HW  HW  OW  
HW  HW  OW  HW  HW  OW  HW  HW  OW  HW  HW  OW  HW  HW  OW  HW  HW  OW  HW  HW  
OW  HW  HW  OW  HW  HW  OW  HW  HW  OW  HW  HW  OW  HW  HW  OW  HW  HW  OW  HW  
HW  OW  HW  HW  OW  HW  HW  OW  HW  HW  OW  HW  HW  OW  HW  HW  OW  HW  HW  OW  
HW  HW  OW  HW  HW  OW  HW  HW  OW  HW  HW  OW  HW  HW  OW  HW  HW  OW  HW  HW  
OW  HW  HW  OW  HW  HW  OW  HW  HW  OW  HW  HW  OW  HW  HW  OW  HW  HW  OW  HW  
HW  OW  HW  HW  OW  HW  HW  OW  HW  HW  OW  HW  HW  OW  HW  HW  OW  HW  HW  OW  
HW  HW  OW  HW  HW  OW  HW  HW  OW  HW  HW  OW  HW  HW  OW  HW  HW  OW  HW  HW  
OW  HW  HW  OW  HW  HW  OW  HW  HW  OW  HW  HW  OW  HW  HW  OW  HW  HW  OW  HW  
HW  OW  HW  HW  OW  HW  HW  OW  HW  HW  OW  HW  HW  OW  HW  HW  OW  HW  HW  OW  
HW  HW  OW  HW  HW  OW  HW  HW  OW  HW  HW  OW  HW  HW  OW  HW  HW  OW  HW  HW  
OW  HW  HW  OW  HW  HW  OW  HW  HW  OW  HW  HW  OW  HW  HW  OW  HW  HW  OW  HW  
HW  OW  HW  HW  OW  HW  HW  OW  HW  HW  OW  HW  HW  OW  HW  HW  OW  HW  HW  OW  
HW  HW  OW  HW  HW  OW  HW  HW  OW  HW  HW  OW  HW  HW  OW  HW  HW  OW  HW  HW  
OW  HW  HW  OW  HW  HW  OW  HW  HW  OW  HW  HW  OW  HW  HW  OW  HW  HW  OW  HW  
HW  OW  HW  HW  OW  HW  HW  OW  HW  HW  OW  HW  HW  OW  HW  HW  OW  HW  HW  OW  
HW  HW  OW  HW  HW  OW  HW  HW  OW  HW  HW  OW  HW  HW  OW  HW  HW  OW  HW  HW  
OW  HW  HW  OW  HW  HW  OW  HW  HW  OW  HW  HW  OW  HW  HW  OW  HW  HW  OW  HW  
HW  OW  HW  HW  OW  HW  HW  OW  HW  HW  OW  HW  HW  OW  HW  HW  OW  HW  HW  OW  
HW  HW  OW  HW  HW  OW  HW  HW  OW  HW  HW  OW  HW  HW  OW  HW  HW  OW  HW  HW  
OW  HW  HW  OW  HW  HW  OW  HW  HW  OW  HW  HW  OW  HW  HW  OW  HW  HW  OW  HW  
HW  OW  HW  HW  OW  HW  HW  OW  HW  HW  OW  HW  HW  OW  HW  HW  OW  HW  HW  OW  
HW  HW  OW  HW  HW  OW  HW  HW  OW  HW  HW  OW  HW  HW  OW  HW  HW  OW  HW  HW  
OW  HW  HW  OW  HW  HW  OW  HW  HW  OW  HW  HW  OW  HW  HW  OW  HW  HW  OW  HW  
HW  OW  HW  HW  OW  HW  HW  OW  HW  HW  OW  HW  HW  OW  HW  HW  OW  HW  HW  OW  
HW  HW  OW  HW  HW  OW  HW  HW  OW  HW  HW  OW  HW  HW  OW  HW  HW  OW  HW  HW  
OW  HW  HW  OW  HW  HW  OW  HW  HW  OW  HW  HW  OW  HW  HW  OW  HW  HW  OW  HW  
HW  OW  HW  HW  OW  HW  HW  OW  HW  HW  OW  HW  HW  OW  HW  HW  OW  HW  HW  OW  
HW  HW  OW  HW  HW  OW  HW  HW  OW  HW  HW  OW  HW  HW  OW  HW  HW  OW  HW  HW  
OW  HW  HW  OW  HW  HW  OW  HW  HW  OW  HW  HW  OW  HW  HW  OW  HW  HW  OW  HW  
HW  OW  HW  HW  OW  HW  HW  OW  HW  HW  OW  HW  HW  OW  HW  HW  OW  HW  HW  OW  
HW  HW  OW  HW  HW  OW  HW  HW  OW  HW  HW  OW  HW  HW  OW  HW  HW  OW  HW  HW  
OW  HW  HW  OW  HW  HW  OW  HW  HW  OW  HW  HW  OW  HW  HW  OW  HW  HW  OW  HW  
HW  OW  HW  HW  OW  HW  HW  OW  HW  HW  OW  HW  HW  OW  HW  HW  OW  HW  HW  OW  
HW  HW  OW  HW  HW  OW  HW  HW  OW  HW  HW  OW  HW  HW  OW  HW  HW  OW  HW  HW  
OW  HW  HW  OW  HW  HW  OW  HW  HW  OW  HW  HW  OW  HW  HW  OW  HW  HW  OW  HW  
HW  OW  HW  HW  OW  HW  HW  OW  HW  HW  OW  HW  HW  OW  HW  HW  OW  HW  HW  OW  
HW  HW  OW  HW  HW  OW  HW  HW  OW  HW  HW  OW  HW  HW  OW  HW  HW  OW  HW  HW  
OW  HW  HW  OW  HW  HW  OW  HW  HW  OW  HW  HW  OW  HW  HW  OW  HW  HW  OW  HW  
HW  OW  HW  HW  OW  HW  HW  OW  HW  HW  OW  HW  HW  OW  HW  HW  OW  HW  HW  OW  
HW  HW  OW  HW  HW  OW  HW  HW  OW  HW  HW  OW  HW  HW  OW  HW  HW  OW  HW  HW  
OW  HW  HW  OW  HW  HW  OW  HW  HW  OW  HW  HW  OW  HW  HW  OW  HW  HW  OW  HW  
HW  OW  HW  HW  OW  HW  HW  OW  HW  HW  OW  HW  HW  OW  HW  HW  OW  HW  HW  OW  
HW  HW  OW  HW  HW  OW  HW  HW  OW  HW  HW  OW  HW  HW  OW  HW  HW  OW  HW  HW  
OW  HW  HW  OW  HW  HW  OW  HW  HW  OW  HW  HW  OW  HW  HW  OW  HW  HW  OW  HW  
HW  OW  HW  HW  OW  HW  HW  OW  HW  HW  OW  HW  HW  OW  HW  HW  OW  HW  HW  OW  
HW  HW  OW  HW  HW  OW  HW  HW  OW  HW  HW  OW  HW  HW  OW  HW  HW  OW  HW  HW  
OW  HW  HW  OW  HW  HW  OW  HW  HW  OW  HW  HW  OW  HW  HW  OW  HW  HW  OW  HW  
HW  OW  HW  HW  OW  HW  HW  OW  HW  HW  OW  HW  HW  OW  HW  HW  OW  HW  HW  OW  
HW  HW  OW  HW  HW  OW  HW  HW  OW  HW  HW  OW  HW  HW  OW  HW  HW  OW  HW  HW  
OW  HW  HW  OW  HW  HW  OW  HW  HW  OW  HW  HW  OW  HW  HW  OW  HW  HW  OW  HW  
HW  OW  HW  HW  OW  HW  HW  OW  HW  HW  OW  HW  HW  OW  HW  HW  OW  HW  HW  OW  
HW  HW  OW  HW  HW  OW  HW  HW  OW  HW  HW  OW  HW  HW  OW  HW  HW  OW  HW  HW  
OW  HW  HW  OW  HW  HW  OW  HW  HW  OW  HW  HW  OW  HW  HW  OW  HW  HW  OW  HW  
HW  OW  HW  HW  OW  HW  HW  OW  HW  HW  OW  HW  HW  OW  HW  HW  OW  HW  HW  OW  
HW  HW  OW  HW  HW  OW  HW  HW  OW  HW  HW  OW  HW  HW  OW  HW  HW  OW  HW  HW  
OW  HW  HW  OW  HW  HW  OW  HW  HW  OW  HW  HW  OW  HW  HW  OW  HW  HW  OW  HW  
HW  OW  HW  HW  OW  HW  HW  OW  HW  HW  OW  HW  HW  OW  HW  HW  OW  HW  HW  OW  
HW  HW  OW  HW  HW  OW  HW  HW  OW  HW  HW  OW  HW  HW  OW  HW  HW  OW  HW  HW  
OW  HW  HW  OW  HW  HW  OW  HW  HW  OW  HW  HW  OW  HW  HW  OW  HW  HW  OW  HW  
HW  OW  HW  HW  OW  HW  HW  OW  HW  HW  OW  HW  HW  OW  HW  HW  OW  HW  HW  OW  
HW  HW  OW  HW  HW  OW  HW  HW  OW  HW  HW  OW  HW  HW  OW  HW  HW  OW  HW  HW  
OW  HW  HW  OW  HW  HW  OW  HW  HW  OW  HW  HW  OW  HW  HW  OW  HW  HW  OW  HW  
HW  OW  HW  HW  OW  HW  HW  OW  HW  HW  OW  HW  HW  OW  HW  HW  OW  HW  HW  OW  
HW  HW  OW  HW  HW  OW  HW  HW  OW  HW  HW  OW  HW  HW  OW  HW  HW  OW  HW  HW  
OW  HW  HW  OW  HW  HW  OW  HW  HW  OW  HW  HW  OW  HW  HW  OW  HW  HW  OW  HW  
HW  OW  HW  HW  OW  HW  HW  OW  HW  HW  OW  HW  HW  OW  HW  HW  OW  HW  HW  OW  
HW  HW  OW  HW  HW  OW  HW  HW  OW  HW  HW  OW  HW  HW  OW  HW  HW  OW  HW  HW  
OW  HW  HW  OW  HW  HW  OW  HW  HW  OW  HW  HW  OW  HW  HW  OW  HW  HW  OW  HW  
HW  OW  HW  HW  OW  HW  HW  OW  HW  HW  OW  HW  HW  OW  HW  HW  OW  HW  HW  OW  
HW  HW  OW  HW  HW  OW  HW  HW  OW  HW  HW  OW  HW  HW  OW  HW  HW  OW  HW  HW  
OW  HW  HW  OW  HW  HW  OW  HW  HW  OW  HW  HW  OW  HW  HW  OW  HW  HW  OW  HW  
HW  OW  HW  HW  OW  HW  HW  OW  HW  HW  OW  HW  HW  OW  HW  HW  OW  HW  HW  OW  
HW  HW  OW  HW  HW  OW  HW  HW  OW  HW  HW  OW  HW  HW  OW  HW  HW  OW  HW  HW  
OW  HW  HW  OW  HW  HW  OW  HW  HW  OW  HW  HW  OW  HW  HW  OW  HW  HW  OW  HW  
HW  OW  HW  HW  OW  HW  HW  OW  HW  HW  OW  HW  HW  OW  HW  HW  OW  HW  HW  OW  
HW  HW  OW  HW  HW  OW  HW  HW  OW  HW  HW  OW  HW  HW  OW  HW  HW  OW  HW  HW  
OW  HW  HW  OW  HW  HW  OW  HW  HW  OW  HW  HW  OW  HW  HW  OW  HW  HW  OW  HW  
HW  OW  HW  HW  OW  HW  HW  OW  HW  HW  OW  HW  HW  OW  HW  HW  OW  HW  HW  OW  
HW  HW  OW  HW  HW  OW  HW  HW  OW  HW  HW  OW  HW  HW  OW  HW  HW  OW  HW  HW  
OW  HW  HW  OW  HW  HW  OW  HW  HW  OW  HW  HW  OW  HW  HW  OW  HW  HW  OW  HW  
HW  OW  HW  HW  OW  HW  HW  OW  HW  HW  OW  HW  HW  OW  HW  HW  OW  HW  HW  OW  
HW  HW  OW  HW  HW  OW  HW  HW  OW  HW  HW  OW  HW  HW  OW  HW  HW  OW  HW  HW  
OW  HW  HW  OW  HW  HW  OW  HW  HW  OW  HW  HW  OW  HW  HW  OW  HW  HW  OW  HW  
HW  OW  HW  HW  OW  HW  HW  OW  HW  HW  OW  HW  HW  OW  HW  HW  OW  HW  HW  OW  
HW  HW  OW  HW  HW  OW  HW  HW  OW  HW  HW  OW  HW  HW  OW  HW  HW  OW  HW  HW  
OW  HW  HW  OW  HW  HW  OW  HW  HW  OW  HW  HW  OW  HW  HW  OW  HW  HW  OW  HW  
HW  OW  HW  HW  OW  HW  HW  OW  HW  HW  OW  HW  HW  OW  HW  HW  OW  HW  HW  OW  
HW  HW  OW  HW  HW  OW  HW  HW  OW  HW  HW  OW  HW  HW  OW  HW  HW  OW  HW  HW  
OW  HW  HW  OW  HW  HW  OW  HW  HW  OW  HW  HW  OW  HW  HW  OW  HW  HW  OW  HW  
HW  OW  HW  HW  OW  HW  HW  OW  HW  HW  OW  HW  HW  OW  HW  HW  OW  HW  HW  OW  
HW  HW  OW  HW  HW  OW  HW  HW  OW  HW  HW  OW  HW  HW  OW  HW  HW  OW  HW  HW  
OW  HW  HW  OW  HW  HW  OW  HW  HW  OW  HW  HW  OW  HW  HW  OW  HW  HW  OW  HW  
HW  OW  HW  HW  OW  HW  HW  OW  HW  HW  OW  HW  HW  OW  HW  HW  OW  HW  HW  OW  
HW  HW  OW  HW  HW  OW  HW  HW  OW  HW  HW  OW  HW  HW  OW  HW  HW  OW  HW  HW  
OW  HW  HW  OW  HW  HW  OW  HW  HW  OW  HW  HW  OW  HW  HW  OW  HW  HW  OW  HW  
HW  OW  HW  HW  OW  HW  HW  OW  HW  HW  OW  HW  HW  OW  HW  HW  OW  HW  HW  OW  
HW  HW  OW  HW  HW  OW  HW  HW  OW  HW  HW  OW  HW  HW  OW  HW  HW  OW  HW  HW  
OW  HW  HW  OW  HW  HW  OW  HW  HW  OW  HW  HW  OW  HW  HW  OW  HW  HW  OW  HW  
HW  OW  HW  HW  OW  HW  HW  OW  HW  HW  OW  HW  HW  OW  HW  HW  OW  HW  HW  OW  
HW  HW  OW  HW  HW  OW  HW  HW  OW  HW  HW  OW  HW  HW  OW  HW  HW  OW  HW  HW  
OW  HW  HW  OW  HW  HW  OW  HW  HW  OW  HW  HW  OW  HW  HW  OW  HW  HW  OW  HW  
HW  OW  HW  HW  OW  HW  HW  OW  HW  HW  OW  HW  HW  OW  HW  HW  OW  HW  HW  OW  
HW  HW  OW  HW  HW  OW  HW  HW  OW  HW  HW  OW  HW  HW  OW  HW  HW  OW  HW  HW  
OW  HW  HW  OW  HW  HW  OW  HW  HW  OW  HW  HW  OW  HW  HW  OW  HW  HW  OW  HW  
HW  OW  HW  HW  OW  HW  HW  OW  HW  HW  OW  HW  HW  OW  HW  HW  OW  HW  HW  OW  
HW  HW  OW  HW  HW  OW  HW  HW  OW  HW  HW  OW  HW  HW  OW  HW  HW  OW  HW  HW  
OW  HW  HW  OW  HW  HW  OW  HW  HW  OW  HW  HW  OW  HW  HW  OW  HW  HW  OW  HW  
HW  OW  HW  HW  OW  HW  HW  OW  HW  HW  OW  HW  HW  OW  HW  HW  OW  HW  HW  OW  
HW  HW  OW  HW  HW  OW  HW  HW  OW  HW  HW  OW  HW  HW  OW  HW  HW  OW  HW  HW  
OW  HW  HW  OW  HW  HW  OW  HW  HW  OW  HW  HW  OW  HW  HW  OW  HW  HW  OW  HW  
HW  OW  HW  HW  OW  HW  HW  OW  HW  HW  OW  HW  HW  OW  HW  HW  OW  HW  HW  OW  
HW  HW  OW  HW  HW  OW  HW  HW  OW  HW  HW  OW  HW  HW  OW  HW  HW  OW  HW  HW  
OW  HW  HW  OW  HW  HW  OW  HW  HW  OW  HW  HW  OW  HW  HW  OW  HW  HW  OW  HW  
HW  OW  HW  HW  OW  HW  HW  OW  HW  HW  OW  HW  HW  OW  HW  HW  OW  HW  HW  OW  
HW  HW  OW  HW  HW  OW  HW  HW  OW  HW  HW  OW  HW  HW  OW  HW  HW  OW  HW  HW  
OW  HW  HW  OW  HW  HW  OW  HW  HW  OW  HW  HW  OW  HW  HW  OW  HW  HW  OW  HW  
HW  OW  HW  HW  OW  HW  HW  OW  HW  HW  OW  HW  HW  OW  HW  HW  OW  HW  HW  OW  
HW  HW  OW  HW  HW  OW  HW  HW  OW  HW  HW  OW  HW  HW  OW  HW  HW  OW  HW  HW  
OW  HW  HW  OW  HW  HW  OW  HW  HW  OW  HW  HW  OW  HW  HW  OW  HW  HW  OW  HW  
HW  OW  HW  HW  OW  HW  HW  OW  HW  HW  OW  HW  HW  OW  HW  HW  OW  HW  HW  OW  
HW  HW  OW  HW  HW  OW  HW  HW  OW  HW  HW  OW  HW  HW  OW  HW  HW  OW  HW  HW  
OW  HW  HW  OW  HW  HW  OW  HW  HW  OW  HW  HW  OW  HW  HW  OW  HW  HW  OW  HW  
HW  OW  HW  HW  OW  HW  HW  OW  HW  HW  OW  HW  HW  OW  HW  HW  OW  HW  HW  OW  
HW  HW  OW  HW  HW  OW  HW  HW  OW  HW  HW  OW  HW  HW  OW  HW  HW  OW  HW  HW  
OW  HW  HW  OW  HW  HW  OW  HW  HW  OW  HW  HW  OW  HW  HW  OW  HW  HW  OW  HW  
HW  OW  HW  HW  OW  HW  HW  OW  HW  HW  OW  HW  HW  OW  HW  HW  OW  HW  HW  OW  
HW  HW  OW  HW  HW  OW  HW  HW  OW  HW  HW  OW  HW  HW  OW  HW  HW  OW  HW  HW  
OW  HW  HW  OW  HW  HW  OW  HW  HW  OW  HW  HW  OW  HW  HW  OW  HW  HW  OW  HW  
HW  OW  HW  HW  OW  HW  HW  OW  HW  HW  OW  HW  HW  OW  HW  HW  OW  HW  HW  OW  
HW  HW  OW  HW  HW  OW  HW  HW  OW  HW  HW  OW  HW  HW  OW  HW  HW  OW  HW  HW  
OW  HW  HW  OW  HW  HW  OW  HW  HW  OW  HW  HW  OW  HW  HW  OW  HW  HW  OW  HW  
HW  OW  HW  HW  OW  HW  HW  OW  HW  HW  OW  HW  HW  OW  HW  HW  OW  HW  HW  OW  
HW  HW  OW  HW  HW  OW  HW  HW  OW  HW  HW  OW  HW  HW  OW  HW  HW  OW  HW  HW  
OW  HW  HW  OW  HW  HW  OW  HW  HW  OW  HW  HW  OW  HW  HW  OW  HW  HW  OW  HW  
HW  OW  HW  HW  OW  HW  HW  OW  HW  HW  OW  HW  HW  OW  HW  HW  OW  HW  HW  OW  
HW  HW  OW  HW  HW  OW  HW  HW  OW  HW  HW  OW  HW  HW  OW  HW  HW  OW  HW  HW  
OW  HW  HW  OW  HW  HW  OW  HW  HW  OW  HW  HW  OW  HW  HW  OW  HW  HW  OW  HW  
HW  OW  HW  HW  OW  HW  HW  OW  HW  HW  OW  HW  HW  OW  HW  HW  OW  HW  HW  OW  
HW  HW  OW  HW  HW  OW  HW  HW  OW  HW  HW  OW  HW  HW  OW  HW  HW  OW  HW  HW  
OW  HW  HW  OW  HW  HW  OW  HW  HW  OW  HW  HW  OW  HW  HW  OW  HW  HW  OW  HW  
HW  OW  HW  HW  OW  HW  HW  OW  HW  HW  OW  HW  HW  OW  HW  HW  OW  HW  HW  OW  
HW  HW  OW  HW  HW  OW  HW  HW  OW  HW  HW  OW  HW  HW  OW  HW  HW  OW  HW  HW  
OW  HW  HW  OW  HW  HW  OW  HW  HW  OW  HW  HW  OW  HW  HW  OW  HW  HW  OW  HW  
HW  OW  HW  HW  OW  HW  HW  OW  HW  HW  OW  HW  HW  OW  HW  HW  OW  HW  HW  OW  
HW  HW  OW  HW  HW  OW  HW  HW  OW  HW  HW  OW  HW  HW  OW  HW  HW  OW  HW  HW  
OW  HW  HW  OW  HW  HW  OW  HW  HW  OW  HW  HW  OW  HW  HW  OW  HW  HW  OW  HW  
HW  OW  HW  HW  OW  HW  HW  OW  HW  HW  OW  HW  HW  OW  HW  HW  OW  HW  HW  OW  
HW  HW  OW  HW  HW  OW  HW  HW  OW  HW  HW  OW  HW  HW  OW  HW  HW  OW  HW  HW  
OW  HW  HW  OW  HW  HW  OW  HW  HW  OW  HW  HW  OW  HW  HW  OW  HW  HW  OW  HW  
HW  OW  HW  HW  OW  HW  HW  OW  HW  HW  OW  HW  HW  OW  HW  HW  OW  HW  HW  OW  
HW  HW  OW  HW  HW  OW  HW  HW  OW  HW  HW  OW  HW  HW  OW  HW  HW  OW  HW  HW  
OW  HW  HW  OW  HW  HW  OW  HW  HW  OW  HW  HW  OW  HW  HW  OW  HW  HW  OW  HW  
HW  OW  HW  HW  OW  HW  HW  OW  HW  HW  OW  HW  HW  OW  HW  HW  OW  HW  HW  OW  
HW  HW  OW  HW  HW  OW  HW  HW  OW  HW  HW  OW  HW  HW  OW  HW  HW  OW  HW  HW  
OW  HW  HW  OW  HW  HW  OW  HW  HW  OW  HW  HW  OW  HW  HW  OW  HW  HW  OW  HW  
HW  OW  HW  HW  OW  HW  HW  OW  HW  HW  OW  HW  HW  OW  HW  HW  OW  HW  HW  OW  
HW  HW  OW  HW  HW  OW  HW  HW  OW  HW  HW  OW  HW  HW  OW  HW  HW  OW  HW  HW  
OW  HW  HW  OW  HW  HW  OW  HW  HW  OW  HW  HW  OW  HW  HW  OW  HW  HW  OW  HW  
HW  OW  HW  HW  OW  HW  HW  OW  HW  HW  OW  HW  HW  OW  HW  HW  OW  HW  HW  OW  
HW  HW  OW  HW  HW  OW  HW  HW  OW  HW  HW  OW  HW  HW  OW  HW  HW  OW  HW  HW  
OW  HW  HW  OW  HW  HW  OW  HW  HW  OW  HW  HW  OW  HW  HW  OW  HW  HW  OW  HW  
HW  OW  HW  HW  OW  HW  HW  OW  HW  HW  OW  HW  HW  OW  HW  HW  OW  HW  HW  OW  
HW  HW  OW  HW  HW  OW  HW  HW  OW  HW  HW  OW  HW  HW  OW  HW  HW  OW  HW  HW  
OW  HW  HW  OW  HW  HW  OW  HW  HW  OW  HW  HW  OW  HW  HW  OW  HW  HW  OW  HW  
HW  OW  HW  HW  OW  HW  HW  OW  HW  HW  OW  HW  HW  OW  HW  HW  OW  HW  HW  OW  
HW  HW  OW  HW  HW  OW  HW  HW  OW  HW  HW  OW  HW  HW  OW  HW  HW  OW  HW  HW  
OW  HW  HW  OW  HW  HW  OW  HW  HW  OW  HW  HW  OW  HW  HW  OW  HW  HW  OW  HW  
HW  OW  HW  HW  OW  HW  HW  OW  HW  HW  OW  HW  HW  OW  HW  HW  OW  HW  HW  OW  
HW  HW  OW  HW  HW  OW  HW  HW  OW  HW  HW  OW  HW  HW  OW  HW  HW  OW  HW  HW  
OW  HW  HW  OW  HW  HW  OW  HW  HW  OW  HW  HW  OW  HW  HW  OW  HW  HW  OW  HW  
HW  OW  HW  HW  OW  HW  HW  OW  HW  HW  OW  HW  HW  OW  HW  HW  OW  HW  HW  OW  
HW  HW  OW  HW  HW  OW  HW  HW  OW  HW  HW  OW  HW  HW  OW  HW  HW  OW  HW  HW  
OW  HW  HW  OW  HW  HW  OW  HW  HW  OW  HW  HW  OW  HW  HW  OW  HW  HW  OW  HW  
HW  OW  HW  HW  OW  HW  HW  OW  HW  HW  OW  HW  HW  OW  HW  HW  OW  HW  HW  OW  
HW  HW  OW  HW  HW  OW  HW  HW  OW  HW  HW  OW  HW  HW  OW  HW  HW  OW  HW  HW  
OW  HW  HW  OW  HW  HW  OW  HW  HW  OW  HW  HW  OW  HW  HW  OW  HW  HW  OW  HW  
HW  OW  HW  HW  OW  HW  HW  OW  HW  HW  OW  HW  HW  OW  HW  HW  OW  HW  HW  OW  
HW  HW  OW  HW  HW  OW  HW  HW  OW  HW  HW  OW  HW  HW  OW  HW  HW  OW  HW  HW  
OW  HW  HW  OW  HW  HW  OW  HW  HW  OW  HW  HW  OW  HW  HW  OW  HW  HW  OW  HW  
HW  OW  HW  HW  OW  HW  HW  OW  HW  HW  OW  HW  HW  OW  HW  HW  OW  HW  HW  OW  
HW  HW  OW  HW  HW  OW  HW  HW  OW  HW  HW  OW  HW  HW  OW  HW  HW  OW  HW  HW  
OW  HW  HW  OW  HW  HW  OW  HW  HW  OW  HW  HW  OW  HW  HW  OW  HW  HW  OW  HW  
HW  OW  HW  HW  OW  HW  HW  OW  HW  HW  OW  HW  HW  OW  HW  HW  OW  HW  HW  OW  
HW  HW  OW  HW  HW  OW  HW  HW  OW  HW  HW  OW  HW  HW  OW  HW  HW  OW  HW  HW  
OW  HW  HW  OW  HW  HW  OW  HW  HW  OW  HW  HW  OW  HW  HW  OW  HW  HW  OW  HW  
HW  OW  HW  HW  OW  HW  HW  OW  HW  HW  OW  HW  HW  OW  HW  HW  OW  HW  HW  OW  
HW  HW  OW  HW  HW  OW  HW  HW  OW  HW  HW  OW  HW  HW  OW  HW  HW  OW  HW  HW  
OW  HW  HW  OW  HW  HW  OW  HW  HW  OW  HW  HW  OW  HW  HW  OW  HW  HW  OW  HW  
HW  OW  HW  HW  OW  HW  HW  OW  HW  HW  OW  HW  HW  OW  HW  HW  OW  HW  HW  OW  
HW  HW  OW  HW  HW  OW  HW  HW  OW  HW  HW  OW  HW  HW  OW  HW  HW  OW  HW  HW  
OW  HW  HW  OW  HW  HW  OW  HW  HW  OW  HW  HW  OW  HW  HW  OW  HW  HW  OW  HW  
HW  OW  HW  HW  OW  HW  HW  OW  HW  HW  OW  HW  HW  OW  HW  HW  OW  HW  HW  OW  
HW  HW  OW  HW  HW  OW  HW  HW  OW  HW  HW  OW  HW  HW  OW  HW  HW  OW  HW  HW  
OW  HW  HW  OW  HW  HW  OW  HW  HW  OW  HW  HW  OW  HW  HW  OW  HW  HW  OW  HW  
HW  OW  HW  HW  OW  HW  HW  OW  HW  HW  OW  HW  HW  OW  HW  HW  OW  HW  HW  OW  
HW  HW  OW  HW  HW  OW  HW  HW  OW  HW  HW  OW  HW  HW  OW  HW  HW  OW  HW  HW  
OW  HW  HW  OW  HW  HW  OW  HW  HW  OW  HW  HW  OW  HW  HW  OW  HW  HW  OW  HW  
HW  OW  HW  HW  OW  HW  HW  OW  HW  HW  OW  HW  HW  OW  HW  HW  OW  HW  HW  OW  
HW  HW  OW  HW  HW  OW  HW  HW  OW  HW  HW  OW  HW  HW  OW  HW  HW  OW  HW  HW  
OW  HW  HW  OW  HW  HW  OW  HW  HW  OW  HW  HW  OW  HW  HW  OW  HW  HW  OW  HW  
HW  OW  HW  HW  OW  HW  HW  OW  HW  HW  OW  HW  HW  OW  HW  HW  OW  HW  HW  OW  
HW  HW  OW  HW  HW  OW  HW  HW  OW  HW  HW  OW  HW  HW  OW  HW  HW  OW  HW  HW  
OW  HW  HW  OW  HW  HW  OW  HW  HW  OW  HW  HW  OW  HW  HW  OW  HW  HW  OW  HW  
HW  OW  HW  HW  OW  HW  HW  OW  HW  HW  OW  HW  HW  OW  HW  HW  OW  HW  HW  OW  
HW  HW  OW  HW  HW  OW  HW  HW  OW  HW  HW  OW  HW  HW  OW  HW  HW  OW  HW  HW  
OW  HW  HW  OW  HW  HW  OW  HW  HW  OW  HW  HW  OW  HW  HW  OW  HW  HW  OW  HW  
HW  OW  HW  HW  OW  HW  HW  OW  HW  HW  OW  HW  HW  OW  HW  HW  OW  HW  HW  OW  
HW  HW  OW  HW  HW  OW  HW  HW  OW  HW  HW  OW  HW  HW  OW  HW  HW  OW  HW  HW  
OW  HW  HW  OW  HW  HW  OW  HW  HW  OW  HW  HW  OW  HW  HW  OW  HW  HW  OW  HW  
HW  OW  HW  HW  OW  HW  HW  OW  HW  HW  OW  HW  HW  OW  HW  HW  OW  HW  HW  OW  
HW  HW  OW  HW  HW  OW  HW  HW  OW  HW  HW  OW  HW  HW  OW  HW  HW  OW  HW  HW  
OW  HW  HW  OW  HW  HW  OW  HW  HW  OW  HW  HW  OW  HW  HW  OW  HW  HW  OW  HW  
HW  OW  HW  HW  OW  HW  HW  OW  HW  HW  OW  HW  HW  OW  HW  HW  OW  HW  HW  OW  
HW  HW  OW  HW  HW  OW  HW  HW  OW  HW  HW  OW  HW  HW  OW  HW  HW  OW  HW  HW  
OW  HW  HW  OW  HW  HW  OW  HW  HW  OW  HW  HW  OW  HW  HW  OW  HW  HW  OW  HW  
HW  OW  HW  HW  OW  HW  HW  OW  HW  HW  OW  HW  HW  OW  HW  HW  OW  HW  HW  OW  
HW  HW  OW  HW  HW  OW  HW  HW  OW  HW  HW  OW  HW  HW  OW  HW  HW  OW  HW  HW  
OW  HW  HW  OW  HW  HW  OW  HW  HW  OW  HW  HW  OW  HW  HW  OW  HW  HW  OW  HW  
HW  OW  HW  HW  OW  HW  HW  OW  HW  HW  OW  HW  HW  OW  HW  HW  OW  HW  HW  OW  
HW  HW  OW  HW  HW  OW  HW  HW  OW  HW  HW  OW  HW  HW  OW  HW  HW  OW  HW  HW  
OW  HW  HW  OW  HW  HW  OW  HW  HW  OW  HW  HW  OW  HW  HW  OW  HW  HW  OW  HW  
HW  OW  HW  HW  OW  HW  HW  OW  HW  HW  OW  HW  HW  OW  HW  HW  OW  HW  HW  OW  
HW  HW  OW  HW  HW  OW  HW  HW  OW  HW  HW  OW  HW  HW  OW  HW  HW  OW  HW  HW  
OW  HW  HW  OW  HW  HW  OW  HW  HW  OW  HW  HW  OW  HW  HW  OW  HW  HW  OW  HW  
HW  OW  HW  HW  OW  HW  HW  OW  HW  HW  OW  HW  HW  OW  HW  HW  OW  HW  HW  OW  
HW  HW  OW  HW  HW  OW  HW  HW  OW  HW  HW  OW  HW  HW  OW  HW  HW  OW  HW  HW  
OW  HW  HW  OW  HW  HW  OW  HW  HW  OW  HW  HW  OW  HW  HW  OW  HW  HW  OW  HW  
HW  OW  HW  HW  OW  HW  HW  OW  HW  HW  OW  HW  HW  OW  HW  HW  OW  HW  HW  OW  
HW  HW  OW  HW  HW  OW  HW  HW  OW  HW  HW  OW  HW  HW  OW  HW  HW  OW  HW  HW  
OW  HW  HW  OW  HW  HW  OW  HW  HW  OW  HW  HW  OW  HW  HW  OW  HW  HW  OW  HW  
HW  OW  HW  HW  OW  HW  HW  OW  HW  HW  OW  HW  HW  OW  HW  HW  OW  HW  HW  OW  
HW  HW  OW  HW  HW  OW  HW  HW  OW  HW  HW  OW  HW  HW  OW  HW  HW  OW  HW  HW  
OW  HW  HW  OW  HW  HW  OW  HW  HW  OW  HW  HW  OW  HW  HW  OW  HW  HW  OW  HW  
HW  OW  HW  HW  OW  HW  HW  OW  HW  HW  OW  HW  HW  OW  HW  HW  OW  HW  HW  OW  
HW  HW  OW  HW  HW  OW  HW  HW  OW  HW  HW  OW  HW  HW  OW  HW  HW  OW  HW  HW  
OW  HW  HW  OW  HW  HW  OW  HW  HW  OW  HW  HW  OW  HW  HW  OW  HW  HW  OW  HW  
HW  OW  HW  HW  OW  HW  HW  OW  HW  HW  OW  HW  HW  OW  HW  HW  OW  HW  HW  OW  
HW  HW  OW  HW  HW  OW  HW  HW  OW  HW  HW  OW  HW  HW  OW  HW  HW  OW  HW  HW  
OW  HW  HW  OW  HW  HW  OW  HW  HW  OW  HW  HW  OW  HW  HW  OW  HW  HW  OW  HW  
HW  OW  HW  HW  OW  HW  HW  OW  HW  HW  OW  HW  HW  OW  HW  HW  OW  HW  HW  OW  
HW  HW  OW  HW  HW  OW  HW  HW  OW  HW  HW  OW  HW  HW  OW  HW  HW  OW  HW  HW  
OW  HW  HW  OW  HW  HW  OW  HW  HW  OW  HW  HW  OW  HW  HW  OW  HW  HW  OW  HW  
HW  OW  HW  HW  OW  HW  HW  OW  HW  HW  OW  HW  HW  OW  HW  HW  OW  HW  HW  OW  
HW  HW  OW  HW  HW  OW  HW  HW  OW  HW  HW  OW  HW  HW  OW  HW  HW  OW  HW  HW  
OW  HW  HW  OW  HW  HW  OW  HW  HW  OW  HW  HW  OW  HW  HW  OW  HW  HW  OW  HW  
HW  OW  HW  HW  OW  HW  HW  OW  HW  HW  OW  HW  HW  OW  HW  HW  OW  HW  HW  OW  
HW  HW  OW  HW  HW  OW  HW  HW  OW  HW  HW  OW  HW  HW  OW  HW  HW  OW  HW  HW  
OW  HW  HW  OW  HW  HW  OW  HW  HW  OW  HW  HW  OW  HW  HW  OW  HW  HW  OW  HW  
HW  OW  HW  HW  OW  HW  HW  OW  HW  HW  OW  HW  HW  OW  HW  HW  OW  HW  HW  OW  
HW  HW  OW  HW  HW  OW  HW  HW  OW  HW  HW  OW  HW  HW  OW  HW  HW  OW  HW  HW  
OW  HW  HW  OW  HW  HW  OW  HW  HW  OW  HW  HW  OW  HW  HW  OW  HW  HW  OW  HW  
HW  OW  HW  HW  OW  HW  HW  OW  HW  HW  OW  HW  HW  OW  HW  HW  OW  HW  HW  OW  
HW  HW  OW  HW  HW  OW  HW  HW  OW  HW  HW  OW  HW  HW  OW  HW  HW  OW  HW  HW  
OW  HW  HW  OW  HW  HW  OW  HW  HW  OW  HW  HW  OW  HW  HW  OW  HW  HW  OW  HW  
HW  OW  HW  HW  OW  HW  HW  OW  HW  HW  OW  HW  HW  OW  HW  HW  OW  HW  HW  OW  
HW  HW  OW  HW  HW  OW  HW  HW  OW  HW  HW  OW  HW  HW  OW  HW  HW  OW  HW  HW  
OW  HW  HW  OW  HW  HW  OW  HW  HW  OW  HW  HW  OW  HW  HW  OW  HW  HW  OW  HW  
HW  OW  HW  HW  OW  HW  HW  OW  HW  HW  OW  HW  HW  OW  HW  HW  OW  HW  HW  OW  
HW  HW  OW  HW  HW  OW  HW  HW  OW  HW  HW  OW  HW  HW  OW  HW  HW  OW  HW  HW  
OW  HW  HW  OW  HW  HW  OW  HW  HW  OW  HW  HW  OW  HW  HW  OW  HW  HW  OW  HW  
HW  OW  HW  HW  OW  HW  HW  OW  HW  HW  OW  HW  HW  OW  HW  HW  OW  HW  HW  OW  
HW  HW  OW  HW  HW  OW  HW  HW  OW  HW  HW  OW  HW  HW  OW  HW  HW  OW  HW  HW  
OW  HW  HW  OW  HW  HW  OW  HW  HW  OW  HW  HW  OW  HW  HW  OW  HW  HW  OW  HW  
HW  OW  HW  HW  OW  HW  HW  OW  HW  HW  OW  HW  HW  OW  HW  HW  OW  HW  HW  OW  
HW  HW  OW  HW  HW  OW  HW  HW  OW  HW  HW  OW  HW  HW  OW  HW  HW  OW  HW  HW  
OW  HW  HW  OW  HW  HW  OW  HW  HW  OW  HW  HW  OW  HW  HW  OW  HW  HW  OW  HW  
HW  OW  HW  HW  OW  HW  HW  OW  HW  HW  OW  HW  HW  OW  HW  HW  OW  HW  HW  OW  
HW  HW  OW  HW  HW  OW  HW  HW  OW  HW  HW  OW  HW  HW  OW  HW  HW  OW  HW  HW  
OW  HW  HW  OW  HW  HW  OW  HW  HW  OW  HW  HW  OW  HW  HW  OW  HW  HW  OW  HW  
HW  OW  HW  HW  OW  HW  HW  OW  HW  HW  OW  HW  HW  OW  HW  HW  OW  HW  HW  OW  
HW  HW  OW  HW  HW  OW  HW  HW  OW  HW  HW  OW  HW  HW  OW  HW  HW  OW  HW  HW  
OW  HW  HW  OW  HW  HW  OW  HW  HW  OW  HW  HW  OW  HW  HW  OW  HW  HW  OW  HW  
HW  OW  HW  HW  OW  HW  HW  OW  HW  HW  OW  HW  HW  OW  HW  HW  OW  HW  HW  OW  
HW  HW  OW  HW  HW  OW  HW  HW  OW  HW  HW  OW  HW  HW  OW  HW  HW  OW  HW  HW  
OW  HW  HW  OW  HW  HW  OW  HW  HW  OW  HW  HW  OW  HW  HW  OW  HW  HW  OW  HW  
HW  OW  HW  HW  OW  HW  HW  OW  HW  HW  OW  HW  HW  OW  HW  HW  OW  HW  HW  OW  
HW  HW  OW  HW  HW  OW  HW  HW  OW  HW  HW  OW  HW  HW  OW  HW  HW  OW  HW  HW  
OW  HW  HW  OW  HW  HW  OW  HW  HW  OW  HW  HW  OW  HW  HW  OW  HW  HW  OW  HW  
HW  OW  HW  HW  OW  HW  HW  OW  HW  HW  OW  HW  HW  OW  HW  HW  OW  HW  HW  OW  
HW  HW  OW  HW  HW  OW  HW  HW  OW  HW  HW  OW  HW  HW  OW  HW  HW  OW  HW  HW  
OW  HW  HW  OW  HW  HW  OW  HW  HW  OW  HW  HW  OW  HW  HW  OW  HW  HW  OW  HW  
HW  OW  HW  HW  OW  HW  HW  OW  HW  HW  OW  HW  HW  OW  HW  HW  OW  HW  HW  OW  
HW  HW  OW  HW  HW  OW  HW  HW  OW  HW  HW  OW  HW  HW  OW  HW  HW  OW  HW  HW  
OW  HW  HW  OW  HW  HW  OW  HW  HW  OW  HW  HW  OW  HW  HW  OW  HW  HW  OW  HW  
HW  OW  HW  HW  OW  HW  HW  OW  HW  HW  OW  HW  HW  OW  HW  HW  OW  HW  HW  OW  
HW  HW  OW  HW  HW  OW  HW  HW  OW  HW  HW  OW  HW  HW  OW  HW  HW  OW  HW  HW  
OW  HW  HW  OW  HW  HW  OW  HW  HW  OW  HW  HW  OW  HW  HW  OW  HW  HW  OW  HW  
HW  OW  HW  HW  OW  HW  HW  OW  HW  HW  OW  HW  HW  OW  HW  HW  OW  HW  HW  OW  
HW  HW  OW  HW  HW  OW  HW  HW  OW  HW  HW  OW  HW  HW  OW  HW  HW  OW  HW  HW  
OW  HW  HW  OW  HW  HW  OW  HW  HW  OW  HW  HW  OW  HW  HW  OW  HW  HW  OW  HW  
HW  OW  HW  HW  OW  HW  HW  OW  HW  HW  OW  HW  HW  OW  HW  HW  OW  HW  HW  OW  
HW  HW  OW  HW  HW  OW  HW  HW  OW  HW  HW  OW  HW  HW  OW  HW  HW  OW  HW  HW  
OW  HW  HW  OW  HW  HW  OW  HW  HW  OW  HW  HW  OW  HW  HW  OW  HW  HW  OW  HW  
HW  OW  HW  HW  OW  HW  HW  OW  HW  HW  OW  HW  HW  OW  HW  HW  OW  HW  HW  OW  
HW  HW  OW  HW  HW  OW  HW  HW  OW  HW  HW  OW  HW  HW  OW  HW  HW  OW  HW  HW  
OW  HW  HW  OW  HW  HW  OW  HW  HW  OW  HW  HW  OW  HW  HW  OW  HW  HW  OW  HW  
HW  OW  HW  HW  OW  HW  HW  OW  HW  HW  OW  HW  HW  OW  HW  HW  OW  HW  HW  OW  
HW  HW  OW  HW  HW  OW  HW  HW  OW  HW  HW  OW  HW  HW  OW  HW  HW  OW  HW  HW  
OW  HW  HW  OW  HW  HW  OW  HW  HW  OW  HW  HW  OW  HW  HW  OW  HW  HW  OW  HW  
HW  OW  HW  HW  OW  HW  HW  OW  HW  HW  OW  HW  HW  OW  HW  HW  OW  HW  HW  OW  
HW  HW  OW  HW  HW  OW  HW  HW  OW  HW  HW  OW  HW  HW  OW  HW  HW  OW  HW  HW  
OW  HW  HW  OW  HW  HW  OW  HW  HW  OW  HW  HW  OW  HW  HW  OW  HW  HW  OW  HW  
HW  OW  HW  HW  OW  HW  HW  OW  HW  HW  OW  HW  HW  OW  HW  HW  OW  HW  HW  OW  
HW  HW  OW  HW  HW  OW  HW  HW  OW  HW  HW  OW  HW  HW  OW  HW  HW  OW  HW  HW  
OW  HW  HW  OW  HW  HW  OW  HW  HW  OW  HW  HW  OW  HW  HW  OW  HW  HW  OW  HW  
HW  OW  HW  HW  OW  HW  HW  OW  HW  HW  OW  HW  HW  OW  HW  HW  OW  HW  HW  OW  
HW  HW  OW  HW  HW  OW  HW  HW  OW  HW  HW  OW  HW  HW  OW  HW  HW  OW  HW  HW  
OW  HW  HW  OW  HW  HW  OW  HW  HW  OW  HW  HW  OW  HW  HW  OW  HW  HW  OW  HW  
HW  OW  HW  HW  OW  HW  HW  OW  HW  HW  OW  HW  HW  OW  HW  HW  OW  HW  HW  OW  
HW  HW  OW  HW  HW  OW  HW  HW  OW  HW  HW  OW  HW  HW  OW  HW  HW  OW  HW  HW  
OW  HW  HW  OW  HW  HW  OW  HW  HW  OW  HW  HW  OW  HW  HW  OW  HW  HW  OW  HW  
HW  OW  HW  HW  OW  HW  HW  OW  HW  HW  OW  HW  HW  OW  HW  HW  OW  HW  HW  OW  
HW  HW  OW  HW  HW  OW  HW  HW  OW  HW  HW  OW  HW  HW  OW  HW  HW  OW  HW  HW  
OW  HW  HW  OW  HW  HW  OW  HW  HW  OW  HW  HW  OW  HW  HW  OW  HW  HW  OW  HW  
HW  OW  HW  HW  OW  HW  HW  OW  HW  HW  OW  HW  HW  OW  HW  HW  OW  HW  HW  OW  
HW  HW  OW  HW  HW  OW  HW  HW  OW  HW  HW  OW  HW  HW  OW  HW  HW  OW  HW  HW  
OW  HW  HW  OW  HW  HW  OW  HW  HW  OW  HW  HW  OW  HW  HW  OW  HW  HW  OW  HW  
HW  OW  HW  HW  OW  HW  HW  OW  HW  HW  OW  HW  HW  OW  HW  HW  OW  HW  HW  OW  
HW  HW  OW  HW  HW  OW  HW  HW  OW  HW  HW  OW  HW  HW  OW  HW  HW  OW  HW  HW  
OW  HW  HW  OW  HW  HW  OW  HW  HW  OW  HW  HW  OW  HW  HW  OW  HW  HW  OW  HW  
HW  OW  HW  HW  OW  HW  HW  OW  HW  HW  OW  HW  HW  OW  HW  HW  OW  HW  HW  OW  
HW  HW  OW  HW  HW  OW  HW  HW  OW  HW  HW  OW  HW  HW  OW  HW  HW  OW  HW  HW  
OW  HW  HW  OW  HW  HW  OW  HW  HW  OW  HW  HW  OW  HW  HW  OW  HW  HW  OW  HW  
HW  OW  HW  HW  OW  HW  HW  OW  HW  HW  OW  HW  HW  OW  HW  HW  OW  HW  HW  OW  
HW  HW  OW  HW  HW  OW  HW  HW  OW  HW  HW  OW  HW  HW  OW  HW  HW  OW  HW  HW  
OW  HW  HW  OW  HW  HW  OW  HW  HW  OW  HW  HW  OW  HW  HW  OW  HW  HW  OW  HW  
HW  OW  HW  HW  OW  HW  HW  OW  HW  HW  OW  HW  HW  OW  HW  HW  OW  HW  HW  OW  
HW  HW  OW  HW  HW  OW  HW  HW  OW  HW  HW  OW  HW  HW  OW  HW  HW  OW  HW  HW  
OW  HW  HW  OW  HW  HW  OW  HW  HW  OW  HW  HW  OW  HW  HW  OW  HW  HW  OW  HW  
HW  OW  HW  HW  OW  HW  HW  OW  HW  HW  OW  HW  HW  OW  HW  HW  OW  HW  HW  OW  
HW  HW  OW  HW  HW  OW  HW  HW  OW  HW  HW  OW  HW  HW  OW  HW  HW  OW  HW  HW  
OW  HW  HW  OW  HW  HW  OW  HW  HW  OW  HW  HW  OW  HW  HW  OW  HW  HW  OW  HW  
HW  OW  HW  HW  OW  HW  HW  OW  HW  HW  OW  HW  HW  OW  HW  HW  OW  HW  HW  OW  
HW  HW  OW  HW  HW  OW  HW  HW  OW  HW  HW  OW  HW  HW  OW  HW  HW  OW  HW  HW  
OW  HW  HW  OW  HW  HW  OW  HW  HW  OW  HW  HW  OW  HW  HW  OW  HW  HW  OW  HW  
HW  OW  HW  HW  OW  HW  HW  OW  HW  HW  OW  HW  HW  OW  HW  HW  OW  HW  HW  OW  
HW  HW  OW  HW  HW  OW  HW  HW  OW  HW  HW  OW  HW  HW  OW  HW  HW  OW  HW  HW  
OW  HW  HW  OW  HW  HW  OW  HW  HW  OW  HW  HW  OW  HW  HW  OW  HW  HW  OW  HW  
HW  OW  HW  HW  OW  HW  HW  OW  HW  HW  OW  HW  HW  OW  HW  HW  OW  HW  HW  OW  
HW  HW  OW  HW  HW  OW  HW  HW  OW  HW  HW  OW  HW  HW  OW  HW  HW  OW  HW  HW  
OW  HW  HW  OW  HW  HW  OW  HW  HW  OW  HW  HW  OW  HW  HW  OW  HW  HW  OW  HW  
HW  OW  HW  HW  OW  HW  HW  OW  HW  HW  OW  HW  HW  OW  HW  HW  OW  HW  HW  OW  
HW  HW  OW  HW  HW  OW  HW  HW  OW  HW  HW  OW  HW  HW  OW  HW  HW  OW  HW  HW  
OW  HW  HW  OW  HW  HW  OW  HW  HW  OW  HW  HW  OW  HW  HW  OW  HW  HW  OW  HW  
HW  OW  HW  HW  OW  HW  HW  OW  HW  HW  OW  HW  HW  OW  HW  HW  OW  HW  HW  OW  
HW  HW  OW  HW  HW  OW  HW  HW  OW  HW  HW  OW  HW  HW  OW  HW  HW  OW  HW  HW  
OW  HW  HW  OW  HW  HW  OW  HW  HW  OW  HW  HW  OW  HW  HW  OW  HW  HW  OW  HW  
HW  OW  HW  HW  OW  HW  HW  OW  HW  HW  OW  HW  HW  OW  HW  HW  OW  HW  HW  OW  
HW  HW  OW  HW  HW  OW  HW  HW  OW  HW  HW  OW  HW  HW  OW  HW  HW  OW  HW  HW  
OW  HW  HW  OW  HW  HW  OW  HW  HW  OW  HW  HW  OW  HW  HW  OW  HW  HW  OW  HW  
HW  OW  HW  HW  OW  HW  HW  OW  HW  HW  OW  HW  HW  OW  HW  HW  OW  HW  HW  OW  
HW  HW  OW  HW  HW  OW  HW  HW  OW  HW  HW  OW  HW  HW  OW  HW  HW  OW  HW  HW  
OW  HW  HW  OW  HW  HW  OW  HW  HW  OW  HW  HW  OW  HW  HW  OW  HW  HW  OW  HW  
HW  OW  HW  HW  OW  HW  HW  OW  HW  HW  OW  HW  HW  OW  HW  HW  OW  HW  HW  OW  
HW  HW  OW  HW  HW  OW  HW  HW  OW  HW  HW  OW  HW  HW  OW  HW  HW  OW  HW  HW  
OW  HW  HW  OW  HW  HW  OW  HW  HW  OW  HW  HW  OW  HW  HW  OW  HW  HW  OW  HW  
HW  OW  HW  HW  OW  HW  HW  OW  HW  HW  OW  HW  HW  OW  HW  HW  OW  HW  HW  OW  
HW  HW  OW  HW  HW  OW  HW  HW  OW  HW  HW  OW  HW  HW  OW  HW  HW  OW  HW  HW  
OW  HW  HW  OW  HW  HW  OW  HW  HW  OW  HW  HW  OW  HW  HW  OW  HW  HW  OW  HW  
HW  OW  HW  HW  OW  HW  HW  OW  HW  HW  OW  HW  HW  OW  HW  HW  OW  HW  HW  OW  
HW  HW  OW  HW  HW  OW  HW  HW  OW  HW  HW  OW  HW  HW  OW  HW  HW  OW  HW  HW  
OW  HW  HW  OW  HW  HW  OW  HW  HW  OW  HW  HW  OW  HW  HW  OW  HW  HW  OW  HW  
HW  OW  HW  HW  OW  HW  HW  OW  HW  HW  OW  HW  HW  OW  HW  HW  OW  HW  HW  OW  
HW  HW  OW  HW  HW  OW  HW  HW  OW  HW  HW  OW  HW  HW  OW  HW  HW  OW  HW  HW  
OW  HW  HW  OW  HW  HW  OW  HW  HW  OW  HW  HW  OW  HW  HW  OW  HW  HW  OW  HW  
HW  OW  HW  HW  OW  HW  HW  OW  HW  HW  OW  HW  HW  OW  HW  HW  OW  HW  HW  OW  
HW  HW  OW  HW  HW  OW  HW  HW  OW  HW  HW  OW  HW  HW  OW  HW  HW  OW  HW  HW  
OW  HW  HW  OW  HW  HW  OW  HW  HW  OW  HW  HW  OW  HW  HW  OW  HW  HW  OW  HW  
HW  OW  HW  HW  OW  HW  HW  OW  HW  HW  OW  HW  HW  OW  HW  HW  OW  HW  HW  OW  
HW  HW  OW  HW  HW  OW  HW  HW  OW  HW  HW  OW  HW  HW  OW  HW  HW  OW  HW  HW  
OW  HW  HW  OW  HW  HW  OW  HW  HW  OW  HW  HW  OW  HW  HW  OW  HW  HW  OW  HW  
HW  OW  HW  HW  OW  HW  HW  OW  HW  HW  OW  HW  HW  OW  HW  HW  OW  HW  HW  OW  
HW  HW  OW  HW  HW  OW  HW  HW  OW  HW  HW  OW  HW  HW  OW  HW  HW  OW  HW  HW  
OW  HW  HW  OW  HW  HW  OW  HW  HW  OW  HW  HW  OW  HW  HW  OW  HW  HW  OW  HW  
HW  OW  HW  HW  OW  HW  HW  OW  HW  HW  OW  HW  HW  OW  HW  HW  OW  HW  HW  OW  
HW  HW  OW  HW  HW  OW  HW  HW  OW  HW  HW  OW  HW  HW  OW  HW  HW  OW  HW  HW  
OW  HW  HW  OW  HW  HW  OW  HW  HW  OW  HW  HW  OW  HW  HW  OW  HW  HW  OW  HW  
HW  OW  HW  HW  OW  HW  HW  OW  HW  HW  OW  HW  HW  OW  HW  HW  OW  HW  HW  OW  
HW  HW  OW  HW  HW  OW  HW  HW  OW  HW  HW  OW  HW  HW  OW  HW  HW  OW  HW  HW  
OW  HW  HW  OW  HW  HW  OW  HW  HW  OW  HW  HW  OW  HW  HW  OW  HW  HW  OW  HW  
HW  OW  HW  HW  OW  HW  HW  OW  HW  HW  OW  HW  HW  OW  HW  HW  OW  HW  HW  OW  
HW  HW  OW  HW  HW  OW  HW  HW  OW  HW  HW  OW  HW  HW  OW  HW  HW  OW  HW  HW  
OW  HW  HW  OW  HW  HW  OW  HW  HW  OW  HW  HW  OW  HW  HW  OW  HW  HW  OW  HW  
HW  OW  HW  HW  OW  HW  HW  OW  HW  HW  OW  HW  HW  OW  HW  HW  OW  HW  HW  OW  
HW  HW  OW  HW  HW  OW  HW  HW  OW  HW  HW  OW  HW  HW  OW  HW  HW  OW  HW  HW  
OW  HW  HW  OW  HW  HW  OW  HW  HW  OW  HW  HW  OW  HW  HW  OW  HW  HW  OW  HW  
HW  OW  HW  HW  OW  HW  HW  OW  HW  HW  OW  HW  HW  OW  HW  HW  OW  HW  HW  OW  
HW  HW  OW  HW  HW  OW  HW  HW  OW  HW  HW  OW  HW  HW  OW  HW  HW  OW  HW  HW  
OW  HW  HW  OW  HW  HW  OW  HW  HW  OW  HW  HW  OW  HW  HW  OW  HW  HW  OW  HW  
HW  OW  HW  HW  OW  HW  HW  OW  HW  HW  OW  HW  HW  OW  HW  HW  OW  HW  HW  OW  
HW  HW  OW  HW  HW  OW  HW  HW  OW  HW  HW  OW  HW  HW  OW  HW  HW  OW  HW  HW  
OW  HW  HW  OW  HW  HW  OW  HW  HW  OW  HW  HW  OW  HW  HW  OW  HW  HW  OW  HW  
HW  OW  HW  HW  OW  HW  HW  OW  HW  HW  OW  HW  HW  OW  HW  HW  OW  HW  HW  OW  
HW  HW  OW  HW  HW  OW  HW  HW  OW  HW  HW  OW  HW  HW  OW  HW  HW  OW  HW  HW  
OW  HW  HW  OW  HW  HW  OW  HW  HW  OW  HW  HW  OW  HW  HW  OW  HW  HW  OW  HW  
HW  OW  HW  HW  OW  HW  HW  OW  HW  HW  OW  HW  HW  OW  HW  HW  OW  HW  HW  OW  
HW  HW  OW  HW  HW  OW  HW  HW  OW  HW  HW  OW  HW  HW  OW  HW  HW  OW  HW  HW  
OW  HW  HW  OW  HW  HW  OW  HW  HW  OW  HW  HW  OW  HW  HW  OW  HW  HW  OW  HW  
HW  OW  HW  HW  OW  HW  HW  OW  HW  HW  OW  HW  HW  OW  HW  HW  OW  HW  HW  OW  
HW  HW  OW  HW  HW  OW  HW  HW  OW  HW  HW  OW  HW  HW  OW  HW  HW  OW  HW  HW  
OW  HW  HW  OW  HW  HW  OW  HW  HW  OW  HW  HW  OW  HW  HW  OW  HW  HW  OW  HW  
HW  OW  HW  HW  OW  HW  HW  OW  HW  HW  OW  HW  HW  OW  HW  HW  OW  HW  HW  OW  
HW  HW  OW  HW  HW  OW  HW  HW  OW  HW  HW  OW  HW  HW  OW  HW  HW  OW  HW  HW  
OW  HW  HW  OW  HW  HW  OW  HW  HW  OW  HW  HW  OW  HW  HW  OW  HW  HW  OW  HW  
HW  OW  HW  HW  OW  HW  HW  OW  HW  HW  OW  HW  HW  OW  HW  HW  OW  HW  HW  OW  
HW  HW  OW  HW  HW  OW  HW  HW  OW  HW  HW  OW  HW  HW  OW  HW  HW  OW  HW  HW  
OW  HW  HW  OW  HW  HW  OW  HW  HW  OW  HW  HW  OW  HW  HW  OW  HW  HW  OW  HW  
HW  OW  HW  HW  OW  HW  HW  OW  HW  HW  OW  HW  HW  OW  HW  HW  OW  HW  HW  OW  
HW  HW  OW  HW  HW  OW  HW  HW  OW  HW  HW  OW  HW  HW  OW  HW  HW  OW  HW  HW  
OW  HW  HW  OW  HW  HW  OW  HW  HW  OW  HW  HW  OW  HW  HW  OW  HW  HW  OW  HW  
HW  OW  HW  HW  OW  HW  HW  OW  HW  HW  OW  HW  HW  OW  HW  HW  OW  HW  HW  OW  
HW  HW  OW  HW  HW  OW  HW  HW  OW  HW  HW  OW  HW  HW  OW  HW  HW  OW  HW  HW  
OW  HW  HW  OW  HW  HW  OW  HW  HW  OW  HW  HW  OW  HW  HW  OW  HW  HW  OW  HW  
HW  OW  HW  HW  OW  HW  HW  OW  HW  HW  OW  HW  HW  OW  HW  HW  OW  HW  HW  OW  
HW  HW  OW  HW  HW  OW  HW  HW  OW  HW  HW  OW  HW  HW  OW  HW  HW  OW  HW  HW  
OW  HW  HW  OW  HW  HW  OW  HW  HW  OW  HW  HW  OW  HW  HW  OW  HW  HW  OW  HW  
HW  OW  HW  HW  OW  HW  HW  OW  HW  HW  OW  HW  HW  OW  HW  HW  OW  HW  HW  OW  
HW  HW  OW  HW  HW  OW  HW  HW  OW  HW  HW  OW  HW  HW  OW  HW  HW  OW  HW  HW  
OW  HW  HW  OW  HW  HW  OW  HW  HW  OW  HW  HW  OW  HW  HW  OW  HW  HW  OW  HW  
HW  OW  HW  HW  OW  HW  HW  OW  HW  HW  OW  HW  HW  OW  HW  HW  OW  HW  HW  OW  
HW  HW  OW  HW  HW  OW  HW  HW  OW  HW  HW  OW  HW  HW  OW  HW  HW  OW  HW  HW  
OW  HW  HW  OW  HW  HW  OW  HW  HW  OW  HW  HW  OW  HW  HW  OW  HW  HW  OW  HW  
HW  OW  HW  HW  OW  HW  HW  OW  HW  HW  OW  HW  HW  OW  HW  HW  OW  HW  HW  OW  
HW  HW  OW  HW  HW  OW  HW  HW  OW  HW  HW  OW  HW  HW  OW  HW  HW  OW  HW  HW  
OW  HW  HW  OW  HW  HW  OW  HW  HW  OW  HW  HW  OW  HW  HW  OW  HW  HW  OW  HW  
HW  OW  HW  HW  OW  HW  HW  OW  HW  HW  OW  HW  HW  OW  HW  HW  OW  HW  HW  OW  
HW  HW  OW  HW  HW  OW  HW  HW  OW  HW  HW  OW  HW  HW  OW  HW  HW  OW  HW  HW  
OW  HW  HW  OW  HW  HW  OW  HW  HW  OW  HW  HW  OW  HW  HW  OW  HW  HW  OW  HW  
HW  OW  HW  HW  OW  HW  HW  OW  HW  HW  OW  HW  HW  OW  HW  HW  OW  HW  HW  OW  
HW  HW  OW  HW  HW  OW  HW  HW  OW  HW  HW  OW  HW  HW  OW  HW  HW  OW  HW  HW  
OW  HW  HW  OW  HW  HW  OW  HW  HW  OW  HW  HW  OW  HW  HW  OW  HW  HW  OW  HW  
HW  OW  HW  HW  OW  HW  HW  OW  HW  HW  OW  HW  HW  OW  HW  HW  OW  HW  HW  OW  
HW  HW  OW  HW  HW  OW  HW  HW  OW  HW  HW  OW  HW  HW  OW  HW  HW  OW  HW  HW  
OW  HW  HW  OW  HW  HW  OW  HW  HW  OW  HW  HW  OW  HW  HW  OW  HW  HW  OW  HW  
HW  OW  HW  HW  OW  HW  HW  OW  HW  HW  OW  HW  HW  OW  HW  HW  OW  HW  HW  OW  
HW  HW  OW  HW  HW  OW  HW  HW  OW  HW  HW  OW  HW  HW  OW  HW  HW  OW  HW  HW  
OW  HW  HW  OW  HW  HW  OW  HW  HW  OW  HW  HW  OW  HW  HW  OW  HW  HW  OW  HW  
HW  OW  HW  HW  OW  HW  HW  OW  HW  HW  OW  HW  HW  OW  HW  HW  OW  HW  HW  OW  
HW  HW  OW  HW  HW  OW  HW  HW  OW  HW  HW  OW  HW  HW  OW  HW  HW  OW  HW  HW  
OW  HW  HW  OW  HW  HW  OW  HW  HW  OW  HW  HW  OW  HW  HW  OW  HW  HW  OW  HW  
HW  OW  HW  HW  OW  HW  HW  OW  HW  HW  OW  HW  HW  OW  HW  HW  OW  HW  HW  OW  
HW  HW  OW  HW  HW  OW  HW  HW  OW  HW  HW  OW  HW  HW  OW  HW  HW  OW  HW  HW  
OW  HW  HW  OW  HW  HW  OW  HW  HW  OW  HW  HW  OW  HW  HW  OW  HW  HW  OW  HW  
HW  OW  HW  HW  OW  HW  HW  OW  HW  HW  OW  HW  HW  OW  HW  HW  OW  HW  HW  OW  
HW  HW  OW  HW  HW  OW  HW  HW  OW  HW  HW  OW  HW  HW  OW  HW  HW  OW  HW  HW  
OW  HW  HW  OW  HW  HW  OW  HW  HW  OW  HW  HW  OW  HW  HW  OW  HW  HW  OW  HW  
HW  OW  HW  HW  OW  HW  HW  OW  HW  HW  OW  HW  HW  OW  HW  HW  OW  HW  HW  OW  
HW  HW  OW  HW  HW  OW  HW  HW  OW  HW  HW  OW  HW  HW  OW  HW  HW  OW  HW  HW  
OW  HW  HW  OW  HW  HW  OW  HW  HW  OW  HW  HW  OW  HW  HW  OW  HW  HW  OW  HW  
HW  OW  HW  HW  OW  HW  HW  OW  HW  HW  OW  HW  HW  OW  HW  HW  OW  HW  HW  OW  
HW  HW  OW  HW  HW  OW  HW  HW  OW  HW  HW  OW  HW  HW  OW  HW  HW  OW  HW  HW  
OW  HW  HW  OW  HW  HW  OW  HW  HW  OW  HW  HW  OW  HW  HW  OW  HW  HW  OW  HW  
HW  OW  HW  HW  OW  HW  HW  OW  HW  HW  OW  HW  HW  OW  HW  HW  OW  HW  HW  OW  
HW  HW  OW  HW  HW  OW  HW  HW  OW  HW  HW  OW  HW  HW  OW  HW  HW  OW  HW  HW  
OW  HW  HW  OW  HW  HW  OW  HW  HW  OW  HW  HW  OW  HW  HW  OW  HW  HW  OW  HW  
HW  OW  HW  HW  OW  HW  HW  OW  HW  HW  OW  HW  HW  OW  HW  HW  OW  HW  HW  OW  
HW  HW  OW  HW  HW  OW  HW  HW  OW  HW  HW  OW  HW  HW  OW  HW  HW  OW  HW  HW  
OW  HW  HW  OW  HW  HW  OW  HW  HW  OW  HW  HW  OW  HW  HW  OW  HW  HW  OW  HW  
HW  OW  HW  HW  OW  HW  HW  OW  HW  HW  OW  HW  HW  OW  HW  HW  OW  HW  HW  OW  
HW  HW  OW  HW  HW  OW  HW  HW  OW  HW  HW  OW  HW  HW  OW  HW  HW  OW  HW  HW  
OW  HW  HW  OW  HW  HW  OW  HW  HW  OW  HW  HW  OW  HW  HW  OW  HW  HW  OW  HW  
HW  OW  HW  HW  OW  HW  HW  OW  HW  HW  OW  HW  HW  OW  HW  HW  OW  HW  HW  OW  
HW  HW  OW  HW  HW  OW  HW  HW  OW  HW  HW  OW  HW  HW  OW  HW  HW  OW  HW  HW  
OW  HW  HW  OW  HW  HW  OW  HW  HW  OW  HW  HW  OW  HW  HW  OW  HW  HW  OW  HW  
HW  OW  HW  HW  OW  HW  HW  OW  HW  HW  OW  HW  HW  OW  HW  HW  OW  HW  HW  OW  
HW  HW  OW  HW  HW  OW  HW  HW  OW  HW  HW  OW  HW  HW  OW  HW  HW  OW  HW  HW  
OW  HW  HW  OW  HW  HW  OW  HW  HW  OW  HW  HW  OW  HW  HW  OW  HW  HW  OW  HW  
HW  OW  HW  HW  OW  HW  HW  OW  HW  HW  OW  HW  HW  OW  HW  HW  OW  HW  HW  OW  
HW  HW  OW  HW  HW  OW  HW  HW  OW  HW  HW  OW  HW  HW  OW  HW  HW  OW  HW  HW  
OW  HW  HW  OW  HW  HW  OW  HW  HW  OW  HW  HW  OW  HW  HW  OW  HW  HW  OW  HW  
HW  OW  HW  HW  OW  HW  HW  OW  HW  HW  OW  HW  HW  OW  HW  HW  OW  HW  HW  OW  
HW  HW  OW  HW  HW  OW  HW  HW  OW  HW  HW  OW  HW  HW  OW  HW  HW  OW  HW  HW  
OW  HW  HW  OW  HW  HW  OW  HW  HW  OW  HW  HW  OW  HW  HW  OW  HW  HW  OW  HW  
HW  OW  HW  HW  OW  HW  HW  OW  HW  HW  OW  HW  HW  OW  HW  HW  OW  HW  HW  OW  
HW  HW  OW  HW  HW  OW  HW  HW  OW  HW  HW  OW  HW  HW  OW  HW  HW  OW  HW  HW  
OW  HW  HW  OW  HW  HW  OW  HW  HW  OW  HW  HW  OW  HW  HW  OW  HW  HW  OW  HW  
HW  OW  HW  HW  OW  HW  HW  OW  HW  HW  OW  HW  HW  OW  HW  HW  OW  HW  HW  OW  
HW  HW  OW  HW  HW  OW  HW  HW  OW  HW  HW  OW  HW  HW  OW  HW  HW  OW  HW  HW  
OW  HW  HW  OW  HW  HW  OW  HW  HW  OW  HW  HW  OW  HW  HW  OW  HW  HW  OW  HW  
HW  OW  HW  HW  OW  HW  HW  OW  HW  HW  OW  HW  HW  OW  HW  HW  OW  HW  HW  OW  
HW  HW  OW  HW  HW  OW  HW  HW  OW  HW  HW  OW  HW  HW  OW  HW  HW  OW  HW  HW  
OW  HW  HW  OW  HW  HW  OW  HW  HW  OW  HW  HW  OW  HW  HW  OW  HW  HW  OW  HW  
HW  OW  HW  HW  OW  HW  HW  OW  HW  HW  OW  HW  HW  OW  HW  HW  OW  HW  HW  OW  
HW  HW  OW  HW  HW  OW  HW  HW  OW  HW  HW  OW  HW  HW  OW  HW  HW  OW  HW  HW  
OW  HW  HW  OW  HW  HW  OW  HW  HW  OW  HW  HW  OW  HW  HW  OW  HW  HW  OW  HW  
HW  OW  HW  HW  OW  HW  HW  OW  HW  HW  OW  HW  HW  OW  HW  HW  OW  HW  HW  OW  
HW  HW  OW  HW  HW  OW  HW  HW  OW  HW  HW  OW  HW  HW  OW  HW  HW  OW  HW  HW  
OW  HW  HW  OW  HW  HW  OW  HW  HW  OW  HW  HW  OW  HW  HW  OW  HW  HW  OW  HW  
HW  OW  HW  HW  OW  HW  HW  OW  HW  HW  OW  HW  HW  OW  HW  HW  OW  HW  HW  OW  
HW  HW  OW  HW  HW  OW  HW  HW  OW  HW  HW  OW  HW  HW  OW  HW  HW  OW  HW  HW  
OW  HW  HW  OW  HW  HW  OW  HW  HW  OW  HW  HW  OW  HW  HW  OW  HW  HW  OW  HW  
HW  OW  HW  HW  OW  HW  HW  OW  HW  HW  OW  HW  HW  OW  HW  HW  OW  HW  HW  OW  
HW  HW  OW  HW  HW  OW  HW  HW  OW  HW  HW  OW  HW  HW  OW  HW  HW  OW  HW  HW  
OW  HW  HW  OW  HW  HW  OW  HW  HW  OW  HW  HW  OW  HW  HW  OW  HW  HW  OW  HW  
HW  OW  HW  HW  OW  HW  HW  OW  HW  HW  OW  HW  HW  OW  HW  HW  OW  HW  HW  OW  
HW  HW  OW  HW  HW  OW  HW  HW  OW  HW  HW  OW  HW  HW  OW  HW  HW  OW  HW  HW  
OW  HW  HW  OW  HW  HW  OW  HW  HW  OW  HW  HW  OW  HW  HW  OW  HW  HW  OW  HW  
HW  OW  HW  HW  OW  HW  HW  OW  HW  HW  OW  HW  HW  OW  HW  HW  OW  HW  HW  OW  
HW  HW  OW  HW  HW  OW  HW  HW  OW  HW  HW  OW  HW  HW  OW  HW  HW  OW  HW  HW  
OW  HW  HW  OW  HW  HW  OW  HW  HW  OW  HW  HW  OW  HW  HW  OW  HW  HW  OW  HW  
HW  OW  HW  HW  OW  HW  HW  OW  HW  HW  OW  HW  HW  OW  HW  HW  OW  HW  HW  OW  
HW  HW  OW  HW  HW  OW  HW  HW  OW  HW  HW  OW  HW  HW  OW  HW  HW  OW  HW  HW  
OW  HW  HW  OW  HW  HW  OW  HW  HW  OW  HW  HW  OW  HW  HW  OW  HW  HW  OW  HW  
HW  OW  HW  HW  OW  HW  HW  OW  HW  HW  OW  HW  HW  OW  HW  HW  OW  HW  HW  OW  
HW  HW  OW  HW  HW  OW  HW  HW  OW  HW  HW  OW  HW  HW  OW  HW  HW  OW  HW  HW  
OW  HW  HW  OW  HW  HW  OW  HW  HW  OW  HW  HW  OW  HW  HW  OW  HW  HW  OW  HW  
HW  OW  HW  HW  OW  HW  HW  OW  HW  HW  OW  HW  HW  OW  HW  HW  OW  HW  HW  OW  
HW  HW  OW  HW  HW  OW  HW  HW  OW  HW  HW  OW  HW  HW  OW  HW  HW  OW  HW  HW  
OW  HW  HW  OW  HW  HW  OW  HW  HW  OW  HW  HW  OW  HW  HW  OW  HW  HW  OW  HW  
HW  OW  HW  HW  OW  HW  HW  OW  HW  HW  OW  HW  HW  OW  HW  HW  OW  HW  HW  OW  
HW  HW  OW  HW  HW  OW  HW  HW  OW  HW  HW  OW  HW  HW  OW  HW  HW  OW  HW  HW  
OW  HW  HW  OW  HW  HW  OW  HW  HW  OW  HW  HW  OW  HW  HW  OW  HW  HW  OW  HW  
HW  OW  HW  HW  OW  HW  HW  OW  HW  HW  OW  HW  HW  OW  HW  HW  OW  HW  HW  OW  
HW  HW  OW  HW  HW  OW  HW  HW  OW  HW  HW  OW  HW  HW  OW  HW  HW  OW  HW  HW  
OW  HW  HW  OW  HW  HW  OW  HW  HW  OW  HW  HW  OW  HW  HW  OW  HW  HW  OW  HW  
HW  OW  HW  HW  OW  HW  HW  OW  HW  HW  OW  HW  HW  OW  HW  HW  OW  HW  HW  OW  
HW  HW  OW  HW  HW  OW  HW  HW  OW  HW  HW  OW  HW  HW  OW  HW  HW  OW  HW  HW  
OW  HW  HW  OW  HW  HW  OW  HW  HW  OW  HW  HW  OW  HW  HW  OW  HW  HW  OW  HW  
HW  OW  HW  HW  OW  HW  HW  OW  HW  HW  OW  HW  HW  OW  HW  HW  OW  HW  HW  OW  
HW  HW  OW  HW  HW  OW  HW  HW  OW  HW  HW  OW  HW  HW  OW  HW  HW  OW  HW  HW  
OW  HW  HW  OW  HW  HW  OW  HW  HW  OW  HW  HW  OW  HW  HW  OW  HW  HW  OW  HW  
HW  OW  HW  HW  OW  HW  HW  OW  HW  HW  OW  HW  HW  OW  HW  HW  OW  HW  HW  OW  
HW  HW  OW  HW  HW  OW  HW  HW  OW  HW  HW  OW  HW  HW  OW  HW  HW  OW  HW  HW  
OW  HW  HW  OW  HW  HW  OW  HW  HW  OW  HW  HW  OW  HW  HW  OW  HW  HW  OW  HW  
HW  OW  HW  HW  OW  HW  HW  OW  HW  HW  OW  HW  HW  OW  HW  HW  OW  HW  HW  OW  
HW  HW  OW  HW  HW  OW  HW  HW  OW  HW  HW  OW  HW  HW  OW  HW  HW  OW  HW  HW  
OW  HW  HW  OW  HW  HW  OW  HW  HW  OW  HW  HW  OW  HW  HW  OW  HW  HW  OW  HW  
HW  OW  HW  HW  OW  HW  HW  OW  HW  HW  OW  HW  HW  OW  HW  HW  OW  HW  HW  OW  
HW  HW  OW  HW  HW  OW  HW  HW  OW  HW  HW  OW  HW  HW  OW  HW  HW  OW  HW  HW  
OW  HW  HW  OW  HW  HW  OW  HW  HW  OW  HW  HW  OW  HW  HW  OW  HW  HW  OW  HW  
HW  OW  HW  HW  OW  HW  HW  OW  HW  HW  OW  HW  HW  OW  HW  HW  OW  HW  HW  OW  
HW  HW  OW  HW  HW  OW  HW  HW  OW  HW  HW  OW  HW  HW  OW  HW  HW  OW  HW  HW  
OW  HW  HW  OW  HW  HW  OW  HW  HW  OW  HW  HW  OW  HW  HW  OW  HW  HW  OW  HW  
HW  OW  HW  HW  OW  HW  HW  OW  HW  HW  OW  HW  HW  OW  HW  HW  OW  HW  HW  OW  
HW  HW  OW  HW  HW  OW  HW  HW  OW  HW  HW  OW  HW  HW  OW  HW  HW  OW  HW  HW  
OW  HW  HW  OW  HW  HW  OW  HW  HW  OW  HW  HW  OW  HW  HW  OW  HW  HW  OW  HW  
HW  OW  HW  HW  OW  HW  HW  OW  HW  HW  OW  HW  HW  OW  HW  HW  OW  HW  HW  OW  
HW  HW  OW  HW  HW  OW  HW  HW  OW  HW  HW  OW  HW  HW  OW  HW  HW  OW  HW  HW  
OW  HW  HW  OW  HW  HW  OW  HW  HW  OW  HW  HW  OW  HW  HW  OW  HW  HW  OW  HW  
HW  OW  HW  HW  OW  HW  HW  OW  HW  HW  OW  HW  HW  OW  HW  HW  OW  HW  HW  OW  
HW  HW  OW  HW  HW  OW  HW  HW  OW  HW  HW  OW  HW  HW  OW  HW  HW  OW  HW  HW  
OW  HW  HW  OW  HW  HW  OW  HW  HW  OW  HW  HW  OW  HW  HW  OW  HW  HW  OW  HW  
HW  OW  HW  HW  OW  HW  HW  OW  HW  HW  OW  HW  HW  OW  HW  HW  OW  HW  HW  OW  
HW  HW  OW  HW  HW  OW  HW  HW  OW  HW  HW  OW  HW  HW  OW  HW  HW  OW  HW  HW  
OW  HW  HW  OW  HW  HW  OW  HW  HW  OW  HW  HW  OW  HW  HW  OW  HW  HW  OW  HW  
HW  OW  HW  HW  OW  HW  HW  OW  HW  HW  OW  HW  HW  OW  HW  HW  OW  HW  HW  OW  
HW  HW  OW  HW  HW  OW  HW  HW  OW  HW  HW  OW  HW  HW  OW  HW  HW  OW  HW  HW  
OW  HW  HW  OW  HW  HW  OW  HW  HW  OW  HW  HW  OW  HW  HW  OW  HW  HW  OW  HW  
HW  OW  HW  HW  OW  HW  HW  OW  HW  HW  OW  HW  HW  OW  HW  HW  OW  HW  HW  OW  
HW  HW  OW  HW  HW  OW  HW  HW  OW  HW  HW  OW  HW  HW  OW  HW  HW  OW  HW  HW  
OW  HW  HW  OW  HW  HW  OW  HW  HW  OW  HW  HW  OW  HW  HW  OW  HW  HW  OW  HW  
HW  OW  HW  HW  OW  HW  HW  OW  HW  HW  OW  HW  HW  OW  HW  HW  OW  HW  HW  OW  
HW  HW  OW  HW  HW  OW  HW  HW  OW  HW  HW  OW  HW  HW  OW  HW  HW  OW  HW  HW  
OW  HW  HW  OW  HW  HW  OW  HW  HW  OW  HW  HW  OW  HW  HW  OW  HW  HW  OW  HW  
HW  OW  HW  HW  OW  HW  HW  OW  HW  HW  OW  HW  HW  OW  HW  HW  OW  HW  HW  OW  
HW  HW  OW  HW  HW  OW  HW  HW  OW  HW  HW  OW  HW  HW  OW  HW  HW  OW  HW  HW  
OW  HW  HW  OW  HW  HW  OW  HW  HW  OW  HW  HW  OW  HW  HW  OW  HW  HW  OW  HW  
HW  OW  HW  HW  OW  HW  HW  OW  HW  HW  OW  HW  HW  OW  HW  HW  OW  HW  HW  OW  
HW  HW  OW  HW  HW  OW  HW  HW  OW  HW  HW  OW  HW  HW  OW  HW  HW  OW  HW  HW  
OW  HW  HW  OW  HW  HW  OW  HW  HW  OW  HW  HW  OW  HW  HW  OW  HW  HW  OW  HW  
HW  OW  HW  HW  OW  HW  HW  OW  HW  HW  OW  HW  HW  OW  HW  HW  OW  HW  HW  OW  
HW  HW  OW  HW  HW  OW  HW  HW  OW  HW  HW  OW  HW  HW  OW  HW  HW  OW  HW  HW  
OW  HW  HW  OW  HW  HW  OW  HW  HW  OW  HW  HW  OW  HW  HW  OW  HW  HW  OW  HW  
HW  OW  HW  HW  OW  HW  HW  OW  HW  HW  OW  HW  HW  OW  HW  HW  OW  HW  HW  OW  
HW  HW  OW  HW  HW  OW  HW  HW  OW  HW  HW  OW  HW  HW  OW  HW  HW  OW  HW  HW  
OW  HW  HW  OW  HW  HW  OW  HW  HW  OW  HW  HW  OW  HW  HW  OW  HW  HW  OW  HW  
HW  OW  HW  HW  OW  HW  HW  OW  HW  HW  OW  HW  HW  OW  HW  HW  OW  HW  HW  OW  
HW  HW  OW  HW  HW  OW  HW  HW  OW  HW  HW  OW  HW  HW  OW  HW  HW  OW  HW  HW  
OW  HW  HW  OW  HW  HW  OW  HW  HW  OW  HW  HW  OW  HW  HW  OW  HW  HW  OW  HW  
HW  OW  HW  HW  OW  HW  HW  OW  HW  HW  OW  HW  HW  OW  HW  HW  OW  HW  HW  OW  
HW  HW  OW  HW  HW  OW  HW  HW  OW  HW  HW  OW  HW  HW  OW  HW  HW  OW  HW  HW  
OW  HW  HW  OW  HW  HW  OW  HW  HW  OW  HW  HW  OW  HW  HW  OW  HW  HW  OW  HW  
HW  OW  HW  HW  OW  HW  HW  OW  HW  HW  OW  HW  HW  OW  HW  HW  OW  HW  HW  OW  
HW  HW  OW  HW  HW  OW  HW  HW  OW  HW  HW  OW  HW  HW  OW  HW  HW  OW  HW  HW  
OW  HW  HW  OW  HW  HW  OW  HW  HW  OW  HW  HW  OW  HW  HW  OW  HW  HW  OW  HW  
HW  OW  HW  HW  OW  HW  HW  OW  HW  HW  OW  HW  HW  OW  HW  HW  OW  HW  HW  OW  
HW  HW  OW  HW  HW  OW  HW  HW  OW  HW  HW  OW  HW  HW  OW  HW  HW  OW  HW  HW  
OW  HW  HW  OW  HW  HW  OW  HW  HW  OW  HW  HW  OW  HW  HW  OW  HW  HW  OW  HW  
HW  OW  HW  HW  OW  HW  HW  OW  HW  HW  OW  HW  HW  OW  HW  HW  OW  HW  HW  OW  
HW  HW  OW  HW  HW  OW  HW  HW  OW  HW  HW  OW  HW  HW  OW  HW  HW  OW  HW  HW  
OW  HW  HW  OW  HW  HW  OW  HW  HW  OW  HW  HW  OW  HW  HW  OW  HW  HW  OW  HW  
HW  OW  HW  HW  OW  HW  HW  OW  HW  HW  OW  HW  HW  OW  HW  HW  OW  HW  HW  OW  
HW  HW  OW  HW  HW  OW  HW  HW  OW  HW  HW  OW  HW  HW  OW  HW  HW  OW  HW  HW  
OW  HW  HW  OW  HW  HW  OW  HW  HW  OW  HW  HW  OW  HW  HW  OW  HW  HW  OW  HW  
HW  OW  HW  HW  OW  HW  HW  OW  HW  HW  OW  HW  HW  OW  HW  HW  OW  HW  HW  OW  
HW  HW  OW  HW  HW  OW  HW  HW  OW  HW  HW  OW  HW  HW  OW  HW  HW  OW  HW  HW  
OW  HW  HW  OW  HW  HW  OW  HW  HW  OW  HW  HW  OW  HW  HW  OW  HW  HW  OW  HW  
HW  OW  HW  HW  OW  HW  HW  OW  HW  HW  OW  HW  HW  OW  HW  HW  OW  HW  HW  OW  
HW  HW  OW  HW  HW  OW  HW  HW  OW  HW  HW  OW  HW  HW  OW  HW  HW  OW  HW  HW  
OW  HW  HW  OW  HW  HW  OW  HW  HW  OW  HW  HW  OW  HW  HW  OW  HW  HW  OW  HW  
HW  OW  HW  HW  OW  HW  HW  OW  HW  HW  OW  HW  HW  OW  HW  HW  OW  HW  HW  OW  
HW  HW  OW  HW  HW  OW  HW  HW  OW  HW  HW  OW  HW  HW  OW  HW  HW  OW  HW  HW  
OW  HW  HW  OW  HW  HW  OW  HW  HW  OW  HW  HW  OW  HW  HW  OW  HW  HW  OW  HW  
HW  OW  HW  HW  OW  HW  HW  OW  HW  HW  OW  HW  HW  OW  HW  HW  OW  HW  HW  OW  
HW  HW  OW  HW  HW  OW  HW  HW  OW  HW  HW  OW  HW  HW  OW  HW  HW  OW  HW  HW  
OW  HW  HW  OW  HW  HW  OW  HW  HW  OW  HW  HW  OW  HW  HW  OW  HW  HW  OW  HW  
HW  OW  HW  HW  OW  HW  HW  OW  HW  HW  OW  HW  HW  OW  HW  HW  OW  HW  HW  OW  
HW  HW  OW  HW  HW  OW  HW  HW  OW  HW  HW  OW  HW  HW  OW  HW  HW  OW  HW  HW  
OW  HW  HW  OW  HW  HW  OW  HW  HW  OW  HW  HW  OW  HW  HW  OW  HW  HW  OW  HW  
HW  OW  HW  HW  OW  HW  HW  OW  HW  HW  OW  HW  HW  OW  HW  HW  OW  HW  HW  OW  
HW  HW  OW  HW  HW  OW  HW  HW  OW  HW  HW  OW  HW  HW  OW  HW  HW  OW  HW  HW  
OW  HW  HW  OW  HW  HW  OW  HW  HW  OW  HW  HW  OW  HW  HW  OW  HW  HW  OW  HW  
HW  OW  HW  HW  OW  HW  HW  OW  HW  HW  OW  HW  HW  OW  HW  HW  OW  HW  HW  OW  
HW  HW  OW  HW  HW  OW  HW  HW  OW  HW  HW  OW  HW  HW  OW  HW  HW  OW  HW  HW  
OW  HW  HW  OW  HW  HW  OW  HW  HW  OW  HW  HW  OW  HW  HW  OW  HW  HW  OW  HW  
HW  OW  HW  HW  OW  HW  HW  OW  HW  HW  OW  HW  HW  OW  HW  HW  OW  HW  HW  OW  
HW  HW  OW  HW  HW  OW  HW  HW  OW  HW  HW  OW  HW  HW  OW  HW  HW  OW  HW  HW  
OW  HW  HW  OW  HW  HW  OW  HW  HW  OW  HW  HW  OW  HW  HW  OW  HW  HW  OW  HW  
HW  OW  HW  HW  OW  HW  HW  OW  HW  HW  OW  HW  HW  OW  HW  HW  OW  HW  HW  OW  
HW  HW  OW  HW  HW  OW  HW  HW  OW  HW  HW  OW  HW  HW  OW  HW  HW  OW  HW  HW  
OW  HW  HW  OW  HW  HW  OW  HW  HW  OW  HW  HW  OW  HW  HW  OW  HW  HW  OW  HW  
HW  OW  HW  HW  OW  HW  HW  OW  HW  HW  OW  HW  HW  OW  HW  HW  OW  HW  HW  OW  
HW  HW  OW  HW  HW  OW  HW  HW  OW  HW  HW  OW  HW  HW  OW  HW  HW  OW  HW  HW  
OW  HW  HW  OW  HW  HW  OW  HW  HW  OW  HW  HW  OW  HW  HW  OW  HW  HW  OW  HW  
HW  OW  HW  HW  OW  HW  HW  OW  HW  HW  OW  HW  HW  OW  HW  HW  OW  HW  HW  OW  
HW  HW  OW  HW  HW  OW  HW  HW  OW  HW  HW  OW  HW  HW  OW  HW  HW  OW  HW  HW  
OW  HW  HW  OW  HW  HW  OW  HW  HW  OW  HW  HW  OW  HW  HW  OW  HW  HW  OW  HW  
HW  OW  HW  HW  OW  HW  HW  OW  HW  HW  OW  HW  HW  OW  HW  HW  OW  HW  HW  OW  
HW  HW  OW  HW  HW  OW  HW  HW  OW  HW  HW  OW  HW  HW  OW  HW  HW  OW  HW  HW  
OW  HW  HW  OW  HW  HW  OW  HW  HW  OW  HW  HW  OW  HW  HW  OW  HW  HW  OW  HW  
HW  OW  HW  HW  OW  HW  HW  OW  HW  HW  OW  HW  HW  OW  HW  HW  OW  HW  HW  OW  
HW  HW  OW  HW  HW  OW  HW  HW  OW  HW  HW  OW  HW  HW  OW  HW  HW  OW  HW  HW  
OW  HW  HW  OW  HW  HW  OW  HW  HW  OW  HW  HW  OW  HW  HW  OW  HW  HW  OW  HW  
HW  OW  HW  HW  OW  HW  HW  OW  HW  HW  OW  HW  HW  OW  HW  HW  OW  HW  HW  OW  
HW  HW  OW  HW  HW  OW  HW  HW  OW  HW  HW  OW  HW  HW  OW  HW  HW  OW  HW  HW  
OW  HW  HW  OW  HW  HW  OW  HW  HW  OW  HW  HW  OW  HW  HW  OW  HW  HW  OW  HW  
HW  OW  HW  HW  OW  HW  HW  OW  HW  HW  OW  HW  HW  OW  HW  HW  OW  HW  HW  OW  
HW  HW  OW  HW  HW  OW  HW  HW  OW  HW  HW  OW  HW  HW  OW  HW  HW  OW  HW  HW  
OW  HW  HW  OW  HW  HW  OW  HW  HW  OW  HW  HW  OW  HW  HW  OW  HW  HW  OW  HW  
HW  OW  HW  HW  OW  HW  HW  OW  HW  HW  OW  HW  HW  OW  HW  HW  OW  HW  HW  OW  
HW  HW  OW  HW  HW  OW  HW  HW  OW  HW  HW  OW  HW  HW  OW  HW  HW  OW  HW  HW  
OW  HW  HW  OW  HW  HW  OW  HW  HW  OW  HW  HW  OW  HW  HW  OW  HW  HW  OW  HW  
HW  OW  HW  HW  OW  HW  HW  OW  HW  HW  OW  HW  HW  OW  HW  HW  OW  HW  HW  OW  
HW  HW  OW  HW  HW  OW  HW  HW  OW  HW  HW  OW  HW  HW  OW  HW  HW  OW  HW  HW  
OW  HW  HW  OW  HW  HW  OW  HW  HW  OW  HW  HW  OW  HW  HW  OW  HW  HW  OW  HW  
HW  OW  HW  HW  OW  HW  HW  OW  HW  HW  OW  HW  HW  OW  HW  HW  OW  HW  HW  OW  
HW  HW  OW  HW  HW  OW  HW  HW  OW  HW  HW  OW  HW  HW  OW  HW  HW  OW  HW  HW  
OW  HW  HW  OW  HW  HW  OW  HW  HW  OW  HW  HW  OW  HW  HW  OW  HW  HW  OW  HW  
HW  OW  HW  HW  OW  HW  HW  OW  HW  HW  OW  HW  HW  OW  HW  HW  OW  HW  HW  OW  
HW  HW  OW  HW  HW  OW  HW  HW  OW  HW  HW  OW  HW  HW  OW  HW  HW  OW  HW  HW  
OW  HW  HW  OW  HW  HW  OW  HW  HW  OW  HW  HW  OW  HW  HW  OW  HW  HW  OW  HW  
HW  OW  HW  HW  OW  HW  HW  OW  HW  HW  OW  HW  HW  OW  HW  HW  OW  HW  HW  OW  
HW  HW  OW  HW  HW  OW  HW  HW  OW  HW  HW  OW  HW  HW  OW  HW  HW  OW  HW  HW  
OW  HW  HW  OW  HW  HW  OW  HW  HW  OW  HW  HW  OW  HW  HW  OW  HW  HW  OW  HW  
HW  OW  HW  HW  OW  HW  HW  OW  HW  HW  OW  HW  HW  OW  HW  HW  OW  HW  HW  OW  
HW  HW  OW  HW  HW  OW  HW  HW  OW  HW  HW  OW  HW  HW  OW  HW  HW  OW  HW  HW  
OW  HW  HW  OW  HW  HW  OW  HW  HW  OW  HW  HW  OW  HW  HW  OW  HW  HW  OW  HW  
HW  OW  HW  HW  OW  HW  HW  OW  HW  HW  OW  HW  HW  OW  HW  HW  OW  HW  HW  OW  
HW  HW  OW  HW  HW  OW  HW  HW  OW  HW  HW  OW  HW  HW  OW  HW  HW  OW  HW  HW  
OW  HW  HW  OW  HW  HW  OW  HW  HW  OW  HW  HW  OW  HW  HW  OW  HW  HW  OW  HW  
HW  OW  HW  HW  OW  HW  HW  OW  HW  HW  OW  HW  HW  OW  HW  HW  OW  HW  HW  OW  
HW  HW  OW  HW  HW  OW  HW  HW  OW  HW  HW  OW  HW  HW  OW  HW  HW  OW  HW  HW  
OW  HW  HW  OW  HW  HW  OW  HW  HW  OW  HW  HW  OW  HW  HW  OW  HW  HW  OW  HW  
HW  OW  HW  HW  OW  HW  HW  OW  HW  HW  OW  HW  HW  OW  HW  HW  OW  HW  HW  OW  
HW  HW  OW  HW  HW  OW  HW  HW  OW  HW  HW  OW  HW  HW  OW  HW  HW  OW  HW  HW  
OW  HW  HW  OW  HW  HW  OW  HW  HW  OW  HW  HW  OW  HW  HW  OW  HW  HW  OW  HW  
HW  OW  HW  HW  OW  HW  HW  OW  HW  HW  OW  HW  HW  OW  HW  HW  OW  HW  HW  OW  
HW  HW  OW  HW  HW  OW  HW  HW  OW  HW  HW  OW  HW  HW  OW  HW  HW  OW  HW  HW  
OW  HW  HW  OW  HW  HW  OW  HW  HW  OW  HW  HW  OW  HW  HW  OW  HW  HW  OW  HW  
HW  OW  HW  HW  OW  HW  HW  OW  HW  HW  OW  HW  HW  OW  HW  HW  OW  HW  HW  OW  
HW  HW  OW  HW  HW  OW  HW  HW  OW  HW  HW  OW  HW  HW  OW  HW  HW  OW  HW  HW  
OW  HW  HW  OW  HW  HW  OW  HW  HW  OW  HW  HW  OW  HW  HW  OW  HW  HW  OW  HW  
HW  OW  HW  HW  OW  HW  HW  OW  HW  HW  OW  HW  HW  OW  HW  HW  OW  HW  HW  OW  
HW  HW  OW  HW  HW  OW  HW  HW  OW  HW  HW  OW  HW  HW  OW  HW  HW  OW  HW  HW  
OW  HW  HW  OW  HW  HW  OW  HW  HW  OW  HW  HW  OW  HW  HW  OW  HW  HW  OW  HW  
HW  OW  HW  HW  OW  HW  HW  OW  HW  HW  OW  HW  HW  OW  HW  HW  OW  HW  HW  OW  
HW  HW  OW  HW  HW  OW  HW  HW  OW  HW  HW  OW  HW  HW  OW  HW  HW  OW  HW  HW  
OW  HW  HW  OW  HW  HW  OW  HW  HW  OW  HW  HW  OW  HW  HW  OW  HW  HW  OW  HW  
HW  OW  HW  HW  OW  HW  HW  OW  HW  HW  OW  HW  HW  OW  HW  HW  OW  HW  HW  OW  
HW  HW  OW  HW  HW  OW  HW  HW  OW  HW  HW  OW  HW  HW  OW  HW  HW  OW  HW  HW  
OW  HW  HW  OW  HW  HW  OW  HW  HW  OW  HW  HW  OW  HW  HW  OW  HW  HW  OW  HW  
HW  OW  HW  HW  OW  HW  HW  OW  HW  HW  OW  HW  HW  OW  HW  HW  OW  HW  HW  OW  
HW  HW  OW  HW  HW  OW  HW  HW  OW  HW  HW  OW  HW  HW  OW  HW  HW  OW  HW  HW  
OW  HW  HW  OW  HW  HW  OW  HW  HW  OW  HW  HW  OW  HW  HW  OW  HW  HW  OW  HW  
HW  OW  HW  HW  OW  HW  HW  OW  HW  HW  OW  HW  HW  OW  HW  HW  OW  HW  HW  OW  
HW  HW  OW  HW  HW  OW  HW  HW  OW  HW  HW  OW  HW  HW  OW  HW  HW  OW  HW  HW  
OW  HW  HW  OW  HW  HW  OW  HW  HW  OW  HW  HW  OW  HW  HW  OW  HW  HW  OW  HW  
HW  OW  HW  HW  OW  HW  HW  OW  HW  HW  OW  HW  HW  OW  HW  HW  OW  HW  HW  OW  
HW  HW  OW  HW  HW  OW  HW  HW  OW  HW  HW  OW  HW  HW  OW  HW  HW  OW  HW  HW  
OW  HW  HW  OW  HW  HW  OW  HW  HW  OW  HW  HW  OW  HW  HW  OW  HW  HW  OW  HW  
HW  OW  HW  HW  OW  HW  HW  OW  HW  HW  OW  HW  HW  OW  HW  HW  OW  HW  HW  OW  
HW  HW  OW  HW  HW  OW  HW  HW  OW  HW  HW  OW  HW  HW  OW  HW  HW  OW  HW  HW  
OW  HW  HW  OW  HW  HW  OW  HW  HW  OW  HW  HW  OW  HW  HW  OW  HW  HW  OW  HW  
HW  OW  HW  HW  OW  HW  HW  OW  HW  HW  OW  HW  HW  OW  HW  HW  OW  HW  HW  OW  
HW  HW  OW  HW  HW  OW  HW  HW  OW  HW  HW  OW  HW  HW  OW  HW  HW  OW  HW  HW  
OW  HW  HW  OW  HW  HW  OW  HW  HW  OW  HW  HW  OW  HW  HW  OW  HW  HW  OW  HW  
HW  OW  HW  HW  OW  HW  HW  OW  HW  HW  OW  HW  HW  OW  HW  HW  OW  HW  HW  OW  
HW  HW  OW  HW  HW  OW  HW  HW  OW  HW  HW  OW  HW  HW  OW  HW  HW  OW  HW  HW  
OW  HW  HW  OW  HW  HW  OW  HW  HW  OW  HW  HW  OW  HW  HW  OW  HW  HW  OW  HW  
HW  OW  HW  HW  OW  HW  HW  OW  HW  HW  OW  HW  HW  OW  HW  HW  OW  HW  HW  OW  
HW  HW  OW  HW  HW  OW  HW  HW  OW  HW  HW  OW  HW  HW  OW  HW  HW  OW  HW  HW  
OW  HW  HW  OW  HW  HW  OW  HW  HW  OW  HW  HW  OW  HW  HW  OW  HW  HW  OW  HW  
HW  OW  HW  HW  OW  HW  HW  OW  HW  HW  OW  HW  HW  OW  HW  HW  OW  HW  HW  OW  
HW  HW  OW  HW  HW  OW  HW  HW  OW  HW  HW  OW  HW  HW  OW  HW  HW  OW  HW  HW  
OW  HW  HW  OW  HW  HW  OW  HW  HW  OW  HW  HW  OW  HW  HW  OW  HW  HW  OW  HW  
HW  OW  HW  HW  OW  HW  HW  OW  HW  HW  OW  HW  HW  OW  HW  HW  OW  HW  HW  OW  
HW  HW  OW  HW  HW  OW  HW  HW  OW  HW  HW  OW  HW  HW  OW  HW  HW  OW  HW  HW  
OW  HW  HW  OW  HW  HW  OW  HW  HW  OW  HW  HW  OW  HW  HW  OW  HW  HW  OW  HW  
HW  OW  HW  HW  OW  HW  HW  OW  HW  HW  OW  HW  HW  OW  HW  HW  OW  HW  HW  OW  
HW  HW  OW  HW  HW  OW  HW  HW  OW  HW  HW  OW  HW  HW  OW  HW  HW  OW  HW  HW  
OW  HW  HW  OW  HW  HW  OW  HW  HW  OW  HW  HW  OW  HW  HW  OW  HW  HW  OW  HW  
HW  OW  HW  HW  OW  HW  HW  OW  HW  HW  OW  HW  HW  OW  HW  HW  OW  HW  HW  OW  
HW  HW  OW  HW  HW  OW  HW  HW  OW  HW  HW  OW  HW  HW  OW  HW  HW  OW  HW  HW  
OW  HW  HW  OW  HW  HW  OW  HW  HW  OW  HW  HW  OW  HW  HW  OW  HW  HW  OW  HW  
HW  OW  HW  HW  OW  HW  HW  OW  HW  HW  OW  HW  HW  OW  HW  HW  OW  HW  HW  OW  
HW  HW  OW  HW  HW  OW  HW  HW  OW  HW  HW  OW  HW  HW  OW  HW  HW  OW  HW  HW  
OW  HW  HW  OW  HW  HW  OW  HW  HW  OW  HW  HW  OW  HW  HW  OW  HW  HW  OW  HW  
HW  OW  HW  HW  OW  HW  HW  OW  HW  HW  OW  HW  HW  OW  HW  HW  OW  HW  HW  OW  
HW  HW  OW  HW  HW  OW  HW  HW  OW  HW  HW  OW  HW  HW  OW  HW  HW  OW  HW  HW  
OW  HW  HW  OW  HW  HW  OW  HW  HW  OW  HW  HW  OW  HW  HW  OW  HW  HW  OW  HW  
HW  OW  HW  HW  OW  HW  HW  OW  HW  HW  OW  HW  HW  OW  HW  HW  OW  HW  HW  OW  
HW  HW  OW  HW  HW  OW  HW  HW  OW  HW  HW  OW  HW  HW  OW  HW  HW  OW  HW  HW  
OW  HW  HW  OW  HW  HW  OW  HW  HW  OW  HW  HW  OW  HW  HW  OW  HW  HW  OW  HW  
HW  OW  HW  HW  OW  HW  HW  OW  HW  HW  OW  HW  HW  OW  HW  HW  OW  HW  HW  OW  
HW  HW  OW  HW  HW  OW  HW  HW  OW  HW  HW  OW  HW  HW  OW  HW  HW  OW  HW  HW  
OW  HW  HW  OW  HW  HW  OW  HW  HW  OW  HW  HW  OW  HW  HW  OW  HW  HW  OW  HW  
HW  OW  HW  HW  OW  HW  HW  OW  HW  HW  OW  HW  HW  OW  HW  HW  OW  HW  HW  OW  
HW  HW  OW  HW  HW  OW  HW  HW  OW  HW  HW  OW  HW  HW  OW  HW  HW  OW  HW  HW  
OW  HW  HW  OW  HW  HW  OW  HW  HW  OW  HW  HW  OW  HW  HW  OW  HW  HW  OW  HW  
HW  OW  HW  HW  OW  HW  HW  OW  HW  HW  OW  HW  HW  OW  HW  HW  OW  HW  HW  OW  
HW  HW  OW  HW  HW  OW  HW  HW  OW  HW  HW  OW  HW  HW  OW  HW  HW  OW  HW  HW  
OW  HW  HW  OW  HW  HW  OW  HW  HW  OW  HW  HW  OW  HW  HW  OW  HW  HW  OW  HW  
HW  OW  HW  HW  OW  HW  HW  OW  HW  HW  OW  HW  HW  OW  HW  HW  OW  HW  HW  OW  
HW  HW  OW  HW  HW  OW  HW  HW  OW  HW  HW  OW  HW  HW  OW  HW  HW  OW  HW  HW  
OW  HW  HW  OW  HW  HW  OW  HW  HW  OW  HW  HW  OW  HW  HW  OW  HW  HW  OW  HW  
HW  OW  HW  HW  OW  HW  HW  OW  HW  HW  OW  HW  HW  OW  HW  HW  OW  HW  HW  OW  
HW  HW  OW  HW  HW  OW  HW  HW  OW  HW  HW  OW  HW  HW  OW  HW  HW  OW  HW  HW  
OW  HW  HW  OW  HW  HW  OW  HW  HW  OW  HW  HW  OW  HW  HW  OW  HW  HW  OW  HW  
HW  OW  HW  HW  OW  HW  HW  OW  HW  HW  OW  HW  HW  OW  HW  HW  OW  HW  HW  OW  
HW  HW  OW  HW  HW  OW  HW  HW  OW  HW  HW  OW  HW  HW  OW  HW  HW  OW  HW  HW  
OW  HW  HW  OW  HW  HW  OW  HW  HW  OW  HW  HW  OW  HW  HW  OW  HW  HW  OW  HW  
HW  OW  HW  HW  OW  HW  HW  OW  HW  HW  OW  HW  HW  OW  HW  HW  OW  HW  HW  OW  
HW  HW  OW  HW  HW  OW  HW  HW  OW  HW  HW  OW  HW  HW  OW  HW  HW  OW  HW  HW  
OW  HW  HW  OW  HW  HW  OW  HW  HW  OW  HW  HW  OW  HW  HW  OW  HW  HW  OW  HW  
HW  OW  HW  HW  OW  HW  HW  OW  HW  HW  OW  HW  HW  OW  HW  HW  OW  HW  HW  OW  
HW  HW  OW  HW  HW  OW  HW  HW  OW  HW  HW  OW  HW  HW  OW  HW  HW  OW  HW  HW  
OW  HW  HW  OW  HW  HW  OW  HW  HW  OW  HW  HW  OW  HW  HW  OW  HW  HW  OW  HW  
HW  OW  HW  HW  OW  HW  HW  OW  HW  HW  OW  HW  HW  OW  HW  HW  OW  HW  HW  OW  
HW  HW  OW  HW  HW  OW  HW  HW  OW  HW  HW  OW  HW  HW  OW  HW  HW  OW  HW  HW  
OW  HW  HW  OW  HW  HW  OW  HW  HW  OW  HW  HW  OW  HW  HW  OW  HW  HW  OW  HW  
HW  OW  HW  HW  OW  HW  HW  OW  HW  HW  OW  HW  HW  OW  HW  HW  OW  HW  HW  OW  
HW  HW  OW  HW  HW  OW  HW  HW  OW  HW  HW  OW  HW  HW  OW  HW  HW  OW  HW  HW  
OW  HW  HW  OW  HW  HW  OW  HW  HW  OW  HW  HW  OW  HW  HW  OW  HW  HW  OW  HW  
HW  OW  HW  HW  OW  HW  HW  OW  HW  HW  OW  HW  HW  OW  HW  HW  OW  HW  HW  OW  
HW  HW  OW  HW  HW  OW  HW  HW  OW  HW  HW  OW  HW  HW  OW  HW  HW  OW  HW  HW  
OW  HW  HW  OW  HW  HW  OW  HW  HW  OW  HW  HW  OW  HW  HW  OW  HW  HW  OW  HW  
HW  OW  HW  HW  OW  HW  HW  OW  HW  HW  OW  HW  HW  OW  HW  HW  OW  HW  HW  OW  
HW  HW  OW  HW  HW  OW  HW  HW  OW  HW  HW  OW  HW  HW  OW  HW  HW  OW  HW  HW  
OW  HW  HW  OW  HW  HW  OW  HW  HW  OW  HW  HW  OW  HW  HW  OW  HW  HW  OW  HW  
HW  OW  HW  HW  OW  HW  HW  OW  HW  HW  OW  HW  HW  OW  HW  HW  OW  HW  HW  OW  
HW  HW  OW  HW  HW  OW  HW  HW  OW  HW  HW  OW  HW  HW  OW  HW  HW  OW  HW  HW  
OW  HW  HW  OW  HW  HW  OW  HW  HW  OW  HW  HW  OW  HW  HW  OW  HW  HW  OW  HW  
HW  OW  HW  HW  OW  HW  HW  OW  HW  HW  OW  HW  HW  OW  HW  HW  OW  HW  HW  OW  
HW  HW  OW  HW  HW  OW  HW  HW  OW  HW  HW  OW  HW  HW  OW  HW  HW  OW  HW  HW  
OW  HW  HW  OW  HW  HW  OW  HW  HW  OW  HW  HW  OW  HW  HW  OW  HW  HW  OW  HW  
HW  OW  HW  HW  OW  HW  HW  OW  HW  HW  OW  HW  HW  OW  HW  HW  OW  HW  HW  OW  
HW  HW  OW  HW  HW  OW  HW  HW  OW  HW  HW  OW  HW  HW  OW  HW  HW  OW  HW  HW  
OW  HW  HW  OW  HW  HW  OW  HW  HW  OW  HW  HW  OW  HW  HW  OW  HW  HW  OW  HW  
HW  OW  HW  HW  OW  HW  HW  OW  HW  HW  OW  HW  HW  OW  HW  HW  OW  HW  HW  OW  
HW  HW  OW  HW  HW  OW  HW  HW  OW  HW  HW  OW  HW  HW  OW  HW  HW  OW  HW  HW  
OW  HW  HW  OW  HW  HW  OW  HW  HW  OW  HW  HW  OW  HW  HW  OW  HW  HW  OW  HW  
HW  OW  HW  HW  OW  HW  HW  OW  HW  HW  OW  HW  HW  OW  HW  HW  OW  HW  HW  OW  
HW  HW  OW  HW  HW  OW  HW  HW  OW  HW  HW  OW  HW  HW  OW  HW  HW  OW  HW  HW  
OW  HW  HW  OW  HW  HW  OW  HW  HW  OW  HW  HW  OW  HW  HW  OW  HW  HW  OW  HW  
HW  OW  HW  HW  OW  HW  HW  OW  HW  HW  OW  HW  HW  OW  HW  HW  OW  HW  HW  OW  
HW  HW  OW  HW  HW  OW  HW  HW  OW  HW  HW  OW  HW  HW  OW  HW  HW  OW  HW  HW  
OW  HW  HW  OW  HW  HW  OW  HW  HW  OW  HW  HW  OW  HW  HW  OW  HW  HW  OW  HW  
HW  OW  HW  HW  OW  HW  HW  OW  HW  HW  OW  HW  HW  OW  HW  HW  OW  HW  HW  OW  
HW  HW  OW  HW  HW  OW  HW  HW  OW  HW  HW  OW  HW  HW  OW  HW  HW  OW  HW  HW  
OW  HW  HW  OW  HW  HW  OW  HW  HW  OW  HW  HW  OW  HW  HW  OW  HW  HW  OW  HW  
HW  OW  HW  HW  OW  HW  HW  OW  HW  HW  OW  HW  HW  OW  HW  HW  OW  HW  HW  OW  
HW  HW  OW  HW  HW  OW  HW  HW  OW  HW  HW  OW  HW  HW  OW  HW  HW  OW  HW  HW  
OW  HW  HW  OW  HW  HW  OW  HW  HW  OW  HW  HW  OW  HW  HW  OW  HW  HW  OW  HW  
HW  OW  HW  HW  OW  HW  HW  OW  HW  HW  OW  HW  HW  OW  HW  HW  OW  HW  HW  OW  
HW  HW  OW  HW  HW  OW  HW  HW  OW  HW  HW  OW  HW  HW  OW  HW  HW  OW  HW  HW  
OW  HW  HW  OW  HW  HW  OW  HW  HW  OW  HW  HW  OW  HW  HW  OW  HW  HW  OW  HW  
HW  OW  HW  HW  OW  HW  HW  OW  HW  HW  OW  HW  HW  OW  HW  HW  OW  HW  HW  OW  
HW  HW  OW  HW  HW  OW  HW  HW  OW  HW  HW  OW  HW  HW  OW  HW  HW  OW  HW  HW  
OW  HW  HW  OW  HW  HW  OW  HW  HW  OW  HW  HW  OW  HW  HW  OW  HW  HW  OW  HW  
HW  OW  HW  HW  OW  HW  HW  OW  HW  HW  OW  HW  HW  OW  HW  HW  OW  HW  HW  OW  
HW  HW  OW  HW  HW  OW  HW  HW  OW  HW  HW  OW  HW  HW  OW  HW  HW  OW  HW  HW  
OW  HW  HW  OW  HW  HW  OW  HW  HW  OW  HW  HW  OW  HW  HW  OW  HW  HW  OW  HW  
HW  OW  HW  HW  OW  HW  HW  OW  HW  HW  OW  HW  HW  OW  HW  HW  OW  HW  HW  OW  
HW  HW  OW  HW  HW  OW  HW  HW  OW  HW  HW  OW  HW  HW  OW  HW  HW  OW  HW  HW  
OW  HW  HW  OW  HW  HW  OW  HW  HW  OW  HW  HW  OW  HW  HW  OW  HW  HW  OW  HW  
HW  OW  HW  HW  OW  HW  HW  OW  HW  HW  OW  HW  HW  OW  HW  HW  OW  HW  HW  OW  
HW  HW  OW  HW  HW  OW  HW  HW  OW  HW  HW  OW  HW  HW  OW  HW  HW  OW  HW  HW  
OW  HW  HW  OW  HW  HW  OW  HW  HW  OW  HW  HW  OW  HW  HW  OW  HW  HW  OW  HW  
HW  OW  HW  HW  OW  HW  HW  OW  HW  HW  OW  HW  HW  OW  HW  HW  OW  HW  HW  OW  
HW  HW  OW  HW  HW  OW  HW  HW  OW  HW  HW  OW  HW  HW  OW  HW  HW  OW  HW  HW  
OW  HW  HW  OW  HW  HW  OW  HW  HW  OW  HW  HW  OW  HW  HW  OW  HW  HW  OW  HW  
HW  OW  HW  HW  OW  HW  HW  OW  HW  HW  OW  HW  HW  OW  HW  HW  OW  HW  HW  OW  
HW  HW  OW  HW  HW  OW  HW  HW  OW  HW  HW  OW  HW  HW  OW  HW  HW  OW  HW  HW  
OW  HW  HW  OW  HW  HW  OW  HW  HW  OW  HW  HW  OW  HW  HW  OW  HW  HW  OW  HW  
HW  OW  HW  HW  OW  HW  HW  OW  HW  HW  OW  HW  HW  OW  HW  HW  OW  HW  HW  OW  
HW  HW  OW  HW  HW  OW  HW  HW  OW  HW  HW  OW  HW  HW  OW  HW  HW  OW  HW  HW  
OW  HW  HW  OW  HW  HW  OW  HW  HW  OW  HW  HW  OW  HW  HW  OW  HW  HW  OW  HW  
HW  OW  HW  HW  OW  HW  HW  OW  HW  HW  OW  HW  HW  OW  HW  HW  OW  HW  HW  OW  
HW  HW  OW  HW  HW  OW  HW  HW  OW  HW  HW  OW  HW  HW  OW  HW  HW  OW  HW  HW  
OW  HW  HW  OW  HW  HW  OW  HW  HW  OW  HW  HW  OW  HW  HW  OW  HW  HW  OW  HW  
HW  OW  HW  HW  OW  HW  HW  OW  HW  HW  OW  HW  HW  OW  HW  HW  OW  HW  HW  OW  
HW  HW  OW  HW  HW  OW  HW  HW  OW  HW  HW  OW  HW  HW  OW  HW  HW  OW  HW  HW  
OW  HW  HW  OW  HW  HW  OW  HW  HW  OW  HW  HW  OW  HW  HW  OW  HW  HW  OW  HW  
HW  OW  HW  HW  OW  HW  HW  OW  HW  HW  OW  HW  HW  OW  HW  HW  OW  HW  HW  OW  
HW  HW  OW  HW  HW  OW  HW  HW  OW  HW  HW  OW  HW  HW  OW  HW  HW  OW  HW  HW  
OW  HW  HW  OW  HW  HW  OW  HW  HW  OW  HW  HW  OW  HW  HW  OW  HW  HW  OW  HW  
HW  OW  HW  HW  OW  HW  HW  OW  HW  HW  OW  HW  HW  OW  HW  HW  OW  HW  HW  OW  
HW  HW  OW  HW  HW  OW  HW  HW  OW  HW  HW  OW  HW  HW  OW  HW  HW  OW  HW  HW  
OW  HW  HW  OW  HW  HW  OW  HW  HW  OW  HW  HW  OW  HW  HW  OW  HW  HW  OW  HW  
HW  OW  HW  HW  OW  HW  HW  OW  HW  HW  OW  HW  HW  OW  HW  HW  OW  HW  HW  OW  
HW  HW  OW  HW  HW  OW  HW  HW  OW  HW  HW  OW  HW  HW  OW  HW  HW  OW  HW  HW  
OW  HW  HW  OW  HW  HW  OW  HW  HW  OW  HW  HW  OW  HW  HW  OW  HW  HW  OW  HW  
HW  OW  HW  HW  OW  HW  HW  OW  HW  HW  OW  HW  HW  OW  HW  HW  OW  HW  HW  OW  
HW  HW  OW  HW  HW  OW  HW  HW  OW  HW  HW  OW  HW  HW  OW  HW  HW  OW  HW  HW  
OW  HW  HW  OW  HW  HW  OW  HW  HW  OW  HW  HW  OW  HW  HW  OW  HW  HW  OW  HW  
HW  OW  HW  HW  OW  HW  HW  OW  HW  HW  OW  HW  HW  OW  HW  HW  OW  HW  HW  OW  
HW  HW  OW  HW  HW  OW  HW  HW  OW  HW  HW  OW  HW  HW  OW  HW  HW  OW  HW  HW  
OW  HW  HW  OW  HW  HW  OW  HW  HW  OW  HW  HW  OW  HW  HW  OW  HW  HW  OW  HW  
HW  OW  HW  HW  OW  HW  HW  OW  HW  HW  OW  HW  HW  OW  HW  HW  OW  HW  HW  OW  
HW  HW  OW  HW  HW  OW  HW  HW  OW  HW  HW  OW  HW  HW  OW  HW  HW  OW  HW  HW  
OW  HW  HW  OW  HW  HW  OW  HW  HW  OW  HW  HW  OW  HW  HW  OW  HW  HW  OW  HW  
HW  OW  HW  HW  OW  HW  HW  OW  HW  HW  OW  HW  HW  OW  HW  HW  OW  HW  HW  OW  
HW  HW  OW  HW  HW  OW  HW  HW  OW  HW  HW  OW  HW  HW  OW  HW  HW  OW  HW  HW  
OW  HW  HW  OW  HW  HW  OW  HW  HW  OW  HW  HW  OW  HW  HW  OW  HW  HW  OW  HW  
HW  OW  HW  HW  OW  HW  HW  OW  HW  HW  OW  HW  HW  OW  HW  HW  OW  HW  HW  OW  
HW  HW  OW  HW  HW  OW  HW  HW  OW  HW  HW  OW  HW  HW  OW  HW  HW  OW  HW  HW  
OW  HW  HW  OW  HW  HW  OW  HW  HW  OW  HW  HW  OW  HW  HW  OW  HW  HW  OW  HW  
HW  OW  HW  HW  OW  HW  HW  OW  HW  HW  OW  HW  HW  OW  HW  HW  OW  HW  HW  OW  
HW  HW  OW  HW  HW  OW  HW  HW  OW  HW  HW  OW  HW  HW  OW  HW  HW  OW  HW  HW  
OW  HW  HW  OW  HW  HW  OW  HW  HW  OW  HW  HW  OW  HW  HW  OW  HW  HW  OW  HW  
HW  OW  HW  HW  OW  HW  HW  OW  HW  HW  OW  HW  HW  OW  HW  HW  OW  HW  HW  OW  
HW  HW  OW  HW  HW  OW  HW  HW  OW  HW  HW  OW  HW  HW  OW  HW  HW  OW  HW  HW  
OW  HW  HW  OW  HW  HW  OW  HW  HW  OW  HW  HW  OW  HW  HW  OW  HW  HW  OW  HW  
HW  OW  HW  HW  OW  HW  HW  OW  HW  HW  OW  HW  HW  OW  HW  HW  OW  HW  HW  OW  
HW  HW  OW  HW  HW  OW  HW  HW  OW  HW  HW  OW  HW  HW  OW  HW  HW  OW  HW  HW  
OW  HW  HW  OW  HW  HW  OW  HW  HW  OW  HW  HW  OW  HW  HW  OW  HW  HW  OW  HW  
HW  OW  HW  HW  OW  HW  HW  OW  HW  HW  OW  HW  HW  OW  HW  HW  OW  HW  HW  OW  
HW  HW  OW  HW  HW  OW  HW  HW  OW  HW  HW  OW  HW  HW  OW  HW  HW  OW  HW  HW  
OW  HW  HW  OW  HW  HW  OW  HW  HW  OW  HW  HW  OW  HW  HW  OW  HW  HW  OW  HW  
HW  OW  HW  HW  OW  HW  HW  OW  HW  HW  OW  HW  HW  OW  HW  HW  OW  HW  HW  OW  
HW  HW  OW  HW  HW  OW  HW  HW  OW  HW  HW  OW  HW  HW  OW  HW  HW  OW  HW  HW  
OW  HW  HW  OW  HW  HW  OW  HW  HW  OW  HW  HW  OW  HW  HW  OW  HW  HW  OW  HW  
HW  OW  HW  HW  OW  HW  HW  OW  HW  HW  OW  HW  HW  OW  HW  HW  OW  HW  HW  OW  
HW  HW  OW  HW  HW  OW  HW  HW  OW  HW  HW  OW  HW  HW  OW  HW  HW  OW  HW  HW  
OW  HW  HW  OW  HW  HW  OW  HW  HW  OW  HW  HW  OW  HW  HW  OW  HW  HW  OW  HW  
HW  OW  HW  HW  OW  HW  HW  OW  HW  HW  OW  HW  HW  OW  HW  HW  OW  HW  HW  OW  
HW  HW  OW  HW  HW  OW  HW  HW  OW  HW  HW  OW  HW  HW  OW  HW  HW  OW  HW  HW  
OW  HW  HW  OW  HW  HW  OW  HW  HW  OW  HW  HW  OW  HW  HW  OW  HW  HW  OW  HW  
HW  OW  HW  HW  OW  HW  HW  OW  HW  HW  OW  HW  HW  OW  HW  HW  OW  HW  HW  OW  
HW  HW  OW  HW  HW  OW  HW  HW  OW  HW  HW  OW  HW  HW  OW  HW  HW  OW  HW  HW  
OW  HW  HW  OW  HW  HW  OW  HW  HW  OW  HW  HW  OW  HW  HW  OW  HW  HW  OW  HW  
HW  OW  HW  HW  OW  HW  HW  OW  HW  HW  OW  HW  HW  OW  HW  HW  OW  HW  HW  OW  
HW  HW  OW  HW  HW  OW  HW  HW  OW  HW  HW  OW  HW  HW  OW  HW  HW  OW  HW  HW  
OW  HW  HW  OW  HW  HW  OW  HW  HW  OW  HW  HW  OW  HW  HW  OW  HW  HW  OW  HW  
HW  OW  HW  HW  OW  HW  HW  OW  HW  HW  OW  HW  HW  OW  HW  HW  OW  HW  HW  OW  
HW  HW  OW  HW  HW  OW  HW  HW  OW  HW  HW  OW  HW  HW  OW  HW  HW  OW  HW  HW  
OW  HW  HW  OW  HW  HW  OW  HW  HW  OW  HW  HW  OW  HW  HW  OW  HW  HW  OW  HW  
HW  OW  HW  HW  OW  HW  HW  OW  HW  HW  OW  HW  HW  OW  HW  HW  OW  HW  HW  OW  
HW  HW  OW  HW  HW  OW  HW  HW  OW  HW  HW  OW  HW  HW  OW  HW  HW  OW  HW  HW  
OW  HW  HW  OW  HW  HW  OW  HW  HW  OW  HW  HW  OW  HW  HW  OW  HW  HW  OW  HW  
HW  OW  HW  HW  OW  HW  HW  OW  HW  HW  OW  HW  HW  OW  HW  HW  OW  HW  HW  OW  
HW  HW  OW  HW  HW  OW  HW  HW  OW  HW  HW  OW  HW  HW  OW  HW  HW  OW  HW  HW  
OW  HW  HW  OW  HW  HW  OW  HW  HW  OW  HW  HW  OW  HW  HW  OW  HW  HW  OW  HW  
HW  OW  HW  HW  OW  HW  HW  OW  HW  HW  OW  HW  HW  OW  HW  HW  OW  HW  HW  OW  
HW  HW  OW  HW  HW  OW  HW  HW  OW  HW  HW  OW  HW  HW  OW  HW  HW  OW  HW  HW  
OW  HW  HW  OW  HW  HW  OW  HW  HW  OW  HW  HW  OW  HW  HW  OW  HW  HW  OW  HW  
HW  OW  HW  HW  OW  HW  HW  OW  HW  HW  OW  HW  HW  OW  HW  HW  OW  HW  HW  OW  
HW  HW  OW  HW  HW  OW  HW  HW  OW  HW  HW  OW  HW  HW  OW  HW  HW  OW  HW  HW  
OW  HW  HW  OW  HW  HW  OW  HW  HW  OW  HW  HW  OW  HW  HW  OW  HW  HW  OW  HW  
HW  OW  HW  HW  OW  HW  HW  OW  HW  HW  OW  HW  HW  OW  HW  HW  OW  HW  HW  OW  
HW  HW  OW  HW  HW  OW  HW  HW  OW  HW  HW  OW  HW  HW  OW  HW  HW  OW  HW  HW  
OW  HW  HW  OW  HW  HW  OW  HW  HW  OW  HW  HW  OW  HW  HW  OW  HW  HW  OW  HW  
HW  OW  HW  HW  OW  HW  HW  OW  HW  HW  OW  HW  HW  OW  HW  HW  OW  HW  HW  OW  
HW  HW  OW  HW  HW  OW  HW  HW  OW  HW  HW  OW  HW  HW  OW  HW  HW  OW  HW  HW  
OW  HW  HW  OW  HW  HW  OW  HW  HW  OW  HW  HW  OW  HW  HW  OW  HW  HW  OW  HW  
HW  OW  HW  HW  OW  HW  HW  OW  HW  HW  OW  HW  HW  OW  HW  HW  OW  HW  HW  OW  
HW  HW  OW  HW  HW  OW  HW  HW  OW  HW  HW  OW  HW  HW  OW  HW  HW  OW  HW  HW  
OW  HW  HW  OW  HW  HW  OW  HW  HW  OW  HW  HW  OW  HW  HW  OW  HW  HW  OW  HW  
HW  OW  HW  HW  OW  HW  HW  OW  HW  HW  OW  HW  HW  OW  HW  HW  OW  HW  HW  OW  
HW  HW  OW  HW  HW  OW  HW  HW  OW  HW  HW  OW  HW  HW  OW  HW  HW  OW  HW  HW  
OW  HW  HW  OW  HW  HW  OW  HW  HW  OW  HW  HW  OW  HW  HW  OW  HW  HW  OW  HW  
HW  OW  HW  HW  OW  HW  HW  OW  HW  HW  OW  HW  HW  OW  HW  HW  OW  HW  HW  OW  
HW  HW  OW  HW  HW  OW  HW  HW  OW  HW  HW  OW  HW  HW  OW  HW  HW  OW  HW  HW  
OW  HW  HW  OW  HW  HW  OW  HW  HW  OW  HW  HW  OW  HW  HW  OW  HW  HW  OW  HW  
HW  OW  HW  HW  OW  HW  HW  OW  HW  HW  OW  HW  HW  OW  HW  HW  OW  HW  HW  OW  
HW  HW  OW  HW  HW  OW  HW  HW  OW  HW  HW  OW  HW  HW  OW  HW  HW  OW  HW  HW  
OW  HW  HW  OW  HW  HW  OW  HW  HW  OW  HW  HW  OW  HW  HW  OW  HW  HW  OW  HW  
HW  OW  HW  HW  OW  HW  HW  OW  HW  HW  OW  HW  HW  OW  HW  HW  OW  HW  HW  OW  
HW  HW  OW  HW  HW  OW  HW  HW  OW  HW  HW  OW  HW  HW  OW  HW  HW  OW  HW  HW  
OW  HW  HW  OW  HW  HW  OW  HW  HW  OW  HW  HW  OW  HW  HW  OW  HW  HW  OW  HW  
HW  OW  HW  HW  OW  HW  HW  OW  HW  HW  OW  HW  HW  OW  HW  HW  OW  HW  HW  OW  
HW  HW  OW  HW  HW  OW  HW  HW  OW  HW  HW  OW  HW  HW  OW  HW  HW  OW  HW  HW  
OW  HW  HW  OW  HW  HW  OW  HW  HW  OW  HW  HW  OW  HW  HW  OW  HW  HW  OW  HW  
HW  OW  HW  HW  OW  HW  HW  OW  HW  HW  OW  HW  HW  OW  HW  HW  OW  HW  HW  OW  
HW  HW  OW  HW  HW  OW  HW  HW  OW  HW  HW  OW  HW  HW  OW  HW  HW  OW  HW  HW  
OW  HW  HW  OW  HW  HW  OW  HW  HW  OW  HW  HW  OW  HW  HW  OW  HW  HW  OW  HW  
HW  OW  HW  HW  OW  HW  HW  OW  HW  HW  OW  HW  HW  OW  HW  HW  OW  HW  HW  OW  
HW  HW  OW  HW  HW  OW  HW  HW  OW  HW  HW  OW  HW  HW  OW  HW  HW  OW  HW  HW  
OW  HW  HW  OW  HW  HW  OW  HW  HW  OW  HW  HW  OW  HW  HW  OW  HW  HW  OW  HW  
HW  OW  HW  HW  OW  HW  HW  OW  HW  HW  OW  HW  HW  OW  HW  HW  OW  HW  HW  OW  
HW  HW  OW  HW  HW  OW  HW  HW  OW  HW  HW  OW  HW  HW  OW  HW  HW  OW  HW  HW  
OW  HW  HW  OW  HW  HW  OW  HW  HW  OW  HW  HW  OW  HW  HW  OW  HW  HW  OW  HW  
HW  OW  HW  HW  OW  HW  HW  OW  HW  HW  OW  HW  HW  OW  HW  HW  OW  HW  HW  OW  
HW  HW  OW  HW  HW  OW  HW  HW  OW  HW  HW  OW  HW  HW  OW  HW  HW  OW  HW  HW  
OW  HW  HW  OW  HW  HW  OW  HW  HW  OW  HW  HW  OW  HW  HW  OW  HW  HW  OW  HW  
HW  OW  HW  HW  OW  HW  HW  OW  HW  HW  OW  HW  HW  OW  HW  HW  OW  HW  HW  OW  
HW  HW  OW  HW  HW  OW  HW  HW  OW  HW  HW  OW  HW  HW  OW  HW  HW  OW  HW  HW  
OW  HW  HW  OW  HW  HW  OW  HW  HW  OW  HW  HW  OW  HW  HW  OW  HW  HW  OW  HW  
HW  OW  HW  HW  OW  HW  HW  OW  HW  HW  OW  HW  HW  OW  HW  HW  OW  HW  HW  OW  
HW  HW  OW  HW  HW  OW  HW  HW  OW  HW  HW  OW  HW  HW  OW  HW  HW  OW  HW  HW  
OW  HW  HW  OW  HW  HW  OW  HW  HW  OW  HW  HW  OW  HW  HW  OW  HW  HW  OW  HW  
HW  OW  HW  HW  OW  HW  HW  OW  HW  HW  OW  HW  HW  OW  HW  HW  OW  HW  HW  OW  
HW  HW  OW  HW  HW  OW  HW  HW  OW  HW  HW  OW  HW  HW  OW  HW  HW  OW  HW  HW  
OW  HW  HW  OW  HW  HW  OW  HW  HW  OW  HW  HW  OW  HW  HW  OW  HW  HW  OW  HW  
HW  OW  HW  HW  OW  HW  HW  OW  HW  HW  OW  HW  HW  OW  HW  HW  OW  HW  HW  OW  
HW  HW  OW  HW  HW  OW  HW  HW  OW  HW  HW  OW  HW  HW  OW  HW  HW  OW  HW  HW  
OW  HW  HW  OW  HW  HW  OW  HW  HW  OW  HW  HW  OW  HW  HW  OW  HW  HW  OW  HW  
HW  OW  HW  HW  OW  HW  HW  OW  HW  HW  OW  HW  HW  OW  HW  HW  OW  HW  HW  OW  
HW  HW  OW  HW  HW  OW  HW  HW  OW  HW  HW  OW  HW  HW  OW  HW  HW  OW  HW  HW  
OW  HW  HW  OW  HW  HW  OW  HW  HW  OW  HW  HW  OW  HW  HW  OW  HW  HW  OW  HW  
HW  OW  HW  HW  OW  HW  HW  OW  HW  HW  OW  HW  HW  OW  HW  HW  OW  HW  HW  OW  
HW  HW  OW  HW  HW  OW  HW  HW  OW  HW  HW  OW  HW  HW  OW  HW  HW  OW  HW  HW  
OW  HW  HW  OW  HW  HW  OW  HW  HW  OW  HW  HW  OW  HW  HW  OW  HW  HW  OW  HW  
HW  OW  HW  HW  OW  HW  HW  OW  HW  HW  OW  HW  HW  OW  HW  HW  OW  HW  HW  OW  
HW  HW  OW  HW  HW  OW  HW  HW  OW  HW  HW  OW  HW  HW  OW  HW  HW  OW  HW  HW  
OW  HW  HW  OW  HW  HW  OW  HW  HW  OW  HW  HW  OW  HW  HW  OW  HW  HW  OW  HW  
HW  OW  HW  HW  OW  HW  HW  OW  HW  HW  OW  HW  HW  OW  HW  HW  OW  HW  HW  OW  
HW  HW  OW  HW  HW  OW  HW  HW  OW  HW  HW  OW  HW  HW  OW  HW  HW  OW  HW  HW  
OW  HW  HW  OW  HW  HW  OW  HW  HW  OW  HW  HW  OW  HW  HW  OW  HW  HW  OW  HW  
HW  OW  HW  HW  OW  HW  HW  OW  HW  HW  OW  HW  HW  OW  HW  HW  OW  HW  HW  OW  
HW  HW  OW  HW  HW  OW  HW  HW  OW  HW  HW  OW  HW  HW  OW  HW  HW  OW  HW  HW  
OW  HW  HW  OW  HW  HW  OW  HW  HW  OW  HW  HW  OW  HW  HW  OW  HW  HW  OW  HW  
HW  OW  HW  HW  OW  HW  HW  OW  HW  HW  OW  HW  HW  OW  HW  HW  OW  HW  HW  OW  
HW  HW  OW  HW  HW  OW  HW  HW  OW  HW  HW  OW  HW  HW  OW  HW  HW  OW  HW  HW  
OW  HW  HW  OW  HW  HW  OW  HW  HW  OW  HW  HW  OW  HW  HW  OW  HW  HW  OW  HW  
HW  OW  HW  HW  OW  HW  HW  OW  HW  HW  OW  HW  HW  OW  HW  HW  OW  HW  HW  OW  
HW  HW  OW  HW  HW  OW  HW  HW  OW  HW  HW  OW  HW  HW  OW  HW  HW  OW  HW  HW  
OW  HW  HW  OW  HW  HW  OW  HW  HW  OW  HW  HW  OW  HW  HW  OW  HW  HW  OW  HW  
HW  OW  HW  HW  OW  HW  HW  OW  HW  HW  OW  HW  HW  OW  HW  HW  OW  HW  HW  OW  
HW  HW  OW  HW  HW  OW  HW  HW  OW  HW  HW  OW  HW  HW  OW  HW  HW  OW  HW  HW  
OW  HW  HW  OW  HW  HW  OW  HW  HW  OW  HW  HW  OW  HW  HW  OW  HW  HW  OW  HW  
HW  OW  HW  HW  OW  HW  HW  OW  HW  HW  OW  HW  HW  OW  HW  HW  OW  HW  HW  OW  
HW  HW  OW  HW  HW  OW  HW  HW  OW  HW  HW  OW  HW  HW  OW  HW  HW  OW  HW  HW  
OW  HW  HW  OW  HW  HW  OW  HW  HW  OW  HW  HW  OW  HW  HW  OW  HW  HW  OW  HW  
HW  OW  HW  HW  OW  HW  HW  OW  HW  HW  OW  HW  HW  OW  HW  HW  OW  HW  HW  OW  
HW  HW  OW  HW  HW  OW  HW  HW  OW  HW  HW  OW  HW  HW  OW  HW  HW  OW  HW  HW  
OW  HW  HW  OW  HW  HW  OW  HW  HW  OW  HW  HW  OW  HW  HW  OW  HW  HW  OW  HW  
HW  OW  HW  HW  OW  HW  HW  OW  HW  HW  OW  HW  HW  OW  HW  HW  OW  HW  HW  OW  
HW  HW  OW  HW  HW  OW  HW  HW  OW  HW  HW  OW  HW  HW  OW  HW  HW  OW  HW  HW  
OW  HW  HW  OW  HW  HW  OW  HW  HW  OW  HW  HW  OW  HW  HW  OW  HW  HW  OW  HW  
HW  OW  HW  HW  OW  HW  HW  OW  HW  HW  OW  HW  HW  OW  HW  HW  OW  HW  HW  OW  
HW  HW  OW  HW  HW  OW  HW  HW  OW  HW  HW  OW  HW  HW  OW  HW  HW  OW  HW  HW  
OW  HW  HW  OW  HW  HW  OW  HW  HW  OW  HW  HW  OW  HW  HW  OW  HW  HW  OW  HW  
HW  OW  HW  HW  OW  HW  HW  OW  HW  HW  OW  HW  HW  OW  HW  HW  OW  HW  HW  OW  
HW  HW  OW  HW  HW  OW  HW  HW  OW  HW  HW  OW  HW  HW  OW  HW  HW  OW  HW  HW  
OW  HW  HW  OW  HW  HW  OW  HW  HW  OW  HW  HW  OW  HW  HW  OW  HW  HW  OW  HW  
HW  OW  HW  HW  OW  HW  HW  OW  HW  HW  OW  HW  HW  OW  HW  HW  OW  HW  HW  OW  
HW  HW  OW  HW  HW  OW  HW  HW  OW  HW  HW  OW  HW  HW  OW  HW  HW  OW  HW  HW  
OW  HW  HW  OW  HW  HW  OW  HW  HW  OW  HW  HW  OW  HW  HW  OW  HW  HW  OW  HW  
HW  OW  HW  HW  OW  HW  HW  OW  HW  HW  OW  HW  HW  OW  HW  HW  OW  HW  HW  OW  
HW  HW  OW  HW  HW  OW  HW  HW  OW  HW  HW  OW  HW  HW  OW  HW  HW  OW  HW  HW  
OW  HW  HW  OW  HW  HW  OW  HW  HW  OW  HW  HW  OW  HW  HW  OW  HW  HW  OW  HW  
HW  OW  HW  HW  OW  HW  HW  OW  HW  HW  OW  HW  HW  OW  HW  HW  OW  HW  HW  OW  
HW  HW  OW  HW  HW  OW  HW  HW  OW  HW  HW  OW  HW  HW  OW  HW  HW  OW  HW  HW  
OW  HW  HW  OW  HW  HW  OW  HW  HW  OW  HW  HW  OW  HW  HW  OW  HW  HW  OW  HW  
HW  OW  HW  HW  OW  HW  HW  OW  HW  HW  OW  HW  HW  OW  HW  HW  OW  HW  HW  OW  
HW  HW  OW  HW  HW  OW  HW  HW  OW  HW  HW  OW  HW  HW  OW  HW  HW  OW  HW  HW  
OW  HW  HW  OW  HW  HW  OW  HW  HW  OW  HW  HW  OW  HW  HW  OW  HW  HW  OW  HW  
HW  OW  HW  HW  OW  HW  HW  OW  HW  HW  OW  HW  HW  OW  HW  HW  OW  HW  HW  OW  
HW  HW  OW  HW  HW  OW  HW  HW  OW  HW  HW  OW  HW  HW  OW  HW  HW  OW  HW  HW  
OW  HW  HW  OW  HW  HW  OW  HW  HW  OW  HW  HW  OW  HW  HW  OW  HW  HW  OW  HW  
HW  OW  HW  HW  OW  HW  HW  OW  HW  HW  OW  HW  HW  OW  HW  HW  OW  HW  HW  OW  
HW  HW  OW  HW  HW  OW  HW  HW  OW  HW  HW  OW  HW  HW  OW  HW  HW  OW  HW  HW  
OW  HW  HW  OW  HW  HW  OW  HW  HW  OW  HW  HW  OW  HW  HW  OW  HW  HW  OW  HW  
HW  OW  HW  HW  OW  HW  HW  OW  HW  HW  OW  HW  HW  OW  HW  HW  OW  HW  HW  OW  
HW  HW  OW  HW  HW  OW  HW  HW  OW  HW  HW  OW  HW  HW  OW  HW  HW  OW  HW  HW  
OW  HW  HW  OW  HW  HW  OW  HW  HW  OW  HW  HW  OW  HW  HW  OW  HW  HW  OW  HW  
HW  OW  HW  HW  OW  HW  HW  OW  HW  HW  OW  HW  HW  OW  HW  HW  OW  HW  HW  OW  
HW  HW  OW  HW  HW  OW  HW  HW  OW  HW  HW  OW  HW  HW  OW  HW  HW  OW  HW  HW  
OW  HW  HW  OW  HW  HW  OW  HW  HW  OW  HW  HW  OW  HW  HW  OW  HW  HW  OW  HW  
HW  OW  HW  HW  OW  HW  HW  OW  HW  HW  OW  HW  HW  OW  HW  HW  OW  HW  HW  OW  
HW  HW  OW  HW  HW  OW  HW  HW  OW  HW  HW  OW  HW  HW  OW  HW  HW  OW  HW  HW  
OW  HW  HW  OW  HW  HW  OW  HW  HW  OW  HW  HW  OW  HW  HW  OW  HW  HW  OW  HW  
HW  OW  HW  HW  OW  HW  HW  OW  HW  HW  OW  HW  HW  OW  HW  HW  OW  HW  HW  OW  
HW  HW  OW  HW  HW  OW  HW  HW  OW  HW  HW  OW  HW  HW  OW  HW  HW  OW  HW  HW  
OW  HW  HW  OW  HW  HW  OW  HW  HW  OW  HW  HW  OW  HW  HW  OW  HW  HW  OW  HW  
HW  OW  HW  HW  OW  HW  HW  OW  HW  HW  OW  HW  HW  OW  HW  HW  OW  HW  HW  OW  
HW  HW  OW  HW  HW  OW  HW  HW  OW  HW  HW  OW  HW  HW  OW  HW  HW  OW  HW  HW  
OW  HW  HW  OW  HW  HW  OW  HW  HW  OW  HW  HW  OW  HW  HW  OW  HW  HW  OW  HW  
HW  OW  HW  HW  OW  HW  HW  OW  HW  HW  OW  HW  HW  OW  HW  HW  OW  HW  HW  OW  
HW  HW  OW  HW  HW  OW  HW  HW  OW  HW  HW  OW  HW  HW  OW  HW  HW  OW  HW  HW  
OW  HW  HW  OW  HW  HW  OW  HW  HW  OW  HW  HW  OW  HW  HW  OW  HW  HW  OW  HW  
HW  OW  HW  HW  OW  HW  HW  OW  HW  HW  OW  HW  HW  OW  HW  HW  OW  HW  HW  OW  
HW  HW  OW  HW  HW  OW  HW  HW  OW  HW  HW  OW  HW  HW  OW  HW  HW  OW  HW  HW  
OW  HW  HW  OW  HW  HW  OW  HW  HW  OW  HW  HW  OW  HW  HW  OW  HW  HW  OW  HW  
HW  OW  HW  HW  OW  HW  HW  OW  HW  HW  OW  HW  HW  OW  HW  HW  OW  HW  HW  OW  
HW  HW  OW  HW  HW  OW  HW  HW  OW  HW  HW  OW  HW  HW  OW  HW  HW  OW  HW  HW  
OW  HW  HW  OW  HW  HW  OW  HW  HW  OW  HW  HW  OW  HW  HW  OW  HW  HW  OW  HW  
HW  OW  HW  HW  OW  HW  HW  OW  HW  HW  OW  HW  HW  OW  HW  HW  OW  HW  HW  OW  
HW  HW  OW  HW  HW  OW  HW  HW  OW  HW  HW  OW  HW  HW  OW  HW  HW  OW  HW  HW  
OW  HW  HW  OW  HW  HW  OW  HW  HW  OW  HW  HW  OW  HW  HW  OW  HW  HW  OW  HW  
HW  OW  HW  HW  OW  HW  HW  OW  HW  HW  OW  HW  HW  OW  HW  HW  OW  HW  HW  OW  
HW  HW  OW  HW  HW  OW  HW  HW  OW  HW  HW  OW  HW  HW  OW  HW  HW  OW  HW  HW  
OW  HW  HW  OW  HW  HW  OW  HW  HW  OW  HW  HW  OW  HW  HW  OW  HW  HW  OW  HW  
HW  OW  HW  HW  OW  HW  HW  OW  HW  HW  OW  HW  HW  OW  HW  HW  OW  HW  HW  OW  
HW  HW  OW  HW  HW  OW  HW  HW  OW  HW  HW  OW  HW  HW  OW  HW  HW  OW  HW  HW  
OW  HW  HW  OW  HW  HW  OW  HW  HW  OW  HW  HW  OW  HW  HW  OW  HW  HW  OW  HW  
HW  OW  HW  HW  OW  HW  HW  OW  HW  HW  OW  HW  HW  OW  HW  HW  OW  HW  HW  OW  
HW  HW  OW  HW  HW  OW  HW  HW  OW  HW  HW  OW  HW  HW  OW  HW  HW  OW  HW  HW  
OW  HW  HW  OW  HW  HW  OW  HW  HW  OW  HW  HW  OW  HW  HW  OW  HW  HW  OW  HW  
HW  OW  HW  HW  OW  HW  HW  OW  HW  HW  OW  HW  HW  OW  HW  HW  OW  HW  HW  OW  
HW  HW  OW  HW  HW  OW  HW  HW  OW  HW  HW  OW  HW  HW  OW  HW  HW  OW  HW  HW  
OW  HW  HW  OW  HW  HW  OW  HW  HW  OW  HW  HW  OW  HW  HW  OW  HW  HW  OW  HW  
HW  OW  HW  HW  OW  HW  HW  OW  HW  HW  OW  HW  HW  OW  HW  HW  OW  HW  HW  OW  
HW  HW  OW  HW  HW  OW  HW  HW  OW  HW  HW  OW  HW  HW  OW  HW  HW  OW  HW  HW  
OW  HW  HW  OW  HW  HW  OW  HW  HW  OW  HW  HW  OW  HW  HW  OW  HW  HW  OW  HW  
HW  OW  HW  HW  OW  HW  HW  OW  HW  HW  OW  HW  HW  OW  HW  HW  OW  HW  HW  OW  
HW  HW  OW  HW  HW  OW  HW  HW  OW  HW  HW  OW  HW  HW  OW  HW  HW  OW  HW  HW  
OW  HW  HW  OW  HW  HW  OW  HW  HW  OW  HW  HW  OW  HW  HW  OW  HW  HW  OW  HW  
HW  OW  HW  HW  OW  HW  HW  OW  HW  HW  OW  HW  HW  OW  HW  HW  OW  HW  HW  OW  
HW  HW  OW  HW  HW  OW  HW  HW  OW  HW  HW  OW  HW  HW  OW  HW  HW  OW  HW  HW  
OW  HW  HW  OW  HW  HW  OW  HW  HW  OW  HW  HW  OW  HW  HW  OW  HW  HW  OW  HW  
HW  OW  HW  HW  OW  HW  HW  OW  HW  HW  OW  HW  HW  OW  HW  HW  OW  HW  HW  OW  
HW  HW  OW  HW  HW  OW  HW  HW  OW  HW  HW  OW  HW  HW  OW  HW  HW  OW  HW  HW  
OW  HW  HW  OW  HW  HW  OW  HW  HW  OW  HW  HW  OW  HW  HW  OW  HW  HW  OW  HW  
HW  OW  HW  HW  OW  HW  HW  OW  HW  HW  OW  HW  HW  OW  HW  HW  OW  HW  HW  OW  
HW  HW  OW  HW  HW  OW  HW  HW  OW  HW  HW  OW  HW  HW  OW  HW  HW  OW  HW  HW  
OW  HW  HW  OW  HW  HW  OW  HW  HW  OW  HW  HW  OW  HW  HW  OW  HW  HW  OW  HW  
HW  OW  HW  HW  OW  HW  HW  OW  HW  HW  OW  HW  HW  OW  HW  HW  OW  HW  HW  OW  
HW  HW  OW  HW  HW  OW  HW  HW  OW  HW  HW  OW  HW  HW  OW  HW  HW  OW  HW  HW  
OW  HW  HW  OW  HW  HW  OW  HW  HW  OW  HW  HW  OW  HW  HW  OW  HW  HW  OW  HW  
HW  OW  HW  HW  OW  HW  HW  OW  HW  HW  OW  HW  HW  OW  HW  HW  OW  HW  HW  OW  
HW  HW  OW  HW  HW  OW  HW  HW  OW  HW  HW  OW  HW  HW  OW  HW  HW  OW  HW  HW  
OW  HW  HW  OW  HW  HW  OW  HW  HW  OW  HW  HW  OW  HW  HW  OW  HW  HW  OW  HW  
HW  OW  HW  HW  OW  HW  HW  OW  HW  HW  OW  HW  HW  OW  HW  HW  OW  HW  HW  OW  
HW  HW  OW  HW  HW  OW  HW  HW  OW  HW  HW  OW  HW  HW  OW  HW  HW  OW  HW  HW  
OW  HW  HW  OW  HW  HW  OW  HW  HW  OW  HW  HW  OW  HW  HW  OW  HW  HW  OW  HW  
HW  OW  HW  HW  OW  HW  HW  OW  HW  HW  OW  HW  HW  OW  HW  HW  OW  HW  HW  OW  
HW  HW  OW  HW  HW  OW  HW  HW  OW  HW  HW  OW  HW  HW  OW  HW  HW  OW  HW  HW  
OW  HW  HW  OW  HW  HW  OW  HW  HW  OW  HW  HW  OW  HW  HW  OW  HW  HW  OW  HW  
HW  OW  HW  HW  OW  HW  HW  OW  HW  HW  OW  HW  HW  OW  HW  HW  OW  HW  HW  OW  
HW  HW  OW  HW  HW  OW  HW  HW  OW  HW  HW  OW  HW  HW  OW  HW  HW  OW  HW  HW  
OW  HW  HW  OW  HW  HW  OW  HW  HW  OW  HW  HW  OW  HW  HW  OW  HW  HW  OW  HW  
HW  OW  HW  HW  OW  HW  HW  OW  HW  HW  OW  HW  HW  OW  HW  HW  OW  HW  HW  OW  
HW  HW  OW  HW  HW  OW  HW  HW  OW  HW  HW  OW  HW  HW  OW  HW  HW  OW  HW  HW  
OW  HW  HW  OW  HW  HW  OW  HW  HW  OW  HW  HW  OW  HW  HW  OW  HW  HW  OW  HW  
HW  OW  HW  HW  OW  HW  HW  OW  HW  HW  OW  HW  HW  OW  HW  HW  OW  HW  HW  OW  
HW  HW  OW  HW  HW  OW  HW  HW  OW  HW  HW  OW  HW  HW  OW  HW  HW  OW  HW  HW  
OW  HW  HW  OW  HW  HW  OW  HW  HW  OW  HW  HW  OW  HW  HW  OW  HW  HW  OW  HW  
HW  OW  HW  HW  OW  HW  HW  OW  HW  HW  OW  HW  HW  OW  HW  HW  OW  HW  HW  OW  
HW  HW  OW  HW  HW  OW  HW  HW  OW  HW  HW  OW  HW  HW  OW  HW  HW  OW  HW  HW  
OW  HW  HW  OW  HW  HW  OW  HW  HW  OW  HW  HW  OW  HW  HW  OW  HW  HW  OW  HW  
HW  OW  HW  HW  OW  HW  HW  OW  HW  HW  OW  HW  HW  OW  HW  HW  OW  HW  HW  OW  
HW  HW  OW  HW  HW  OW  HW  HW  OW  HW  HW  OW  HW  HW  OW  HW  HW  OW  HW  HW  
OW  HW  HW  OW  HW  HW  OW  HW  HW  OW  HW  HW  OW  HW  HW  OW  HW  HW  OW  HW  
HW  OW  HW  HW  OW  HW  HW  OW  HW  HW  OW  HW  HW  OW  HW  HW  OW  HW  HW  OW  
HW  HW  OW  HW  HW  OW  HW  HW  OW  HW  HW  OW  HW  HW  OW  HW  HW  OW  HW  HW  
OW  HW  HW  OW  HW  HW  OW  HW  HW  OW  HW  HW  OW  HW  HW  OW  HW  HW  OW  HW  
HW  OW  HW  HW  OW  HW  HW  OW  HW  HW  OW  HW  HW  OW  HW  HW  OW  HW  HW  OW  
HW  HW  OW  HW  HW  OW  HW  HW  OW  HW  HW  OW  HW  HW  OW  HW  HW  OW  HW  HW  
OW  HW  HW  OW  HW  HW  OW  HW  HW  OW  HW  HW  OW  HW  HW  OW  HW  HW  OW  HW  
HW  OW  HW  HW  OW  HW  HW  OW  HW  HW  OW  HW  HW  OW  HW  HW  OW  HW  HW  OW  
HW  HW  OW  HW  HW  OW  HW  HW  OW  HW  HW  OW  HW  HW  OW  HW  HW  OW  HW  HW  
OW  HW  HW  OW  HW  HW  OW  HW  HW  OW  HW  HW  OW  HW  HW  OW  HW  HW  OW  HW  
HW  OW  HW  HW  OW  HW  HW  OW  HW  HW  OW  HW  HW  OW  HW  HW  OW  HW  HW  OW  
HW  HW  OW  HW  HW  OW  HW  HW  OW  HW  HW  OW  HW  HW  OW  HW  HW  OW  HW  HW  
OW  HW  HW  OW  HW  HW  OW  HW  HW  OW  HW  HW  OW  HW  HW  OW  HW  HW  OW  HW  
HW  OW  HW  HW  OW  HW  HW  OW  HW  HW  OW  HW  HW  OW  HW  HW  OW  HW  HW  OW  
HW  HW  OW  HW  HW  OW  HW  HW  OW  HW  HW  OW  HW  HW  OW  HW  HW  OW  HW  HW  
OW  HW  HW  OW  HW  HW  OW  HW  HW  OW  HW  HW  OW  HW  HW  OW  HW  HW  OW  HW  
HW  OW  HW  HW  OW  HW  HW  OW  HW  HW  OW  HW  HW  OW  HW  HW  OW  HW  HW  OW  
HW  HW  OW  HW  HW  OW  HW  HW  OW  HW  HW  OW  HW  HW  OW  HW  HW  OW  HW  HW  
OW  HW  HW  OW  HW  HW  OW  HW  HW  OW  HW  HW  OW  HW  HW  OW  HW  HW  OW  HW  
HW  OW  HW  HW  OW  HW  HW  OW  HW  HW  OW  HW  HW  OW  HW  HW  OW  HW  HW  OW  
HW  HW  OW  HW  HW  OW  HW  HW  OW  HW  HW  OW  HW  HW  OW  HW  HW  OW  HW  HW  
OW  HW  HW  OW  HW  HW  OW  HW  HW  OW  HW  HW  OW  HW  HW  OW  HW  HW  OW  HW  
HW  OW  HW  HW  OW  HW  HW  OW  HW  HW  OW  HW  HW  OW  HW  HW  OW  HW  HW  OW  
HW  HW  OW  HW  HW  OW  HW  HW  OW  HW  HW  OW  HW  HW  OW  HW  HW  OW  HW  HW  
OW  HW  HW  OW  HW  HW  OW  HW  HW  OW  HW  HW  OW  HW  HW  OW  HW  HW  OW  HW  
HW  OW  HW  HW  OW  HW  HW  OW  HW  HW  OW  HW  HW  OW  HW  HW  OW  HW  HW  OW  
HW  HW  OW  HW  HW  OW  HW  HW  OW  HW  HW  OW  HW  HW  OW  HW  HW  OW  HW  HW  
OW  HW  HW  OW  HW  HW  OW  HW  HW  OW  HW  HW  OW  HW  HW  OW  HW  HW  OW  HW  
HW  OW  HW  HW  OW  HW  HW  OW  HW  HW  OW  HW  HW  OW  HW  HW  OW  HW  HW  OW  
HW  HW  OW  HW  HW  OW  HW  HW  OW  HW  HW  OW  HW  HW  OW  HW  HW  OW  HW  HW  
OW  HW  HW  OW  HW  HW  OW  HW  HW  OW  HW  HW  OW  HW  HW  OW  HW  HW  OW  HW  
HW  OW  HW  HW  OW  HW  HW  OW  HW  HW  OW  HW  HW  OW  HW  HW  OW  HW  HW  OW  
HW  HW  OW  HW  HW  OW  HW  HW  OW  HW  HW  OW  HW  HW  OW  HW  HW  OW  HW  HW  
OW  HW  HW  OW  HW  HW  OW  HW  HW  OW  HW  HW  OW  HW  HW  OW  HW  HW  OW  HW  
HW  OW  HW  HW  OW  HW  HW  OW  HW  HW  OW  HW  HW  OW  HW  HW  OW  HW  HW  OW  
HW  HW  OW  HW  HW  OW  HW  HW  OW  HW  HW  OW  HW  HW  OW  HW  HW  OW  HW  HW  
OW  HW  HW  OW  HW  HW  OW  HW  HW  OW  HW  HW  OW  HW  HW  OW  HW  HW  OW  HW  
HW  OW  HW  HW  OW  HW  HW  OW  HW  HW  OW  HW  HW  OW  HW  HW  OW  HW  HW  OW  
HW  HW  OW  HW  HW  OW  HW  HW  OW  HW  HW  OW  HW  HW  OW  HW  HW  OW  HW  HW  
OW  HW  HW  OW  HW  HW  OW  HW  HW  OW  HW  HW  OW  HW  HW  OW  HW  HW  OW  HW  
HW  OW  HW  HW  OW  HW  HW  OW  HW  HW  OW  HW  HW  OW  HW  HW  OW  HW  HW  OW  
HW  HW  OW  HW  HW  OW  HW  HW  OW  HW  HW  OW  HW  HW  OW  HW  HW  OW  HW  HW  
OW  HW  HW  OW  HW  HW  OW  HW  HW  OW  HW  HW  OW  HW  HW  OW  HW  HW  OW  HW  
HW  OW  HW  HW  OW  HW  HW  OW  HW  HW  OW  HW  HW  OW  HW  HW  OW  HW  HW  OW  
HW  HW  OW  HW  HW  OW  HW  HW  OW  HW  HW  OW  HW  HW  OW  HW  HW  OW  HW  HW  
OW  HW  HW  OW  HW  HW  OW  HW  HW  OW  HW  HW  OW  HW  HW  OW  HW  HW  OW  HW  
HW  OW  HW  HW  OW  HW  HW  OW  HW  HW  OW  HW  HW  OW  HW  HW  OW  HW  HW  OW  
HW  HW  OW  HW  HW  OW  HW  HW  OW  HW  HW  OW  HW  HW  OW  HW  HW  OW  HW  HW  
OW  HW  HW  OW  HW  HW  OW  HW  HW  OW  HW  HW  OW  HW  HW  OW  HW  HW  OW  HW  
HW  OW  HW  HW  OW  HW  HW  OW  HW  HW  OW  HW  HW  OW  HW  HW  OW  HW  HW  OW  
HW  HW  OW  HW  HW  OW  HW  HW  OW  HW  HW  OW  HW  HW  OW  HW  HW  OW  HW  HW  
OW  HW  HW  OW  HW  HW  OW  HW  HW  OW  HW  HW  OW  HW  HW  OW  HW  HW  OW  HW  
HW  OW  HW  HW  OW  HW  HW  OW  HW  HW  OW  HW  HW  OW  HW  HW  OW  HW  HW  OW  
HW  HW  OW  HW  HW  OW  HW  HW  OW  HW  HW  OW  HW  HW  OW  HW  HW  OW  HW  HW  
OW  HW  HW  OW  HW  HW  OW  HW  HW  OW  HW  HW  OW  HW  HW  OW  HW  HW  OW  HW  
HW  OW  HW  HW  OW  HW  HW  OW  HW  HW  OW  HW  HW  OW  HW  HW  OW  HW  HW  OW  
HW  HW  OW  HW  HW  OW  HW  HW  OW  HW  HW  OW  HW  HW  OW  HW  HW  OW  HW  HW  
OW  HW  HW  OW  HW  HW  OW  HW  HW  OW  HW  HW  OW  HW  HW  OW  HW  HW  OW  HW  
HW  OW  HW  HW  OW  HW  HW  OW  HW  HW  OW  HW  HW  OW  HW  HW  OW  HW  HW  OW  
HW  HW  OW  HW  HW  OW  HW  HW  OW  HW  HW  OW  HW  HW  OW  HW  HW  OW  HW  HW  
OW  HW  HW  OW  HW  HW  OW  HW  HW  OW  HW  HW  OW  HW  HW  OW  HW  HW  OW  HW  
HW  OW  HW  HW  OW  HW  HW  OW  HW  HW  OW  HW  HW  OW  HW  HW  OW  HW  HW  OW  
HW  HW  OW  HW  HW  OW  HW  HW  OW  HW  HW  OW  HW  HW  OW  HW  HW  OW  HW  HW  
OW  HW  HW  OW  HW  HW  OW  HW  HW  OW  HW  HW  OW  HW  HW  OW  HW  HW  OW  HW  
HW  OW  HW  HW  OW  HW  HW  OW  HW  HW  OW  HW  HW  OW  HW  HW  OW  HW  HW  OW  
HW  HW  OW  HW  HW  OW  HW  HW  OW  HW  HW  OW  HW  HW  OW  HW  HW  OW  HW  HW  
OW  HW  HW  OW  HW  HW  OW  HW  HW  OW  HW  HW  OW  HW  HW  OW  HW  HW  OW  HW  
HW  OW  HW  HW  OW  HW  HW  OW  HW  HW  OW  HW  HW  OW  HW  HW  OW  HW  HW  OW  
HW  HW  OW  HW  HW  OW  HW  HW  OW  HW  HW  OW  HW  HW  OW  HW  HW  OW  HW  HW  
OW  HW  HW  OW  HW  HW  OW  HW  HW  OW  HW  HW  OW  HW  HW  OW  HW  HW  OW  HW  
HW  OW  HW  HW  OW  HW  HW  OW  HW  HW  OW  HW  HW  OW  HW  HW  OW  HW  HW  OW  
HW  HW  OW  HW  HW  OW  HW  HW  OW  HW  HW  OW  HW  HW  OW  HW  HW  OW  HW  HW  
OW  HW  HW  OW  HW  HW  OW  HW  HW  OW  HW  HW  OW  HW  HW  OW  HW  HW  OW  HW  
HW  OW  HW  HW  OW  HW  HW  OW  HW  HW  OW  HW  HW  OW  HW  HW  OW  HW  HW  OW  
HW  HW  OW  HW  HW  OW  HW  HW  OW  HW  HW  OW  HW  HW  OW  HW  HW  OW  HW  HW  
OW  HW  HW  OW  HW  HW  OW  HW  HW  OW  HW  HW  OW  HW  HW  OW  HW  HW  OW  HW  
HW  OW  HW  HW  OW  HW  HW  OW  HW  HW  OW  HW  HW  OW  HW  HW  OW  HW  HW  OW  
HW  HW  OW  HW  HW  OW  HW  HW  OW  HW  HW  OW  HW  HW  OW  HW  HW  OW  HW  HW  
OW  HW  HW  OW  HW  HW  OW  HW  HW  OW  HW  HW  OW  HW  HW  OW  HW  HW  OW  HW  
HW  OW  HW  HW  OW  HW  HW  OW  HW  HW  OW  HW  HW  OW  HW  HW  OW  HW  HW  OW  
HW  HW  OW  HW  HW  OW  HW  HW  OW  HW  HW  OW  HW  HW  OW  HW  HW  OW  HW  HW  
OW  HW  HW  OW  HW  HW  OW  HW  HW  OW  HW  HW  OW  HW  HW  OW  HW  HW  OW  HW  
HW  OW  HW  HW  OW  HW  HW  OW  HW  HW  OW  HW  HW  OW  HW  HW  OW  HW  HW  OW  
HW  HW  OW  HW  HW  OW  HW  HW  OW  HW  HW  OW  HW  HW  OW  HW  HW  OW  HW  HW  
OW  HW  HW  OW  HW  HW  OW  HW  HW  OW  HW  HW  OW  HW  HW  OW  HW  HW  OW  HW  
HW  OW  HW  HW  OW  HW  HW  OW  HW  HW  OW  HW  HW  OW  HW  HW  OW  HW  HW  OW  
HW  HW  OW  HW  HW  OW  HW  HW  OW  HW  HW  OW  HW  HW  OW  HW  HW  OW  HW  HW  
OW  HW  HW  OW  HW  HW  OW  HW  HW  OW  HW  HW  OW  HW  HW  OW  HW  HW  OW  HW  
HW  OW  HW  HW  OW  HW  HW  OW  HW  HW  OW  HW  HW  OW  HW  HW  OW  HW  HW  OW  
HW  HW  OW  HW  HW  OW  HW  HW  OW  HW  HW  OW  HW  HW  OW  HW  HW  OW  HW  HW  
OW  HW  HW  OW  HW  HW  OW  HW  HW  OW  HW  HW  OW  HW  HW  OW  HW  HW  OW  HW  
HW  OW  HW  HW  OW  HW  HW  OW  HW  HW  OW  HW  HW  OW  HW  HW  OW  HW  HW  OW  
HW  HW  OW  HW  HW  OW  HW  HW  OW  HW  HW  OW  HW  HW  OW  HW  HW  OW  HW  HW  
OW  HW  HW  OW  HW  HW  OW  HW  HW  OW  HW  HW  OW  HW  HW  OW  HW  HW  OW  HW  
HW  OW  HW  HW  OW  HW  HW  OW  HW  HW  OW  HW  HW  OW  HW  HW  OW  HW  HW  OW  
HW  HW  OW  HW  HW  OW  HW  HW  OW  HW  HW  OW  HW  HW  OW  HW  HW  OW  HW  HW  
OW  HW  HW  OW  HW  HW  OW  HW  HW  OW  HW  HW  OW  HW  HW  OW  HW  HW  OW  HW  
HW  OW  HW  HW  OW  HW  HW  OW  HW  HW  OW  HW  HW  OW  HW  HW  OW  HW  HW  OW  
HW  HW  OW  HW  HW  OW  HW  HW  OW  HW  HW  OW  HW  HW  OW  HW  HW  OW  HW  HW  
OW  HW  HW  OW  HW  HW  OW  HW  HW  OW  HW  HW  OW  HW  HW  OW  HW  HW  OW  HW  
HW  OW  HW  HW  OW  HW  HW  OW  HW  HW  OW  HW  HW  OW  HW  HW  OW  HW  HW  OW  
HW  HW  OW  HW  HW  OW  HW  HW  OW  HW  HW  OW  HW  HW  OW  HW  HW  OW  HW  HW  
OW  HW  HW  OW  HW  HW  OW  HW  HW  OW  HW  HW  OW  HW  HW  OW  HW  HW  OW  HW  
HW  OW  HW  HW  OW  HW  HW  OW  HW  HW  OW  HW  HW  OW  HW  HW  OW  HW  HW  OW  
HW  HW  OW  HW  HW  OW  HW  HW  OW  HW  HW  OW  HW  HW  OW  HW  HW  OW  HW  HW  
OW  HW  HW  OW  HW  HW  OW  HW  HW  OW  HW  HW  OW  HW  HW  OW  HW  HW  OW  HW  
HW  OW  HW  HW  OW  HW  HW  OW  HW  HW  OW  HW  HW  OW  HW  HW  OW  HW  HW  OW  
HW  HW  OW  HW  HW  OW  HW  HW  OW  HW  HW  OW  HW  HW  OW  HW  HW  OW  HW  HW  
OW  HW  HW  OW  HW  HW  OW  HW  HW  OW  HW  HW  OW  HW  HW  OW  HW  HW  OW  HW  
HW  OW  HW  HW  OW  HW  HW  OW  HW  HW  OW  HW  HW  OW  HW  HW  OW  HW  HW  OW  
HW  HW  OW  HW  HW  OW  HW  HW  OW  HW  HW  OW  HW  HW  OW  HW  HW  OW  HW  HW  
OW  HW  HW  OW  HW  HW  OW  HW  HW  OW  HW  HW  OW  HW  HW  OW  HW  HW  OW  HW  
HW  OW  HW  HW  OW  HW  HW  OW  HW  HW  OW  HW  HW  OW  HW  HW  OW  HW  HW  OW  
HW  HW  OW  HW  HW  OW  HW  HW  OW  HW  HW  OW  HW  HW  OW  HW  HW  OW  HW  HW  
OW  HW  HW  OW  HW  HW  OW  HW  HW  OW  HW  HW  OW  HW  HW  OW  HW  HW  OW  HW  
HW  OW  HW  HW  OW  HW  HW  OW  HW  HW  OW  HW  HW  OW  HW  HW  OW  HW  HW  OW  
HW  HW  OW  HW  HW  OW  HW  HW  OW  HW  HW  OW  HW  HW  OW  HW  HW  OW  HW  HW  
OW  HW  HW  OW  HW  HW  OW  HW  HW  OW  HW  HW  OW  HW  HW  OW  HW  HW  OW  HW  
HW  OW  HW  HW  OW  HW  HW  OW  HW  HW  OW  HW  HW  OW  HW  HW  OW  HW  HW  OW  
HW  HW  OW  HW  HW  OW  HW  HW  OW  HW  HW  OW  HW  HW  OW  HW  HW  OW  HW  HW  
OW  HW  HW  OW  HW  HW  OW  HW  HW  OW  HW  HW  OW  HW  HW  OW  HW  HW  OW  HW  
HW  OW  HW  HW  OW  HW  HW  OW  HW  HW  OW  HW  HW  OW  HW  HW  OW  HW  HW  OW  
HW  HW  OW  HW  HW  OW  HW  HW  OW  HW  HW  OW  HW  HW  OW  HW  HW  OW  HW  HW  
OW  HW  HW  OW  HW  HW  OW  HW  HW  OW  HW  HW  OW  HW  HW  OW  HW  HW  OW  HW  
HW  OW  HW  HW  OW  HW  HW  OW  HW  HW  OW  HW  HW  OW  HW  HW  OW  HW  HW  OW  
HW  HW  OW  HW  HW  OW  HW  HW  OW  HW  HW  OW  HW  HW  OW  HW  HW  OW  HW  HW  
OW  HW  HW  OW  HW  HW  OW  HW  HW  OW  HW  HW  OW  HW  HW  OW  HW  HW  OW  HW  
HW  OW  HW  HW  OW  HW  HW  
%FLAG TREE_CHAIN_CLASSIFICATION                                                 
%FORMAT(20a4)                                                                   
BLA BLA BLA BLA BLA BLA BLA BLA BLA BLA BLA BLA BLA BLA BLA BLA BLA BLA BLA BLA 
BLA BLA BLA BLA BLA BLA BLA BLA BLA BLA BLA BLA BLA BLA BLA BLA BLA BLA BLA M   
M   BLA BLA BLA BLA BLA BLA BLA BLA BLA BLA BLA BLA BLA BLA BLA BLA BLA BLA BLA 
BLA BLA BLA BLA BLA BLA BLA BLA BLA BLA BLA BLA BLA BLA BLA BLA BLA BLA BLA BLA 
BLA BLA BLA BLA BLA BLA BLA BLA BLA BLA BLA BLA BLA BLA BLA BLA BLA BLA BLA BLA 
BLA BLA BLA BLA BLA BLA BLA BLA BLA BLA BLA BLA BLA BLA BLA BLA BLA BLA BLA BLA 
BLA BLA BLA BLA BLA BLA BLA BLA BLA BLA BLA BLA BLA BLA BLA BLA BLA BLA BLA BLA 
BLA BLA BLA BLA BLA BLA BLA BLA BLA BLA BLA BLA BLA BLA BLA BLA BLA BLA BLA BLA 
BLA BLA BLA BLA BLA BLA BLA BLA BLA BLA BLA BLA BLA BLA BLA BLA BLA BLA BLA BLA 
BLA BLA BLA BLA BLA BLA BLA BLA BLA BLA BLA BLA BLA BLA BLA BLA BLA BLA BLA BLA 
BLA BLA BLA BLA BLA BLA BLA BLA BLA BLA BLA BLA BLA BLA BLA BLA BLA BLA BLA BLA 
BLA BLA BLA BLA BLA BLA BLA BLA BLA BLA BLA BLA BLA BLA BLA BLA BLA BLA BLA BLA 
BLA BLA BLA BLA BLA BLA BLA BLA BLA BLA BLA BLA BLA BLA BLA BLA BLA BLA BLA BLA 
BLA BLA BLA BLA BLA BLA BLA BLA BLA BLA BLA BLA BLA BLA BLA BLA BLA BLA BLA BLA 
BLA BLA BLA BLA BLA BLA BLA BLA BLA BLA BLA BLA BLA BLA BLA BLA BLA BLA BLA BLA 
BLA BLA BLA BLA BLA BLA BLA BLA BLA BLA BLA BLA BLA BLA BLA BLA BLA BLA BLA BLA 
BLA BLA BLA BLA BLA BLA BLA BLA BLA BLA BLA BLA BLA BLA BLA BLA BLA BLA BLA BLA 
BLA BLA BLA BLA BLA BLA BLA BLA BLA BLA BLA BLA BLA BLA BLA BLA BLA BLA BLA BLA 
BLA BLA BLA BLA BLA BLA BLA BLA BLA BLA BLA BLA BLA BLA BLA BLA BLA BLA BLA BLA 
BLA BLA BLA BLA BLA BLA BLA BLA BLA BLA BLA BLA BLA BLA BLA BLA BLA BLA BLA BLA 
BLA BLA BLA BLA BLA BLA BLA BLA BLA BLA BLA BLA BLA BLA BLA BLA BLA BLA BLA BLA 
BLA BLA BLA BLA BLA BLA BLA BLA BLA BLA BLA BLA BLA BLA BLA BLA BLA BLA BLA BLA 
BLA BLA BLA BLA BLA BLA BLA BLA BLA BLA BLA BLA BLA BLA BLA BLA BLA BLA BLA BLA 
BLA BLA BLA BLA BLA BLA BLA BLA BLA BLA BLA BLA BLA BLA BLA BLA BLA BLA BLA BLA 
BLA BLA BLA BLA BLA BLA BLA BLA BLA BLA BLA BLA BLA BLA BLA BLA BLA BLA BLA BLA 
BLA BLA BLA BLA BLA BLA BLA BLA BLA BLA BLA BLA BLA BLA BLA BLA BLA BLA BLA BLA 
BLA BLA BLA BLA BLA BLA BLA BLA BLA BLA BLA BLA BLA BLA BLA BLA BLA BLA BLA BLA 
BLA BLA BLA BLA BLA BLA BLA BLA BLA BLA BLA BLA BLA BLA BLA BLA BLA BLA BLA BLA 
BLA BLA BLA BLA BLA BLA BLA BLA BLA BLA BLA BLA BLA BLA BLA BLA BLA BLA BLA BLA 
BLA BLA BLA BLA BLA BLA BLA BLA BLA BLA BLA BLA BLA BLA BLA BLA BLA BLA BLA BLA 
BLA BLA BLA BLA BLA BLA BLA BLA BLA BLA BLA BLA BLA BLA BLA BLA BLA BLA BLA BLA 
BLA BLA BLA BLA BLA BLA BLA BLA BLA BLA BLA BLA BLA BLA BLA BLA BLA BLA BLA BLA 
BLA BLA BLA BLA BLA BLA BLA BLA BLA BLA BLA BLA BLA BLA BLA BLA BLA BLA BLA BLA 
BLA BLA BLA BLA BLA BLA BLA BLA BLA BLA BLA BLA BLA BLA BLA BLA BLA BLA BLA BLA 
BLA BLA BLA BLA BLA BLA BLA BLA BLA BLA BLA BLA BLA BLA BLA BLA BLA BLA BLA BLA 
BLA BLA BLA BLA BLA BLA BLA BLA BLA BLA BLA BLA BLA BLA BLA BLA BLA BLA BLA BLA 
BLA BLA BLA BLA BLA BLA BLA BLA BLA BLA BLA BLA BLA BLA BLA BLA BLA BLA BLA BLA 
BLA BLA BLA BLA BLA BLA BLA BLA BLA BLA BLA BLA BLA BLA BLA BLA BLA BLA BLA BLA 
BLA BLA BLA BLA BLA BLA BLA BLA BLA BLA BLA BLA BLA BLA BLA BLA BLA BLA BLA BLA 
BLA BLA BLA BLA BLA BLA BLA BLA BLA BLA BLA BLA BLA BLA BLA BLA BLA BLA BLA BLA 
BLA BLA BLA BLA BLA BLA BLA BLA BLA BLA BLA BLA BLA BLA BLA BLA BLA BLA BLA BLA 
BLA BLA BLA BLA BLA BLA BLA BLA BLA BLA BLA BLA BLA BLA BLA BLA BLA BLA BLA BLA 
BLA BLA BLA BLA BLA BLA BLA BLA BLA BLA BLA BLA BLA BLA BLA BLA BLA BLA BLA BLA 
BLA BLA BLA BLA BLA BLA BLA BLA BLA BLA BLA BLA BLA BLA BLA BLA BLA BLA BLA BLA 
BLA BLA BLA BLA BLA BLA BLA BLA BLA BLA BLA BLA BLA BLA BLA BLA BLA BLA BLA BLA 
BLA BLA BLA BLA BLA BLA BLA BLA BLA BLA BLA BLA BLA BLA BLA BLA BLA BLA BLA BLA 
BLA BLA BLA BLA BLA BLA BLA BLA BLA BLA BLA BLA BLA BLA BLA BLA BLA BLA BLA BLA 
BLA BLA BLA BLA BLA BLA BLA BLA BLA BLA BLA BLA BLA BLA BLA BLA BLA BLA BLA BLA 
BLA BLA BLA BLA BLA BLA BLA BLA BLA BLA BLA BLA BLA BLA BLA BLA BLA BLA BLA BLA 
BLA BLA BLA BLA BLA BLA BLA BLA BLA BLA BLA BLA BLA BLA BLA BLA BLA BLA BLA BLA 
BLA BLA BLA BLA BLA BLA BLA BLA BLA BLA BLA BLA BLA BLA BLA BLA BLA BLA BLA BLA 
BLA BLA BLA BLA BLA BLA BLA BLA BLA BLA BLA BLA BLA BLA BLA BLA BLA BLA BLA BLA 
BLA BLA BLA BLA BLA BLA BLA BLA BLA BLA BLA BLA BLA BLA BLA BLA BLA BLA BLA BLA 
BLA BLA BLA BLA BLA BLA BLA BLA BLA BLA BLA BLA BLA BLA BLA BLA BLA BLA BLA BLA 
BLA BLA BLA BLA BLA BLA BLA BLA BLA BLA BLA BLA BLA BLA BLA BLA BLA BLA BLA BLA 
BLA BLA BLA BLA BLA BLA BLA BLA BLA BLA BLA BLA BLA BLA BLA BLA BLA BLA BLA BLA 
BLA BLA BLA BLA BLA BLA BLA BLA BLA BLA BLA BLA BLA BLA BLA BLA BLA BLA BLA BLA 
BLA BLA BLA BLA BLA BLA BLA BLA BLA BLA BLA BLA BLA BLA BLA BLA BLA BLA BLA BLA 
BLA BLA BLA BLA BLA BLA BLA BLA BLA BLA BLA BLA BLA BLA BLA BLA BLA BLA BLA BLA 
BLA BLA BLA BLA BLA BLA BLA BLA BLA BLA BLA BLA BLA BLA BLA BLA BLA BLA BLA BLA 
BLA BLA BLA BLA BLA BLA BLA BLA BLA BLA BLA BLA BLA BLA BLA BLA BLA BLA BLA BLA 
BLA BLA BLA BLA BLA BLA BLA BLA BLA BLA BLA BLA BLA BLA BLA BLA BLA BLA BLA BLA 
BLA BLA BLA BLA BLA BLA BLA BLA BLA BLA BLA BLA BLA BLA BLA BLA BLA BLA BLA BLA 
BLA BLA BLA BLA BLA BLA BLA BLA BLA BLA BLA BLA BLA BLA BLA BLA BLA BLA BLA BLA 
BLA BLA BLA BLA BLA BLA BLA BLA BLA BLA BLA BLA BLA BLA BLA BLA BLA BLA BLA BLA 
BLA BLA BLA BLA BLA BLA BLA BLA BLA BLA BLA BLA BLA BLA BLA BLA BLA BLA BLA BLA 
BLA BLA BLA BLA BLA BLA BLA BLA BLA BLA BLA BLA BLA BLA BLA BLA BLA BLA BLA BLA 
BLA BLA BLA BLA BLA BLA BLA BLA BLA BLA BLA BLA BLA BLA BLA BLA BLA BLA BLA BLA 
BLA BLA BLA BLA BLA BLA BLA BLA BLA BLA BLA BLA BLA BLA BLA BLA BLA BLA BLA BLA 
BLA BLA BLA BLA BLA BLA BLA BLA BLA BLA BLA BLA BLA BLA BLA BLA BLA BLA BLA BLA 
BLA BLA BLA BLA BLA BLA BLA BLA BLA BLA BLA BLA BLA BLA BLA BLA BLA BLA BLA BLA 
BLA BLA BLA BLA BLA BLA BLA BLA BLA BLA BLA BLA BLA BLA BLA BLA BLA BLA BLA BLA 
BLA BLA BLA BLA BLA BLA BLA BLA BLA BLA BLA BLA BLA BLA BLA BLA BLA BLA BLA BLA 
BLA BLA BLA BLA BLA BLA BLA BLA BLA BLA BLA BLA BLA BLA BLA BLA BLA BLA BLA BLA 
BLA BLA BLA BLA BLA BLA BLA BLA BLA BLA BLA BLA BLA BLA BLA BLA BLA BLA BLA BLA 
BLA BLA BLA BLA BLA BLA BLA BLA BLA BLA BLA BLA BLA BLA BLA BLA BLA BLA BLA BLA 
BLA BLA BLA BLA BLA BLA BLA BLA BLA BLA BLA BLA BLA BLA BLA BLA BLA BLA BLA BLA 
BLA BLA BLA BLA BLA BLA BLA BLA BLA BLA BLA BLA BLA BLA BLA BLA BLA BLA BLA BLA 
BLA BLA BLA BLA BLA BLA BLA BLA BLA BLA BLA BLA BLA BLA BLA BLA BLA BLA BLA BLA 
BLA BLA BLA BLA BLA BLA BLA BLA BLA BLA BLA BLA BLA BLA BLA BLA BLA BLA BLA BLA 
BLA BLA BLA BLA BLA BLA BLA BLA BLA BLA BLA BLA BLA BLA BLA BLA BLA BLA BLA BLA 
BLA BLA BLA BLA BLA BLA BLA BLA BLA BLA BLA BLA BLA BLA BLA BLA BLA BLA BLA BLA 
BLA BLA BLA BLA BLA BLA BLA BLA BLA BLA BLA BLA BLA BLA BLA BLA BLA BLA BLA BLA 
BLA BLA BLA BLA BLA BLA BLA BLA BLA BLA BLA BLA BLA BLA BLA BLA BLA BLA BLA BLA 
BLA BLA BLA BLA BLA BLA BLA BLA BLA BLA BLA BLA BLA BLA BLA BLA BLA BLA BLA BLA 
BLA BLA BLA BLA BLA BLA BLA BLA BLA BLA BLA BLA BLA BLA BLA BLA BLA BLA BLA BLA 
BLA BLA BLA BLA BLA BLA BLA BLA BLA BLA BLA BLA BLA BLA BLA BLA BLA BLA BLA BLA 
BLA BLA BLA BLA BLA BLA BLA BLA BLA BLA BLA BLA BLA BLA BLA BLA BLA BLA BLA BLA 
BLA BLA BLA BLA BLA BLA BLA BLA BLA BLA BLA BLA BLA BLA BLA BLA BLA BLA BLA BLA 
BLA BLA BLA BLA BLA BLA BLA BLA BLA BLA BLA BLA BLA BLA BLA BLA BLA BLA BLA BLA 
BLA BLA BLA BLA BLA BLA BLA BLA BLA BLA BLA BLA BLA BLA BLA BLA BLA BLA BLA BLA 
BLA BLA BLA BLA BLA BLA BLA BLA BLA BLA BLA BLA BLA BLA BLA BLA BLA BLA BLA BLA 
BLA BLA BLA BLA BLA BLA BLA BLA BLA BLA BLA BLA BLA BLA BLA BLA BLA BLA BLA BLA 
BLA BLA BLA BLA BLA BLA BLA BLA BLA BLA BLA BLA BLA BLA BLA BLA BLA BLA BLA BLA 
BLA BLA BLA BLA BLA BLA BLA BLA BLA BLA BLA BLA BLA BLA BLA BLA BLA BLA BLA BLA 
BLA BLA BLA BLA BLA BLA BLA BLA BLA BLA BLA BLA BLA BLA BLA BLA BLA BLA BLA BLA 
BLA BLA BLA BLA BLA BLA BLA BLA BLA BLA BLA BLA BLA BLA BLA BLA BLA BLA BLA BLA 
BLA BLA BLA BLA BLA BLA BLA BLA BLA BLA BLA BLA BLA BLA BLA BLA BLA BLA BLA BLA 
BLA BLA BLA BLA BLA BLA BLA BLA BLA BLA BLA BLA BLA BLA BLA BLA BLA BLA BLA BLA 
BLA BLA BLA BLA BLA BLA BLA BLA BLA BLA BLA BLA BLA BLA BLA BLA BLA BLA BLA BLA 
BLA BLA BLA BLA BLA BLA BLA BLA BLA BLA BLA BLA BLA BLA BLA BLA BLA BLA BLA BLA 
BLA BLA BLA BLA BLA BLA BLA BLA BLA BLA BLA BLA BLA BLA BLA BLA BLA BLA BLA BLA 
BLA BLA BLA BLA BLA BLA BLA BLA BLA BLA BLA BLA BLA BLA BLA BLA BLA BLA BLA BLA 
BLA BLA BLA BLA BLA BLA BLA BLA BLA BLA BLA BLA BLA BLA BLA BLA BLA BLA BLA BLA 
BLA BLA BLA BLA BLA BLA BLA BLA BLA BLA BLA BLA BLA BLA BLA BLA BLA BLA BLA BLA 
BLA BLA BLA BLA BLA BLA BLA BLA BLA BLA BLA BLA BLA BLA BLA BLA BLA BLA BLA BLA 
BLA BLA BLA BLA BLA BLA BLA BLA BLA BLA BLA BLA BLA BLA BLA BLA BLA BLA BLA BLA 
BLA BLA BLA BLA BLA BLA BLA BLA BLA BLA BLA BLA BLA BLA BLA BLA BLA BLA BLA BLA 
BLA BLA BLA BLA BLA BLA BLA BLA BLA BLA BLA BLA BLA BLA BLA BLA BLA BLA BLA BLA 
BLA BLA BLA BLA BLA BLA BLA BLA BLA BLA BLA BLA BLA BLA BLA BLA BLA BLA BLA BLA 
BLA BLA BLA BLA BLA BLA BLA BLA BLA BLA BLA BLA BLA BLA BLA BLA BLA BLA BLA BLA 
BLA BLA BLA BLA BLA BLA BLA BLA BLA BLA BLA BLA BLA BLA BLA BLA BLA BLA BLA BLA 
BLA BLA BLA BLA BLA BLA BLA BLA BLA BLA BLA BLA BLA BLA BLA BLA BLA BLA BLA BLA 
BLA BLA BLA BLA BLA BLA BLA BLA BLA BLA BLA BLA BLA BLA BLA BLA BLA BLA BLA BLA 
BLA BLA BLA BLA BLA BLA BLA BLA BLA BLA BLA BLA BLA BLA BLA BLA BLA BLA BLA BLA 
BLA BLA BLA BLA BLA BLA BLA BLA BLA BLA BLA BLA BLA BLA BLA BLA BLA BLA BLA BLA 
BLA BLA BLA BLA BLA BLA BLA BLA BLA BLA BLA BLA BLA BLA BLA BLA BLA BLA BLA BLA 
BLA BLA BLA BLA BLA BLA BLA BLA BLA BLA BLA BLA BLA BLA BLA BLA BLA BLA BLA BLA 
BLA BLA BLA BLA BLA BLA BLA BLA BLA BLA BLA BLA BLA BLA BLA BLA BLA BLA BLA BLA 
BLA BLA BLA BLA BLA BLA BLA BLA BLA BLA BLA BLA BLA BLA BLA BLA BLA BLA BLA BLA 
BLA BLA BLA BLA BLA BLA BLA BLA BLA BLA BLA BLA BLA BLA BLA BLA BLA BLA BLA BLA 
BLA BLA BLA BLA BLA BLA BLA BLA BLA BLA BLA BLA BLA BLA BLA BLA BLA BLA BLA BLA 
BLA BLA BLA BLA BLA BLA BLA BLA BLA BLA BLA BLA BLA BLA BLA BLA BLA BLA BLA BLA 
BLA BLA BLA BLA BLA BLA BLA BLA BLA BLA BLA BLA BLA BLA BLA BLA BLA BLA BLA BLA 
BLA BLA BLA BLA BLA BLA BLA BLA BLA BLA BLA BLA BLA BLA BLA BLA BLA BLA BLA BLA 
BLA BLA BLA BLA BLA BLA BLA BLA BLA BLA BLA BLA BLA BLA BLA BLA BLA BLA BLA BLA 
BLA BLA BLA BLA BLA BLA BLA BLA BLA BLA BLA BLA BLA BLA BLA BLA BLA BLA BLA BLA 
BLA BLA BLA BLA BLA BLA BLA BLA BLA BLA BLA BLA BLA BLA BLA BLA BLA BLA BLA BLA 
BLA BLA BLA BLA BLA BLA BLA BLA BLA BLA BLA BLA BLA BLA BLA BLA BLA BLA BLA BLA 
BLA BLA BLA BLA BLA BLA BLA BLA BLA BLA BLA BLA BLA BLA BLA BLA BLA BLA BLA BLA 
BLA BLA BLA BLA BLA BLA BLA BLA BLA BLA BLA BLA BLA BLA BLA BLA BLA BLA BLA BLA 
BLA BLA BLA BLA BLA BLA BLA BLA BLA BLA BLA BLA BLA BLA BLA BLA BLA BLA BLA BLA 
BLA BLA BLA BLA BLA BLA BLA BLA BLA BLA BLA BLA BLA BLA BLA BLA BLA BLA BLA BLA 
BLA BLA BLA BLA BLA BLA BLA BLA BLA BLA BLA BLA BLA BLA BLA BLA BLA BLA BLA BLA 
BLA BLA BLA BLA BLA BLA BLA BLA BLA BLA BLA BLA BLA BLA BLA BLA BLA BLA BLA BLA 
BLA BLA BLA BLA BLA BLA BLA BLA BLA BLA BLA BLA BLA BLA BLA BLA BLA BLA BLA BLA 
BLA BLA BLA BLA BLA BLA BLA BLA BLA BLA BLA BLA BLA BLA BLA BLA BLA BLA BLA BLA 
BLA BLA BLA BLA BLA BLA BLA BLA BLA BLA BLA BLA BLA BLA BLA BLA BLA BLA BLA BLA 
BLA BLA BLA BLA BLA BLA BLA BLA BLA BLA BLA BLA BLA BLA BLA BLA BLA BLA BLA BLA 
BLA BLA BLA BLA BLA BLA BLA BLA BLA BLA BLA BLA BLA BLA BLA BLA BLA BLA BLA BLA 
BLA BLA BLA BLA BLA BLA BLA BLA BLA BLA BLA BLA BLA BLA BLA BLA BLA BLA BLA BLA 
BLA BLA BLA BLA BLA BLA BLA BLA BLA BLA BLA BLA BLA BLA BLA BLA BLA BLA BLA BLA 
BLA BLA BLA BLA BLA BLA BLA BLA BLA BLA BLA BLA BLA BLA BLA BLA BLA BLA BLA BLA 
BLA BLA BLA BLA BLA BLA BLA BLA BLA BLA BLA BLA BLA BLA BLA BLA BLA BLA BLA BLA 
BLA BLA BLA BLA BLA BLA BLA BLA BLA BLA BLA BLA BLA BLA BLA BLA BLA BLA BLA BLA 
BLA BLA BLA BLA BLA BLA BLA BLA BLA BLA BLA BLA BLA BLA BLA BLA BLA BLA BLA BLA 
BLA BLA BLA BLA BLA BLA BLA BLA BLA BLA BLA BLA BLA BLA BLA BLA BLA BLA BLA BLA 
BLA BLA BLA BLA BLA BLA BLA BLA BLA BLA BLA BLA BLA BLA BLA BLA BLA BLA BLA BLA 
BLA BLA BLA BLA BLA BLA BLA BLA BLA BLA BLA BLA BLA BLA BLA BLA BLA BLA BLA BLA 
BLA BLA BLA BLA BLA BLA BLA BLA BLA BLA BLA BLA BLA BLA BLA BLA BLA BLA BLA BLA 
BLA BLA BLA BLA BLA BLA BLA BLA BLA BLA BLA BLA BLA BLA BLA BLA BLA BLA BLA BLA 
BLA BLA BLA BLA BLA BLA BLA BLA BLA BLA BLA BLA BLA BLA BLA BLA BLA BLA BLA BLA 
BLA BLA BLA BLA BLA BLA BLA BLA BLA BLA BLA BLA BLA BLA BLA BLA BLA BLA BLA BLA 
BLA BLA BLA BLA BLA BLA BLA BLA BLA BLA BLA BLA BLA BLA BLA BLA BLA BLA BLA BLA 
BLA BLA BLA BLA BLA BLA BLA BLA BLA BLA BLA BLA BLA BLA BLA BLA BLA BLA BLA BLA 
BLA BLA BLA BLA BLA BLA BLA BLA BLA BLA BLA BLA BLA BLA BLA BLA BLA BLA BLA BLA 
BLA BLA BLA BLA BLA BLA BLA BLA BLA BLA BLA BLA BLA BLA BLA BLA BLA BLA BLA BLA 
BLA BLA BLA BLA BLA BLA BLA BLA BLA BLA BLA BLA BLA BLA BLA BLA BLA BLA BLA BLA 
BLA BLA BLA BLA BLA BLA BLA BLA BLA BLA BLA BLA BLA BLA BLA BLA BLA BLA BLA BLA 
BLA BLA BLA BLA BLA BLA BLA BLA BLA BLA BLA BLA BLA BLA BLA BLA BLA BLA BLA BLA 
BLA BLA BLA BLA BLA BLA BLA BLA BLA BLA BLA BLA BLA BLA BLA BLA BLA BLA BLA BLA 
BLA BLA BLA BLA BLA BLA BLA BLA BLA BLA BLA BLA BLA BLA BLA BLA BLA BLA BLA BLA 
BLA BLA BLA BLA BLA BLA BLA BLA BLA BLA BLA BLA BLA BLA BLA BLA BLA BLA BLA BLA 
BLA BLA BLA BLA BLA BLA BLA BLA BLA BLA BLA BLA BLA BLA BLA BLA BLA BLA BLA BLA 
BLA BLA BLA BLA BLA BLA BLA BLA BLA BLA BLA BLA BLA BLA BLA BLA BLA BLA BLA BLA 
BLA BLA BLA BLA BLA BLA BLA BLA BLA BLA BLA BLA BLA BLA BLA BLA BLA BLA BLA BLA 
BLA BLA BLA BLA BLA BLA BLA BLA BLA BLA BLA BLA BLA BLA BLA BLA BLA BLA BLA BLA 
BLA BLA BLA BLA BLA BLA BLA BLA BLA BLA BLA BLA BLA BLA BLA BLA BLA BLA BLA BLA 
BLA BLA BLA BLA BLA BLA BLA BLA BLA BLA BLA BLA BLA BLA BLA BLA BLA BLA BLA BLA 
BLA BLA BLA BLA BLA BLA BLA BLA BLA BLA BLA BLA BLA BLA BLA BLA BLA BLA BLA BLA 
BLA BLA BLA BLA BLA BLA BLA BLA BLA BLA BLA BLA BLA BLA BLA BLA BLA BLA BLA BLA 
BLA BLA BLA BLA BLA BLA BLA BLA BLA BLA BLA BLA BLA BLA BLA BLA BLA BLA BLA BLA 
BLA BLA BLA BLA BLA BLA BLA BLA BLA BLA BLA BLA BLA BLA BLA BLA BLA BLA BLA BLA 
BLA BLA BLA BLA BLA BLA BLA BLA BLA BLA BLA BLA BLA BLA BLA BLA BLA BLA BLA BLA 
BLA BLA BLA BLA BLA BLA BLA BLA BLA BLA BLA BLA BLA BLA BLA BLA BLA BLA BLA BLA 
BLA BLA BLA BLA BLA BLA BLA BLA BLA BLA BLA BLA BLA BLA BLA BLA BLA BLA BLA BLA 
BLA BLA BLA BLA BLA BLA BLA BLA BLA BLA BLA BLA BLA BLA BLA BLA BLA BLA BLA BLA 
BLA BLA BLA BLA BLA BLA BLA BLA BLA BLA BLA BLA BLA BLA BLA BLA BLA BLA BLA BLA 
BLA BLA BLA BLA BLA BLA BLA BLA BLA BLA BLA BLA BLA BLA BLA BLA BLA BLA BLA BLA 
BLA BLA BLA BLA BLA BLA BLA BLA BLA BLA BLA BLA BLA BLA BLA BLA BLA BLA BLA BLA 
BLA BLA BLA BLA BLA BLA BLA BLA BLA BLA BLA BLA BLA BLA BLA BLA BLA BLA BLA BLA 
BLA BLA BLA BLA BLA BLA BLA BLA BLA BLA BLA BLA BLA BLA BLA BLA BLA BLA BLA BLA 
BLA BLA BLA BLA BLA BLA BLA BLA BLA BLA BLA BLA BLA BLA BLA BLA BLA BLA BLA BLA 
BLA BLA BLA BLA BLA BLA BLA BLA BLA BLA BLA BLA BLA BLA BLA BLA BLA BLA BLA BLA 
BLA BLA BLA BLA BLA BLA BLA BLA BLA BLA BLA BLA BLA BLA BLA BLA BLA BLA BLA BLA 
BLA BLA BLA BLA BLA BLA BLA BLA BLA BLA BLA BLA BLA BLA BLA BLA BLA BLA BLA BLA 
BLA BLA BLA BLA BLA BLA BLA BLA BLA BLA BLA BLA BLA BLA BLA BLA BLA BLA BLA BLA 
BLA BLA BLA BLA BLA BLA BLA BLA BLA BLA BLA BLA BLA BLA BLA BLA BLA BLA BLA BLA 
BLA BLA BLA BLA BLA BLA BLA BLA BLA BLA BLA BLA BLA BLA BLA BLA BLA BLA BLA BLA 
BLA BLA BLA BLA BLA BLA BLA BLA BLA BLA BLA BLA BLA BLA BLA BLA BLA BLA BLA BLA 
BLA BLA BLA BLA BLA BLA BLA BLA BLA BLA BLA BLA BLA BLA BLA BLA BLA BLA BLA BLA 
BLA BLA BLA BLA BLA BLA BLA BLA BLA BLA BLA BLA BLA BLA BLA BLA BLA BLA BLA BLA 
BLA BLA BLA BLA BLA BLA BLA BLA BLA BLA BLA BLA BLA BLA BLA BLA BLA BLA BLA BLA 
BLA BLA BLA BLA BLA BLA BLA BLA BLA BLA BLA BLA BLA BLA BLA BLA BLA BLA BLA BLA 
BLA BLA BLA BLA BLA BLA BLA BLA BLA BLA BLA BLA BLA BLA BLA BLA BLA BLA BLA BLA 
BLA BLA BLA BLA BLA BLA BLA BLA BLA BLA BLA BLA BLA BLA BLA BLA BLA BLA BLA BLA 
BLA BLA BLA BLA BLA BLA BLA BLA BLA BLA BLA BLA BLA BLA BLA BLA BLA BLA BLA BLA 
BLA BLA BLA BLA BLA BLA BLA BLA BLA BLA BLA BLA BLA BLA BLA BLA BLA BLA BLA BLA 
BLA BLA BLA BLA BLA BLA BLA BLA BLA BLA BLA BLA BLA BLA BLA BLA BLA BLA BLA BLA 
BLA BLA BLA BLA BLA BLA BLA BLA BLA BLA BLA BLA BLA BLA BLA BLA BLA BLA BLA BLA 
BLA BLA BLA BLA BLA BLA BLA BLA BLA BLA BLA BLA BLA BLA BLA BLA BLA BLA BLA BLA 
BLA BLA BLA BLA BLA BLA BLA BLA BLA BLA BLA BLA BLA BLA BLA BLA BLA BLA BLA BLA 
BLA BLA BLA BLA BLA BLA BLA BLA BLA BLA BLA BLA BLA BLA BLA BLA BLA BLA BLA BLA 
BLA BLA BLA BLA BLA BLA BLA BLA BLA BLA BLA BLA BLA BLA BLA BLA BLA BLA BLA BLA 
BLA BLA BLA BLA BLA BLA BLA BLA BLA BLA BLA BLA BLA BLA BLA BLA BLA BLA BLA BLA 
BLA BLA BLA BLA BLA BLA BLA BLA BLA BLA BLA BLA BLA BLA BLA BLA BLA BLA BLA BLA 
BLA BLA BLA BLA BLA BLA BLA BLA BLA BLA BLA BLA BLA BLA BLA BLA BLA BLA BLA BLA 
BLA BLA BLA BLA BLA BLA BLA BLA BLA BLA BLA BLA BLA BLA BLA BLA BLA BLA BLA BLA 
BLA BLA BLA BLA BLA BLA BLA BLA BLA BLA BLA BLA BLA BLA BLA BLA BLA BLA BLA BLA 
BLA BLA BLA BLA BLA BLA BLA BLA BLA BLA BLA BLA BLA BLA BLA BLA BLA BLA BLA BLA 
BLA BLA BLA BLA BLA BLA BLA BLA BLA BLA BLA BLA BLA BLA BLA BLA BLA BLA BLA BLA 
BLA BLA BLA BLA BLA BLA BLA BLA BLA BLA BLA BLA BLA BLA BLA BLA BLA BLA BLA BLA 
BLA BLA BLA BLA BLA BLA BLA BLA BLA BLA BLA BLA BLA BLA BLA BLA BLA BLA BLA BLA 
BLA BLA BLA BLA BLA BLA BLA BLA BLA BLA BLA BLA BLA BLA BLA BLA BLA BLA BLA BLA 
BLA BLA BLA BLA BLA BLA BLA BLA BLA BLA BLA BLA BLA BLA BLA BLA BLA BLA BLA BLA 
BLA BLA BLA BLA BLA BLA BLA BLA BLA BLA BLA BLA BLA BLA BLA BLA BLA BLA BLA BLA 
BLA BLA BLA BLA BLA BLA BLA BLA BLA BLA BLA BLA BLA BLA BLA BLA BLA BLA BLA BLA 
BLA BLA BLA BLA BLA BLA BLA BLA BLA BLA BLA BLA BLA BLA BLA BLA BLA BLA BLA BLA 
BLA BLA BLA BLA BLA BLA BLA BLA BLA BLA BLA BLA BLA BLA BLA BLA BLA BLA BLA BLA 
BLA BLA BLA BLA BLA BLA BLA BLA BLA BLA BLA BLA BLA BLA BLA BLA BLA BLA BLA BLA 
BLA BLA BLA BLA BLA BLA BLA BLA BLA BLA BLA BLA BLA BLA BLA BLA BLA BLA BLA BLA 
BLA BLA BLA BLA BLA BLA BLA BLA BLA BLA BLA BLA BLA BLA BLA BLA BLA BLA BLA BLA 
BLA BLA BLA BLA BLA BLA BLA BLA BLA BLA BLA BLA BLA BLA BLA BLA BLA BLA BLA BLA 
BLA BLA BLA BLA BLA BLA BLA BLA BLA BLA BLA BLA BLA BLA BLA BLA BLA BLA BLA BLA 
BLA BLA BLA BLA BLA BLA BLA BLA BLA BLA BLA BLA BLA BLA BLA BLA BLA BLA BLA BLA 
BLA BLA BLA BLA BLA BLA BLA BLA BLA BLA BLA BLA BLA BLA BLA BLA BLA BLA BLA BLA 
BLA BLA BLA BLA BLA BLA BLA BLA BLA BLA BLA BLA BLA BLA BLA BLA BLA BLA BLA BLA 
BLA BLA BLA BLA BLA BLA BLA BLA BLA BLA BLA BLA BLA BLA BLA BLA BLA BLA BLA BLA 
BLA BLA BLA BLA BLA BLA BLA BLA BLA BLA BLA BLA BLA BLA BLA BLA BLA BLA BLA BLA 
BLA BLA BLA BLA BLA BLA BLA BLA BLA BLA BLA BLA BLA BLA BLA BLA BLA BLA BLA BLA 
BLA BLA BLA BLA BLA BLA BLA BLA BLA BLA BLA BLA BLA BLA BLA BLA BLA BLA BLA BLA 
BLA BLA BLA BLA BLA BLA BLA BLA BLA BLA BLA BLA BLA BLA BLA BLA BLA BLA BLA BLA 
BLA BLA BLA BLA BLA BLA BLA BLA BLA BLA BLA BLA BLA BLA BLA BLA BLA BLA BLA BLA 
BLA BLA BLA BLA BLA BLA BLA BLA BLA BLA BLA BLA BLA BLA BLA BLA BLA BLA BLA BLA 
BLA BLA BLA BLA BLA BLA BLA BLA BLA BLA BLA BLA BLA BLA BLA BLA BLA BLA BLA BLA 
BLA BLA BLA BLA BLA BLA BLA BLA BLA BLA BLA BLA BLA BLA BLA BLA BLA BLA BLA BLA 
BLA BLA BLA BLA BLA BLA BLA BLA BLA BLA BLA BLA BLA BLA BLA BLA BLA BLA BLA BLA 
BLA BLA BLA BLA BLA BLA BLA BLA BLA BLA BLA BLA BLA BLA BLA BLA BLA BLA BLA BLA 
BLA BLA BLA BLA BLA BLA BLA BLA BLA BLA BLA BLA BLA BLA BLA BLA BLA BLA BLA BLA 
BLA BLA BLA BLA BLA BLA BLA BLA BLA BLA BLA BLA BLA BLA BLA BLA BLA BLA BLA BLA 
BLA BLA BLA BLA BLA BLA BLA BLA BLA BLA BLA BLA BLA BLA BLA BLA BLA BLA BLA BLA 
BLA BLA BLA BLA BLA BLA BLA BLA BLA BLA BLA BLA BLA BLA BLA BLA BLA BLA BLA BLA 
BLA BLA BLA BLA BLA BLA BLA BLA BLA BLA BLA BLA BLA BLA BLA BLA BLA BLA BLA BLA 
BLA BLA BLA BLA BLA BLA BLA BLA BLA BLA BLA BLA BLA BLA BLA BLA BLA BLA BLA BLA 
BLA BLA BLA BLA BLA BLA BLA BLA BLA BLA BLA BLA BLA BLA BLA BLA BLA BLA BLA BLA 
BLA BLA BLA BLA BLA BLA BLA BLA BLA BLA BLA BLA BLA BLA BLA BLA BLA BLA BLA BLA 
BLA BLA BLA BLA BLA BLA BLA BLA BLA BLA BLA BLA BLA BLA BLA BLA BLA BLA BLA BLA 
BLA BLA BLA BLA BLA BLA BLA BLA BLA BLA BLA BLA BLA BLA BLA BLA BLA BLA BLA BLA 
BLA BLA BLA BLA BLA BLA BLA BLA BLA BLA BLA BLA BLA BLA BLA BLA BLA BLA BLA BLA 
BLA BLA BLA BLA BLA BLA BLA BLA BLA BLA BLA BLA BLA BLA BLA BLA BLA BLA BLA BLA 
BLA BLA BLA BLA BLA BLA BLA BLA BLA BLA BLA BLA BLA BLA BLA BLA BLA BLA BLA BLA 
BLA BLA BLA BLA BLA BLA BLA BLA BLA BLA BLA BLA BLA BLA BLA BLA BLA BLA BLA BLA 
BLA BLA BLA BLA BLA BLA BLA BLA BLA BLA BLA BLA BLA BLA BLA BLA BLA BLA BLA BLA 
BLA BLA BLA BLA BLA BLA BLA BLA BLA BLA BLA BLA BLA BLA BLA BLA BLA BLA BLA BLA 
BLA BLA BLA BLA BLA BLA BLA BLA BLA BLA BLA BLA BLA BLA BLA BLA BLA BLA BLA BLA 
BLA BLA BLA BLA BLA BLA BLA BLA BLA BLA BLA BLA BLA BLA BLA BLA BLA BLA BLA BLA 
BLA BLA BLA BLA BLA BLA BLA BLA BLA BLA BLA BLA BLA BLA BLA BLA BLA BLA BLA BLA 
BLA BLA BLA BLA BLA BLA BLA BLA BLA BLA BLA BLA BLA BLA BLA BLA BLA BLA BLA BLA 
BLA BLA BLA BLA BLA BLA BLA BLA BLA BLA BLA BLA BLA BLA BLA BLA BLA BLA BLA BLA 
BLA BLA BLA BLA BLA BLA BLA BLA BLA BLA BLA BLA BLA BLA BLA BLA BLA BLA BLA BLA 
BLA BLA BLA BLA BLA BLA BLA BLA BLA BLA BLA BLA BLA BLA BLA BLA BLA BLA BLA BLA 
BLA BLA BLA BLA BLA BLA BLA BLA BLA BLA BLA BLA BLA BLA BLA BLA BLA BLA BLA BLA 
BLA BLA BLA BLA BLA BLA BLA BLA BLA BLA BLA BLA BLA BLA BLA BLA BLA BLA BLA BLA 
BLA BLA BLA BLA BLA BLA BLA BLA BLA BLA BLA BLA BLA BLA BLA BLA BLA BLA BLA BLA 
BLA BLA BLA BLA BLA BLA BLA BLA BLA BLA BLA BLA BLA BLA BLA BLA BLA BLA BLA BLA 
BLA BLA BLA BLA BLA BLA BLA BLA BLA BLA BLA BLA BLA BLA BLA BLA BLA BLA BLA BLA 
BLA BLA BLA BLA BLA BLA BLA BLA BLA BLA BLA BLA BLA BLA BLA BLA BLA BLA BLA BLA 
BLA BLA BLA BLA BLA BLA BLA BLA BLA BLA BLA BLA BLA BLA BLA BLA BLA BLA BLA BLA 
BLA BLA BLA BLA BLA BLA BLA BLA BLA BLA BLA BLA BLA BLA BLA BLA BLA BLA BLA BLA 
BLA BLA BLA BLA BLA BLA BLA BLA BLA BLA BLA BLA BLA BLA BLA BLA BLA BLA BLA BLA 
BLA BLA BLA BLA BLA BLA BLA BLA BLA BLA BLA BLA BLA BLA BLA BLA BLA BLA BLA BLA 
BLA BLA BLA BLA BLA BLA BLA BLA BLA BLA BLA BLA BLA BLA BLA BLA BLA BLA BLA BLA 
BLA BLA BLA BLA BLA BLA BLA BLA BLA BLA BLA BLA BLA BLA BLA BLA BLA BLA BLA BLA 
BLA BLA BLA BLA BLA BLA BLA BLA BLA BLA BLA BLA BLA BLA BLA BLA BLA BLA BLA BLA 
BLA BLA BLA BLA BLA BLA BLA BLA BLA BLA BLA BLA BLA BLA BLA BLA BLA BLA BLA BLA 
BLA BLA BLA BLA BLA BLA BLA BLA BLA BLA BLA BLA BLA BLA BLA BLA BLA BLA BLA BLA 
BLA BLA BLA BLA BLA BLA BLA BLA BLA BLA BLA BLA BLA BLA BLA BLA BLA BLA BLA BLA 
BLA BLA BLA BLA BLA BLA BLA BLA BLA BLA BLA BLA BLA BLA BLA BLA BLA BLA BLA BLA 
BLA BLA BLA BLA BLA BLA BLA BLA BLA BLA BLA BLA BLA BLA BLA BLA BLA BLA BLA BLA 
BLA BLA BLA BLA BLA BLA BLA BLA BLA BLA BLA BLA BLA BLA BLA BLA BLA BLA BLA BLA 
BLA BLA BLA BLA BLA BLA BLA BLA BLA BLA BLA BLA BLA BLA BLA BLA BLA BLA BLA BLA 
BLA BLA BLA BLA BLA BLA BLA BLA BLA BLA BLA BLA BLA BLA BLA BLA BLA BLA BLA BLA 
BLA BLA BLA BLA BLA BLA BLA BLA BLA BLA BLA BLA BLA BLA BLA BLA BLA BLA BLA BLA 
BLA BLA BLA BLA BLA BLA BLA BLA BLA BLA BLA BLA BLA BLA BLA BLA BLA BLA BLA BLA 
BLA BLA BLA BLA BLA BLA BLA BLA BLA BLA BLA BLA BLA BLA BLA BLA BLA BLA BLA BLA 
BLA BLA BLA BLA BLA BLA BLA BLA BLA BLA BLA BLA BLA BLA BLA BLA BLA BLA BLA BLA 
BLA BLA BLA BLA BLA BLA BLA BLA BLA BLA BLA BLA BLA BLA BLA BLA BLA BLA BLA BLA 
BLA BLA BLA BLA BLA BLA BLA BLA BLA BLA BLA BLA BLA BLA BLA BLA BLA BLA BLA BLA 
BLA BLA BLA BLA BLA BLA BLA BLA BLA BLA BLA BLA BLA BLA BLA BLA BLA BLA BLA BLA 
BLA BLA BLA BLA BLA BLA BLA BLA BLA BLA BLA BLA BLA BLA BLA BLA BLA BLA BLA BLA 
BLA BLA BLA BLA BLA BLA BLA BLA BLA BLA BLA BLA BLA BLA BLA BLA BLA BLA BLA BLA 
BLA BLA BLA BLA BLA BLA BLA BLA BLA BLA BLA BLA BLA BLA BLA BLA BLA BLA BLA BLA 
BLA BLA BLA BLA BLA BLA BLA BLA BLA BLA BLA BLA BLA BLA BLA BLA BLA BLA BLA BLA 
BLA BLA BLA BLA BLA BLA BLA BLA BLA BLA BLA BLA BLA BLA BLA BLA BLA BLA BLA BLA 
BLA BLA BLA BLA BLA BLA BLA BLA BLA BLA BLA BLA BLA BLA BLA BLA BLA BLA BLA BLA 
BLA BLA BLA BLA BLA BLA BLA BLA BLA BLA BLA BLA BLA BLA BLA BLA BLA BLA BLA BLA 
BLA BLA BLA BLA BLA BLA BLA BLA BLA BLA BLA BLA BLA BLA BLA BLA BLA BLA BLA BLA 
BLA BLA BLA BLA BLA BLA BLA BLA BLA BLA BLA BLA BLA BLA BLA BLA BLA BLA BLA BLA 
BLA BLA BLA BLA BLA BLA BLA BLA BLA BLA BLA BLA BLA BLA BLA BLA BLA BLA BLA BLA 
BLA BLA BLA BLA BLA BLA BLA BLA BLA BLA BLA BLA BLA BLA BLA BLA BLA BLA BLA BLA 
BLA BLA BLA BLA BLA BLA BLA BLA BLA BLA BLA BLA BLA BLA BLA BLA BLA BLA BLA BLA 
BLA BLA BLA BLA BLA BLA BLA BLA BLA BLA BLA BLA BLA BLA BLA BLA BLA BLA BLA BLA 
BLA BLA BLA BLA BLA BLA BLA BLA BLA BLA BLA BLA BLA BLA BLA BLA BLA BLA BLA BLA 
BLA BLA BLA BLA BLA BLA BLA BLA BLA BLA BLA BLA BLA BLA BLA BLA BLA BLA BLA BLA 
BLA BLA BLA BLA BLA BLA BLA BLA BLA BLA BLA BLA BLA BLA BLA BLA BLA BLA BLA BLA 
BLA BLA BLA BLA BLA BLA BLA BLA BLA BLA BLA BLA BLA BLA BLA BLA BLA BLA BLA BLA 
BLA BLA BLA BLA BLA BLA BLA BLA BLA BLA BLA BLA BLA BLA BLA BLA BLA BLA BLA BLA 
BLA BLA BLA BLA BLA BLA BLA BLA BLA BLA BLA BLA BLA BLA BLA BLA BLA BLA BLA BLA 
BLA BLA BLA BLA BLA BLA BLA BLA BLA BLA BLA BLA BLA BLA BLA BLA BLA BLA BLA BLA 
BLA BLA BLA BLA BLA BLA BLA BLA BLA BLA BLA BLA BLA BLA BLA BLA BLA BLA BLA BLA 
BLA BLA BLA BLA BLA BLA BLA BLA BLA BLA BLA BLA BLA BLA BLA BLA BLA BLA BLA BLA 
BLA BLA BLA BLA BLA BLA BLA BLA BLA BLA BLA BLA BLA BLA BLA BLA BLA BLA BLA BLA 
BLA BLA BLA BLA BLA BLA BLA BLA BLA BLA BLA BLA BLA BLA BLA BLA BLA BLA BLA BLA 
BLA BLA BLA BLA BLA BLA BLA BLA BLA BLA BLA BLA BLA BLA BLA BLA BLA BLA BLA BLA 
BLA BLA BLA BLA BLA BLA BLA BLA BLA BLA BLA BLA BLA BLA BLA BLA BLA BLA BLA BLA 
BLA BLA BLA BLA BLA BLA BLA BLA BLA BLA BLA BLA BLA BLA BLA BLA BLA BLA BLA BLA 
BLA BLA BLA BLA BLA BLA BLA BLA BLA BLA BLA BLA BLA BLA BLA BLA BLA BLA BLA BLA 
BLA BLA BLA BLA BLA BLA BLA BLA BLA BLA BLA BLA BLA BLA BLA BLA BLA BLA BLA BLA 
BLA BLA BLA BLA BLA BLA BLA BLA BLA BLA BLA BLA BLA BLA BLA BLA BLA BLA BLA BLA 
BLA BLA BLA BLA BLA BLA BLA BLA BLA BLA BLA BLA BLA BLA BLA BLA BLA BLA BLA BLA 
BLA BLA BLA BLA BLA BLA BLA BLA BLA BLA BLA BLA BLA BLA BLA BLA BLA BLA BLA BLA 
BLA BLA BLA BLA BLA BLA BLA BLA BLA BLA BLA BLA BLA BLA BLA BLA BLA BLA BLA BLA 
BLA BLA BLA BLA BLA BLA BLA BLA BLA BLA BLA BLA BLA BLA BLA BLA BLA BLA BLA BLA 
BLA BLA BLA BLA BLA BLA BLA BLA BLA BLA BLA BLA BLA BLA BLA BLA BLA BLA BLA BLA 
BLA BLA BLA BLA BLA BLA BLA BLA BLA BLA BLA BLA BLA BLA BLA BLA BLA BLA BLA BLA 
BLA BLA BLA BLA BLA BLA BLA BLA BLA BLA BLA BLA BLA BLA BLA BLA BLA BLA BLA BLA 
BLA BLA BLA BLA BLA BLA BLA BLA BLA BLA BLA BLA BLA BLA BLA BLA BLA BLA BLA BLA 
BLA BLA BLA BLA BLA BLA BLA BLA BLA BLA BLA BLA BLA BLA BLA BLA BLA BLA BLA BLA 
BLA BLA BLA BLA BLA BLA BLA BLA BLA BLA BLA BLA BLA BLA BLA BLA BLA BLA BLA BLA 
BLA BLA BLA BLA BLA BLA BLA BLA BLA BLA BLA BLA BLA BLA BLA BLA BLA BLA BLA BLA 
BLA BLA BLA BLA BLA BLA BLA BLA BLA BLA BLA BLA BLA BLA BLA BLA BLA BLA BLA BLA 
BLA BLA BLA BLA BLA BLA BLA BLA BLA BLA BLA BLA BLA BLA BLA BLA BLA BLA BLA BLA 
BLA BLA BLA BLA BLA BLA BLA BLA BLA BLA BLA BLA BLA BLA BLA BLA BLA BLA BLA BLA 
BLA BLA BLA BLA BLA BLA BLA BLA BLA BLA BLA BLA BLA BLA BLA BLA BLA BLA BLA BLA 
BLA BLA BLA BLA BLA BLA BLA BLA BLA BLA BLA BLA BLA BLA BLA BLA BLA BLA BLA BLA 
BLA BLA BLA BLA BLA BLA BLA BLA BLA BLA BLA BLA BLA BLA BLA BLA BLA BLA BLA BLA 
BLA BLA BLA BLA BLA BLA BLA BLA BLA BLA BLA BLA BLA BLA BLA BLA BLA BLA BLA BLA 
BLA BLA BLA BLA BLA BLA BLA BLA BLA BLA BLA BLA BLA BLA BLA BLA BLA BLA BLA BLA 
BLA BLA BLA BLA BLA BLA BLA BLA BLA BLA BLA BLA BLA BLA BLA BLA BLA BLA BLA BLA 
BLA BLA BLA BLA BLA BLA BLA BLA BLA BLA BLA BLA BLA BLA BLA BLA BLA BLA BLA BLA 
BLA BLA BLA BLA BLA BLA BLA BLA BLA BLA BLA BLA BLA BLA BLA BLA BLA BLA BLA BLA 
BLA BLA BLA BLA BLA BLA BLA BLA BLA BLA BLA BLA BLA BLA BLA BLA BLA BLA BLA BLA 
BLA BLA BLA BLA BLA BLA BLA BLA BLA BLA BLA BLA BLA BLA BLA BLA BLA BLA BLA BLA 
BLA BLA BLA BLA BLA BLA BLA BLA BLA BLA BLA BLA BLA BLA BLA BLA BLA BLA BLA BLA 
BLA BLA BLA BLA BLA BLA BLA BLA BLA BLA BLA BLA BLA BLA BLA BLA BLA BLA BLA BLA 
BLA BLA BLA BLA BLA BLA BLA BLA BLA BLA BLA BLA BLA BLA BLA BLA BLA BLA BLA BLA 
BLA BLA BLA BLA BLA BLA BLA BLA BLA BLA BLA BLA BLA BLA BLA BLA BLA BLA BLA BLA 
BLA BLA BLA BLA BLA BLA BLA BLA BLA BLA BLA BLA BLA BLA BLA BLA BLA BLA BLA BLA 
BLA BLA BLA BLA BLA BLA BLA BLA BLA BLA BLA BLA BLA BLA BLA BLA BLA BLA BLA BLA 
BLA BLA BLA BLA BLA BLA BLA BLA BLA BLA BLA BLA BLA BLA BLA BLA BLA BLA BLA BLA 
BLA BLA BLA BLA BLA BLA BLA BLA BLA BLA BLA BLA BLA BLA BLA BLA BLA BLA BLA BLA 
BLA BLA BLA BLA BLA BLA BLA BLA BLA BLA BLA BLA BLA BLA BLA BLA BLA BLA BLA BLA 
BLA BLA BLA BLA BLA BLA BLA BLA BLA BLA BLA BLA BLA BLA BLA BLA BLA BLA BLA BLA 
BLA BLA BLA BLA BLA BLA BLA BLA BLA BLA BLA BLA BLA BLA BLA BLA BLA BLA BLA BLA 
BLA BLA BLA BLA BLA BLA BLA BLA BLA BLA BLA BLA BLA BLA BLA BLA BLA BLA BLA BLA 
BLA BLA BLA BLA BLA BLA BLA BLA BLA BLA BLA BLA BLA BLA BLA BLA BLA BLA BLA BLA 
BLA BLA BLA BLA BLA BLA BLA BLA BLA BLA BLA BLA BLA BLA BLA BLA BLA BLA BLA BLA 
BLA BLA BLA BLA BLA BLA BLA BLA BLA BLA BLA BLA BLA BLA BLA BLA BLA BLA BLA BLA 
BLA BLA BLA BLA BLA BLA BLA BLA BLA BLA BLA BLA BLA BLA BLA BLA BLA BLA BLA BLA 
BLA BLA BLA BLA BLA BLA BLA BLA BLA BLA BLA BLA BLA BLA BLA BLA BLA BLA BLA BLA 
BLA BLA BLA BLA BLA BLA BLA BLA BLA BLA BLA BLA BLA BLA BLA BLA BLA BLA BLA BLA 
BLA BLA BLA BLA BLA BLA BLA BLA BLA BLA BLA BLA BLA BLA BLA BLA BLA BLA BLA BLA 
BLA BLA BLA BLA BLA BLA BLA BLA BLA BLA BLA BLA BLA BLA BLA BLA BLA BLA BLA BLA 
BLA BLA BLA BLA BLA BLA BLA BLA BLA BLA BLA BLA BLA BLA BLA BLA BLA BLA BLA BLA 
BLA BLA BLA BLA BLA BLA BLA BLA BLA BLA BLA BLA BLA BLA BLA BLA BLA BLA BLA BLA 
BLA BLA BLA BLA BLA BLA BLA BLA BLA BLA BLA BLA BLA BLA BLA BLA BLA BLA BLA BLA 
BLA BLA BLA BLA BLA BLA BLA BLA BLA BLA BLA BLA BLA BLA BLA BLA BLA BLA BLA BLA 
BLA BLA BLA BLA BLA BLA BLA BLA BLA BLA BLA BLA BLA BLA BLA BLA BLA BLA BLA BLA 
BLA BLA BLA BLA BLA BLA BLA BLA BLA BLA BLA BLA BLA BLA BLA BLA BLA BLA BLA BLA 
BLA BLA BLA BLA BLA BLA BLA BLA BLA BLA BLA BLA BLA BLA BLA BLA BLA BLA BLA BLA 
BLA BLA BLA BLA BLA BLA BLA BLA BLA BLA BLA BLA BLA BLA BLA BLA BLA BLA BLA BLA 
BLA BLA BLA BLA BLA BLA BLA BLA BLA BLA BLA BLA BLA BLA BLA BLA BLA BLA BLA BLA 
BLA BLA BLA BLA BLA BLA BLA BLA BLA BLA BLA BLA BLA BLA BLA BLA BLA BLA BLA BLA 
BLA BLA BLA BLA BLA BLA BLA BLA BLA BLA BLA BLA BLA BLA BLA BLA BLA BLA BLA BLA 
BLA BLA BLA BLA BLA BLA BLA BLA BLA BLA BLA BLA BLA BLA BLA BLA BLA BLA BLA BLA 
BLA BLA BLA BLA BLA BLA BLA BLA BLA BLA BLA BLA BLA BLA BLA BLA BLA BLA BLA BLA 
BLA BLA BLA BLA BLA BLA BLA BLA BLA BLA BLA BLA BLA BLA BLA BLA BLA BLA BLA BLA 
BLA BLA BLA BLA BLA BLA BLA BLA BLA BLA BLA BLA BLA BLA BLA BLA BLA BLA BLA BLA 
BLA BLA BLA BLA BLA BLA BLA BLA BLA BLA BLA BLA BLA BLA BLA BLA BLA BLA BLA BLA 
BLA BLA BLA BLA BLA BLA BLA BLA BLA BLA BLA BLA BLA BLA BLA BLA BLA BLA BLA BLA 
BLA BLA BLA BLA BLA BLA BLA BLA BLA BLA BLA BLA BLA BLA BLA BLA BLA BLA BLA BLA 
BLA BLA BLA BLA BLA BLA BLA BLA BLA BLA BLA BLA BLA BLA BLA BLA BLA BLA BLA BLA 
BLA BLA BLA BLA BLA BLA BLA BLA BLA BLA BLA BLA BLA BLA BLA BLA BLA BLA BLA BLA 
BLA BLA BLA BLA BLA BLA BLA BLA BLA BLA BLA BLA BLA BLA BLA BLA BLA BLA BLA BLA 
BLA BLA BLA BLA BLA BLA BLA BLA BLA BLA BLA BLA BLA BLA BLA BLA BLA BLA BLA BLA 
BLA BLA BLA BLA BLA BLA BLA BLA BLA BLA BLA BLA BLA BLA BLA BLA BLA BLA BLA BLA 
BLA BLA BLA BLA BLA BLA BLA BLA BLA BLA BLA BLA BLA BLA BLA BLA BLA BLA BLA BLA 
BLA BLA BLA BLA BLA BLA BLA BLA BLA BLA BLA BLA BLA BLA BLA BLA BLA BLA BLA BLA 
BLA BLA BLA BLA BLA BLA BLA BLA BLA BLA BLA BLA BLA BLA BLA BLA BLA BLA BLA BLA 
BLA BLA BLA BLA BLA BLA BLA BLA BLA BLA BLA BLA BLA BLA BLA BLA BLA BLA BLA BLA 
BLA BLA BLA BLA BLA BLA BLA BLA BLA BLA BLA BLA BLA BLA BLA BLA BLA BLA BLA BLA 
BLA BLA BLA BLA BLA BLA BLA BLA BLA BLA BLA BLA BLA BLA BLA BLA BLA BLA BLA BLA 
BLA BLA BLA BLA BLA BLA BLA BLA BLA BLA BLA BLA BLA BLA BLA BLA BLA BLA BLA BLA 
BLA BLA BLA BLA BLA BLA BLA BLA BLA BLA BLA BLA BLA BLA BLA BLA BLA BLA BLA BLA 
BLA BLA BLA BLA BLA BLA BLA BLA BLA BLA BLA BLA BLA BLA BLA BLA BLA BLA BLA BLA 
BLA BLA BLA BLA BLA BLA BLA BLA BLA BLA BLA BLA BLA BLA BLA BLA BLA BLA BLA BLA 
BLA BLA BLA BLA BLA BLA BLA BLA BLA BLA BLA BLA BLA BLA BLA BLA BLA BLA BLA BLA 
BLA BLA BLA BLA BLA BLA BLA BLA BLA BLA BLA BLA BLA BLA BLA BLA BLA BLA BLA BLA 
BLA BLA BLA BLA BLA BLA BLA BLA BLA BLA BLA BLA BLA BLA BLA BLA BLA BLA BLA BLA 
BLA BLA BLA BLA BLA BLA BLA BLA BLA BLA BLA BLA BLA BLA BLA BLA BLA BLA BLA BLA 
BLA BLA BLA BLA BLA BLA BLA BLA BLA BLA BLA BLA BLA BLA BLA BLA BLA BLA BLA BLA 
BLA BLA BLA BLA BLA BLA BLA BLA BLA BLA BLA BLA BLA BLA BLA BLA BLA BLA BLA BLA 
BLA BLA BLA BLA BLA BLA BLA BLA BLA BLA BLA BLA BLA BLA BLA BLA BLA BLA BLA BLA 
BLA BLA BLA BLA BLA BLA BLA BLA BLA BLA BLA BLA BLA BLA BLA BLA BLA BLA BLA BLA 
BLA BLA BLA BLA BLA BLA BLA BLA BLA BLA BLA BLA BLA BLA BLA BLA BLA BLA BLA BLA 
BLA BLA BLA BLA BLA BLA BLA BLA BLA BLA BLA BLA BLA BLA BLA BLA BLA BLA BLA BLA 
BLA BLA BLA BLA BLA BLA BLA BLA BLA BLA BLA BLA BLA BLA BLA BLA BLA BLA BLA BLA 
BLA BLA BLA BLA BLA BLA BLA BLA BLA BLA BLA BLA BLA BLA BLA BLA BLA BLA BLA BLA 
BLA BLA BLA BLA BLA BLA BLA BLA BLA BLA BLA BLA BLA BLA BLA BLA BLA BLA BLA BLA 
BLA BLA BLA BLA BLA BLA BLA BLA BLA BLA BLA BLA BLA BLA BLA BLA BLA BLA BLA BLA 
BLA BLA BLA BLA BLA BLA BLA BLA BLA BLA BLA BLA BLA BLA BLA BLA BLA BLA BLA BLA 
BLA BLA BLA BLA BLA BLA BLA BLA BLA BLA BLA BLA BLA BLA BLA BLA BLA BLA BLA BLA 
BLA BLA BLA BLA BLA BLA BLA BLA BLA BLA BLA BLA BLA BLA BLA BLA BLA BLA BLA BLA 
BLA BLA BLA BLA BLA BLA BLA BLA BLA BLA BLA BLA BLA BLA BLA BLA BLA BLA BLA BLA 
BLA BLA BLA BLA BLA BLA BLA BLA BLA BLA BLA BLA BLA BLA BLA BLA BLA BLA BLA BLA 
BLA BLA BLA BLA BLA BLA BLA BLA BLA BLA BLA BLA BLA BLA BLA BLA BLA BLA BLA BLA 
BLA BLA BLA BLA BLA BLA BLA BLA BLA BLA BLA BLA BLA BLA BLA BLA BLA BLA BLA BLA 
BLA BLA BLA BLA BLA BLA BLA BLA BLA BLA BLA BLA BLA BLA BLA BLA BLA BLA BLA BLA 
BLA BLA BLA BLA BLA BLA BLA BLA BLA BLA BLA BLA BLA BLA BLA BLA BLA BLA BLA BLA 
BLA BLA BLA BLA BLA BLA BLA BLA BLA BLA BLA BLA BLA BLA BLA BLA BLA BLA BLA BLA 
BLA BLA BLA BLA BLA BLA BLA BLA BLA BLA BLA BLA BLA BLA BLA BLA BLA BLA BLA BLA 
BLA BLA BLA BLA BLA BLA BLA BLA BLA BLA BLA BLA BLA BLA BLA BLA BLA BLA BLA BLA 
BLA BLA BLA BLA BLA BLA BLA BLA BLA BLA BLA BLA BLA BLA BLA BLA BLA BLA BLA BLA 
BLA BLA BLA BLA BLA BLA BLA BLA BLA BLA BLA BLA BLA BLA BLA BLA BLA BLA BLA BLA 
BLA BLA BLA BLA BLA BLA BLA BLA BLA BLA BLA BLA BLA BLA BLA BLA BLA BLA BLA BLA 
BLA BLA BLA BLA BLA BLA BLA BLA BLA BLA BLA BLA BLA BLA BLA BLA BLA BLA BLA BLA 
BLA BLA BLA BLA BLA BLA BLA BLA BLA BLA BLA BLA BLA BLA BLA BLA BLA BLA BLA BLA 
BLA BLA BLA BLA BLA BLA BLA BLA BLA BLA BLA BLA BLA BLA BLA BLA BLA BLA BLA BLA 
BLA BLA BLA BLA BLA BLA BLA BLA BLA BLA BLA BLA BLA BLA BLA BLA BLA BLA BLA BLA 
BLA BLA BLA BLA BLA BLA BLA BLA BLA BLA BLA BLA BLA BLA BLA BLA BLA BLA BLA BLA 
BLA BLA BLA BLA BLA BLA BLA BLA BLA BLA BLA BLA BLA BLA BLA BLA BLA BLA BLA BLA 
BLA BLA BLA BLA BLA BLA BLA BLA BLA BLA BLA BLA BLA BLA BLA BLA BLA BLA BLA BLA 
BLA BLA BLA BLA BLA BLA BLA BLA BLA BLA BLA BLA BLA BLA BLA BLA BLA BLA BLA BLA 
BLA BLA BLA BLA BLA BLA BLA BLA BLA BLA BLA BLA BLA BLA BLA BLA BLA BLA BLA BLA 
BLA BLA BLA BLA BLA BLA BLA BLA BLA BLA BLA BLA BLA BLA BLA BLA BLA BLA BLA BLA 
BLA BLA BLA BLA BLA BLA BLA BLA BLA BLA BLA BLA BLA BLA BLA BLA BLA BLA BLA BLA 
BLA BLA BLA BLA BLA BLA BLA BLA BLA BLA BLA BLA BLA BLA BLA BLA BLA BLA BLA BLA 
BLA BLA BLA BLA BLA BLA BLA BLA BLA BLA BLA BLA BLA BLA BLA BLA BLA BLA BLA BLA 
BLA BLA BLA BLA BLA BLA BLA BLA BLA BLA BLA BLA BLA BLA BLA BLA BLA BLA BLA BLA 
BLA BLA BLA BLA BLA BLA BLA BLA BLA BLA BLA BLA BLA BLA BLA BLA BLA BLA BLA BLA 
BLA BLA BLA BLA BLA BLA BLA BLA BLA BLA BLA BLA BLA BLA BLA BLA BLA BLA BLA BLA 
BLA BLA BLA BLA BLA BLA BLA BLA BLA BLA BLA BLA BLA BLA BLA BLA BLA BLA BLA BLA 
BLA BLA BLA BLA BLA BLA BLA BLA BLA BLA BLA BLA BLA BLA BLA BLA BLA BLA BLA BLA 
BLA BLA BLA BLA BLA BLA BLA BLA BLA BLA BLA BLA BLA BLA BLA BLA BLA BLA BLA BLA 
BLA BLA BLA BLA BLA BLA BLA BLA BLA BLA BLA BLA BLA BLA BLA BLA BLA BLA BLA BLA 
BLA BLA BLA BLA BLA BLA BLA BLA BLA BLA BLA BLA BLA BLA BLA BLA BLA BLA BLA BLA 
BLA BLA BLA BLA BLA BLA BLA BLA BLA BLA BLA BLA BLA BLA BLA BLA BLA BLA BLA BLA 
BLA BLA BLA BLA BLA BLA BLA BLA BLA BLA BLA BLA BLA BLA BLA BLA BLA BLA BLA BLA 
BLA BLA BLA BLA BLA BLA BLA BLA BLA BLA BLA BLA BLA BLA BLA BLA BLA BLA BLA BLA 
BLA BLA BLA BLA BLA BLA BLA BLA BLA BLA BLA BLA BLA BLA BLA BLA BLA BLA BLA BLA 
BLA BLA BLA BLA BLA BLA BLA BLA BLA BLA BLA BLA BLA BLA BLA BLA BLA BLA BLA BLA 
BLA BLA BLA BLA BLA BLA BLA BLA BLA BLA BLA BLA BLA BLA BLA BLA BLA BLA BLA BLA 
BLA BLA BLA BLA BLA BLA BLA BLA BLA BLA BLA BLA BLA BLA BLA BLA BLA BLA BLA BLA 
BLA BLA BLA BLA BLA BLA BLA BLA BLA BLA BLA BLA BLA BLA BLA BLA BLA BLA BLA BLA 
BLA BLA BLA BLA BLA BLA BLA BLA BLA BLA BLA BLA BLA BLA BLA BLA BLA BLA BLA BLA 
BLA BLA BLA BLA BLA BLA BLA BLA BLA BLA BLA BLA BLA BLA BLA BLA BLA BLA BLA BLA 
BLA BLA BLA BLA BLA BLA BLA BLA BLA BLA BLA BLA BLA BLA BLA BLA BLA BLA BLA BLA 
BLA BLA BLA BLA BLA BLA BLA BLA BLA BLA BLA BLA BLA BLA BLA BLA BLA BLA BLA BLA 
BLA BLA BLA BLA BLA BLA BLA BLA BLA BLA BLA BLA BLA BLA BLA BLA BLA BLA BLA BLA 
BLA BLA BLA BLA BLA BLA BLA BLA BLA BLA BLA BLA BLA BLA BLA BLA BLA BLA BLA BLA 
BLA BLA BLA BLA BLA BLA BLA BLA BLA BLA BLA BLA BLA BLA BLA BLA BLA BLA BLA BLA 
BLA BLA BLA BLA BLA BLA BLA BLA BLA BLA BLA BLA BLA BLA BLA BLA BLA BLA BLA BLA 
BLA BLA BLA BLA BLA BLA BLA BLA BLA BLA BLA BLA BLA BLA BLA BLA BLA BLA BLA BLA 
BLA BLA BLA BLA BLA BLA BLA BLA BLA BLA BLA BLA BLA BLA BLA BLA BLA BLA BLA BLA 
BLA BLA BLA BLA BLA BLA BLA BLA BLA BLA BLA BLA BLA BLA BLA BLA BLA BLA BLA BLA 
BLA BLA BLA BLA BLA BLA BLA BLA BLA BLA BLA BLA BLA BLA BLA BLA BLA BLA BLA BLA 
BLA BLA BLA BLA BLA BLA BLA BLA BLA BLA BLA BLA BLA BLA BLA BLA BLA BLA BLA BLA 
BLA BLA BLA BLA BLA BLA BLA BLA BLA BLA BLA BLA BLA BLA BLA BLA BLA BLA BLA BLA 
BLA BLA BLA BLA BLA BLA BLA BLA BLA BLA BLA BLA BLA BLA BLA BLA BLA BLA BLA BLA 
BLA BLA BLA BLA BLA BLA BLA BLA BLA BLA BLA BLA BLA BLA BLA BLA BLA BLA BLA BLA 
BLA BLA BLA BLA BLA BLA BLA BLA BLA BLA BLA BLA BLA BLA BLA BLA BLA BLA BLA BLA 
BLA BLA BLA BLA BLA BLA BLA BLA BLA BLA BLA BLA BLA BLA BLA BLA BLA BLA BLA BLA 
BLA BLA BLA BLA BLA BLA BLA BLA BLA BLA BLA BLA BLA BLA BLA BLA BLA BLA BLA BLA 
BLA BLA BLA BLA BLA BLA BLA BLA BLA BLA BLA BLA BLA BLA BLA BLA BLA BLA BLA BLA 
BLA BLA BLA BLA BLA BLA BLA BLA BLA BLA BLA BLA BLA BLA BLA BLA BLA BLA BLA BLA 
BLA BLA BLA BLA BLA BLA BLA BLA BLA BLA BLA BLA BLA BLA BLA BLA BLA BLA BLA BLA 
BLA BLA BLA BLA BLA BLA BLA BLA BLA BLA BLA BLA BLA BLA BLA BLA BLA BLA BLA BLA 
BLA BLA BLA BLA BLA BLA BLA BLA BLA BLA BLA BLA BLA BLA BLA BLA BLA BLA BLA BLA 
BLA BLA BLA BLA BLA BLA BLA BLA BLA BLA BLA BLA BLA BLA BLA BLA BLA BLA BLA BLA 
BLA BLA BLA BLA BLA BLA BLA BLA BLA BLA BLA BLA BLA BLA BLA BLA BLA BLA BLA BLA 
BLA BLA BLA BLA BLA BLA BLA BLA BLA BLA BLA BLA BLA BLA BLA BLA BLA BLA BLA BLA 
BLA BLA BLA BLA BLA BLA BLA BLA BLA BLA BLA BLA BLA BLA BLA BLA BLA BLA BLA BLA 
BLA BLA BLA BLA BLA BLA BLA BLA BLA BLA BLA BLA BLA BLA BLA BLA BLA BLA BLA BLA 
BLA BLA BLA BLA BLA BLA BLA BLA BLA BLA BLA BLA BLA BLA BLA BLA BLA BLA BLA BLA 
BLA BLA BLA BLA BLA BLA BLA BLA BLA BLA BLA BLA BLA BLA BLA BLA BLA BLA BLA BLA 
BLA BLA BLA BLA BLA BLA BLA BLA BLA BLA BLA BLA BLA BLA BLA BLA BLA BLA BLA BLA 
BLA BLA BLA BLA BLA BLA BLA BLA BLA BLA BLA BLA BLA BLA BLA BLA BLA BLA BLA BLA 
BLA BLA BLA BLA BLA BLA BLA BLA BLA BLA BLA BLA BLA BLA BLA BLA BLA BLA BLA BLA 
BLA BLA BLA BLA BLA BLA BLA BLA BLA BLA BLA BLA BLA BLA BLA BLA BLA BLA BLA BLA 
BLA BLA BLA BLA BLA BLA BLA BLA BLA BLA BLA BLA BLA BLA BLA BLA BLA BLA BLA BLA 
BLA BLA BLA BLA BLA BLA BLA BLA BLA BLA BLA BLA BLA BLA BLA BLA BLA BLA BLA BLA 
BLA BLA BLA BLA BLA BLA BLA BLA BLA BLA BLA BLA BLA BLA BLA BLA BLA BLA BLA BLA 
BLA BLA BLA BLA BLA BLA BLA BLA BLA BLA BLA BLA BLA BLA BLA BLA BLA BLA BLA BLA 
BLA BLA BLA BLA BLA BLA BLA BLA BLA BLA BLA BLA BLA BLA BLA BLA BLA BLA BLA BLA 
BLA BLA BLA BLA BLA BLA BLA BLA BLA BLA BLA BLA BLA BLA BLA BLA BLA BLA BLA BLA 
BLA BLA BLA BLA BLA BLA BLA BLA BLA BLA BLA BLA BLA BLA BLA BLA BLA BLA BLA BLA 
BLA BLA BLA BLA BLA BLA BLA BLA BLA BLA BLA BLA BLA BLA BLA BLA BLA BLA BLA BLA 
BLA BLA BLA BLA BLA BLA BLA BLA BLA BLA BLA BLA BLA BLA BLA BLA BLA BLA BLA BLA 
BLA BLA BLA BLA BLA BLA BLA BLA BLA BLA BLA BLA BLA BLA BLA BLA BLA BLA BLA BLA 
BLA BLA BLA BLA BLA BLA BLA BLA BLA BLA BLA BLA BLA BLA BLA BLA BLA BLA BLA BLA 
BLA BLA BLA BLA BLA BLA BLA BLA BLA BLA BLA BLA BLA BLA BLA BLA BLA BLA BLA BLA 
BLA BLA BLA BLA BLA BLA BLA BLA BLA BLA BLA BLA BLA BLA BLA BLA BLA BLA BLA BLA 
BLA BLA BLA BLA BLA BLA BLA BLA BLA BLA BLA BLA BLA BLA BLA BLA BLA BLA BLA BLA 
BLA BLA BLA BLA BLA BLA BLA BLA BLA BLA BLA BLA BLA BLA BLA BLA BLA BLA BLA BLA 
BLA BLA BLA BLA BLA BLA BLA BLA BLA BLA BLA BLA BLA BLA BLA BLA BLA BLA BLA BLA 
BLA BLA BLA BLA BLA BLA BLA BLA BLA BLA BLA BLA BLA BLA BLA BLA BLA BLA BLA BLA 
BLA BLA BLA BLA BLA BLA BLA BLA BLA BLA BLA BLA BLA BLA BLA BLA BLA BLA BLA BLA 
BLA BLA BLA BLA BLA BLA BLA BLA BLA BLA BLA BLA BLA BLA BLA BLA BLA BLA BLA BLA 
BLA BLA BLA BLA BLA BLA BLA BLA BLA BLA BLA BLA BLA BLA BLA BLA BLA BLA BLA BLA 
BLA BLA BLA BLA BLA BLA BLA BLA BLA BLA BLA BLA BLA BLA BLA BLA BLA BLA BLA BLA 
BLA BLA BLA BLA BLA BLA BLA BLA BLA BLA BLA BLA BLA BLA BLA BLA BLA BLA BLA BLA 
BLA BLA BLA BLA BLA BLA BLA BLA BLA BLA BLA BLA BLA BLA BLA BLA BLA BLA BLA BLA 
BLA BLA BLA BLA BLA BLA BLA BLA BLA BLA BLA BLA BLA BLA BLA BLA BLA BLA BLA BLA 
BLA BLA BLA BLA BLA BLA BLA BLA BLA BLA BLA BLA BLA BLA BLA BLA BLA BLA BLA BLA 
BLA BLA BLA BLA BLA BLA BLA BLA BLA BLA BLA BLA BLA BLA BLA BLA BLA BLA BLA BLA 
BLA BLA BLA BLA BLA BLA BLA BLA BLA BLA BLA BLA BLA BLA BLA BLA BLA BLA BLA BLA 
BLA BLA BLA BLA BLA BLA BLA BLA BLA BLA BLA BLA BLA BLA BLA BLA BLA BLA BLA BLA 
BLA BLA BLA BLA BLA BLA BLA BLA BLA BLA BLA BLA BLA BLA BLA BLA BLA BLA BLA BLA 
BLA BLA BLA BLA BLA BLA BLA BLA BLA BLA BLA BLA BLA BLA BLA BLA BLA BLA BLA BLA 
BLA BLA BLA BLA BLA BLA BLA BLA BLA BLA BLA BLA BLA BLA BLA BLA BLA BLA BLA BLA 
BLA BLA BLA BLA BLA BLA BLA BLA BLA BLA BLA BLA BLA BLA BLA BLA BLA BLA BLA BLA 
BLA BLA BLA BLA BLA BLA BLA BLA BLA BLA BLA BLA BLA BLA BLA BLA BLA BLA BLA BLA 
BLA BLA BLA BLA BLA BLA BLA BLA BLA BLA BLA BLA BLA BLA BLA BLA BLA BLA BLA BLA 
BLA BLA BLA BLA BLA BLA BLA BLA BLA BLA BLA BLA BLA BLA BLA BLA BLA BLA BLA BLA 
BLA BLA BLA BLA BLA BLA BLA BLA BLA BLA BLA BLA BLA BLA BLA BLA BLA BLA BLA BLA 
BLA BLA BLA BLA BLA BLA BLA BLA BLA BLA BLA BLA BLA BLA BLA BLA BLA BLA BLA BLA 
BLA BLA BLA BLA BLA BLA BLA BLA BLA BLA BLA BLA BLA BLA BLA BLA BLA BLA BLA BLA 
BLA BLA BLA BLA BLA BLA BLA BLA BLA BLA BLA BLA BLA BLA BLA BLA BLA BLA BLA BLA 
BLA BLA BLA BLA BLA BLA BLA BLA BLA BLA BLA BLA BLA BLA BLA BLA BLA BLA BLA BLA 
BLA BLA BLA BLA BLA BLA BLA BLA BLA BLA BLA BLA BLA BLA BLA BLA BLA BLA BLA BLA 
BLA BLA BLA BLA BLA BLA BLA BLA BLA BLA BLA BLA BLA BLA BLA BLA BLA BLA BLA BLA 
BLA BLA BLA BLA BLA BLA BLA BLA BLA BLA BLA BLA BLA BLA BLA BLA BLA BLA BLA BLA 
BLA BLA BLA BLA BLA BLA BLA BLA BLA BLA BLA BLA BLA BLA BLA BLA BLA BLA BLA BLA 
BLA BLA BLA BLA BLA BLA BLA BLA BLA BLA BLA BLA BLA BLA BLA BLA BLA BLA BLA BLA 
BLA BLA BLA BLA BLA BLA BLA BLA BLA BLA BLA BLA BLA BLA BLA BLA BLA BLA BLA BLA 
BLA BLA BLA BLA BLA BLA BLA BLA BLA BLA BLA BLA BLA BLA BLA BLA BLA BLA BLA BLA 
BLA BLA BLA BLA BLA BLA BLA BLA BLA BLA BLA BLA BLA BLA BLA BLA BLA BLA BLA BLA 
BLA BLA BLA BLA BLA BLA BLA BLA BLA BLA BLA BLA BLA BLA BLA BLA BLA BLA BLA BLA 
BLA BLA BLA BLA BLA BLA BLA BLA BLA BLA BLA BLA BLA BLA BLA BLA BLA BLA BLA BLA 
BLA BLA BLA BLA BLA BLA BLA BLA BLA BLA BLA BLA BLA BLA BLA BLA BLA BLA BLA BLA 
BLA BLA BLA BLA BLA BLA BLA BLA BLA BLA BLA BLA BLA BLA BLA BLA BLA BLA BLA BLA 
BLA BLA BLA BLA BLA BLA BLA BLA BLA BLA BLA BLA BLA BLA BLA BLA BLA BLA BLA BLA 
BLA BLA BLA BLA BLA BLA BLA BLA BLA BLA BLA BLA BLA BLA BLA BLA BLA BLA BLA BLA 
BLA BLA BLA BLA BLA BLA BLA BLA BLA BLA BLA BLA BLA BLA BLA BLA BLA BLA BLA BLA 
BLA BLA BLA BLA BLA BLA BLA BLA BLA BLA BLA BLA BLA BLA BLA BLA BLA BLA BLA BLA 
BLA BLA BLA BLA BLA BLA BLA BLA BLA BLA BLA BLA BLA BLA BLA BLA BLA BLA BLA BLA 
BLA BLA BLA BLA BLA BLA BLA BLA BLA BLA BLA BLA BLA BLA BLA BLA BLA BLA BLA BLA 
BLA BLA BLA BLA BLA BLA BLA BLA BLA BLA BLA BLA BLA BLA BLA BLA BLA BLA BLA BLA 
BLA BLA BLA BLA BLA BLA BLA BLA BLA BLA BLA BLA BLA BLA BLA BLA BLA BLA BLA BLA 
BLA BLA BLA BLA BLA BLA BLA BLA BLA BLA BLA BLA BLA BLA BLA BLA BLA BLA BLA BLA 
BLA BLA BLA BLA BLA BLA BLA BLA BLA BLA BLA BLA BLA BLA BLA BLA BLA BLA BLA BLA 
BLA BLA BLA BLA BLA BLA BLA BLA BLA BLA BLA BLA BLA BLA BLA BLA BLA BLA BLA BLA 
BLA BLA BLA BLA BLA BLA BLA BLA BLA BLA BLA BLA BLA BLA BLA BLA BLA BLA BLA BLA 
BLA BLA BLA BLA BLA BLA BLA BLA BLA BLA BLA BLA BLA BLA BLA BLA BLA BLA BLA BLA 
BLA BLA BLA BLA BLA BLA BLA BLA BLA BLA BLA BLA BLA BLA BLA BLA BLA BLA BLA BLA 
BLA BLA BLA BLA BLA BLA BLA BLA BLA BLA BLA BLA BLA BLA BLA BLA BLA BLA BLA BLA 
BLA BLA BLA BLA BLA BLA BLA BLA BLA BLA BLA BLA BLA BLA BLA BLA BLA BLA BLA BLA 
BLA BLA BLA BLA BLA BLA BLA BLA BLA BLA BLA BLA BLA BLA BLA BLA BLA BLA BLA BLA 
BLA BLA BLA BLA BLA BLA BLA BLA BLA BLA BLA BLA BLA BLA BLA BLA BLA BLA BLA BLA 
BLA BLA BLA BLA BLA BLA BLA BLA BLA BLA BLA BLA BLA BLA BLA BLA BLA BLA BLA BLA 
BLA BLA BLA BLA BLA BLA BLA BLA BLA BLA BLA BLA BLA BLA BLA BLA BLA BLA BLA BLA 
BLA BLA BLA BLA BLA BLA BLA BLA BLA BLA BLA BLA BLA BLA BLA BLA BLA BLA BLA BLA 
BLA BLA BLA BLA BLA BLA BLA BLA BLA BLA BLA BLA BLA BLA BLA BLA BLA BLA BLA BLA 
BLA BLA BLA BLA BLA BLA BLA BLA BLA BLA BLA BLA BLA BLA BLA BLA BLA BLA BLA BLA 
BLA BLA BLA BLA BLA BLA BLA BLA BLA BLA BLA BLA BLA BLA BLA BLA BLA BLA BLA BLA 
BLA BLA BLA BLA BLA BLA BLA BLA BLA BLA BLA BLA BLA BLA BLA BLA BLA BLA BLA BLA 
BLA BLA BLA BLA BLA BLA BLA BLA BLA BLA BLA BLA BLA BLA BLA BLA BLA BLA BLA BLA 
BLA BLA BLA BLA BLA BLA BLA BLA BLA BLA BLA BLA BLA BLA BLA BLA BLA BLA BLA BLA 
BLA BLA BLA BLA BLA BLA BLA BLA BLA BLA BLA BLA BLA BLA BLA BLA BLA BLA BLA BLA 
BLA BLA BLA BLA BLA BLA BLA BLA BLA BLA BLA BLA BLA BLA BLA BLA BLA BLA BLA BLA 
BLA BLA BLA BLA BLA BLA BLA BLA BLA BLA BLA BLA BLA BLA BLA BLA BLA BLA BLA BLA 
BLA BLA BLA BLA BLA BLA BLA BLA BLA BLA BLA BLA BLA BLA BLA BLA BLA BLA BLA BLA 
BLA BLA BLA BLA BLA BLA BLA BLA BLA BLA BLA BLA BLA BLA BLA BLA BLA BLA BLA BLA 
BLA BLA BLA BLA BLA BLA BLA BLA BLA BLA BLA BLA BLA BLA BLA BLA BLA BLA BLA BLA 
BLA BLA BLA BLA BLA BLA BLA BLA BLA BLA BLA BLA BLA BLA BLA BLA BLA BLA BLA BLA 
BLA BLA BLA BLA BLA BLA BLA BLA BLA BLA BLA BLA BLA BLA BLA BLA BLA BLA BLA BLA 
BLA BLA BLA BLA BLA BLA BLA BLA BLA BLA BLA BLA BLA BLA BLA BLA BLA BLA BLA BLA 
BLA BLA BLA BLA BLA BLA BLA BLA BLA BLA BLA BLA BLA BLA BLA BLA BLA BLA BLA BLA 
BLA BLA BLA BLA BLA BLA BLA BLA BLA BLA BLA BLA BLA BLA BLA BLA BLA BLA BLA BLA 
BLA BLA BLA BLA BLA BLA BLA BLA BLA BLA BLA BLA BLA BLA BLA BLA BLA BLA BLA BLA 
BLA BLA BLA BLA BLA BLA BLA BLA BLA BLA BLA BLA BLA BLA BLA BLA BLA BLA BLA BLA 
BLA BLA BLA BLA BLA BLA BLA BLA BLA BLA BLA BLA BLA BLA BLA BLA BLA BLA BLA BLA 
BLA BLA BLA BLA BLA BLA BLA BLA BLA BLA BLA BLA BLA BLA BLA BLA BLA BLA BLA BLA 
BLA BLA BLA BLA BLA BLA BLA BLA BLA BLA BLA BLA BLA BLA BLA BLA BLA BLA BLA BLA 
BLA BLA BLA BLA BLA BLA BLA BLA BLA BLA BLA BLA BLA BLA BLA BLA BLA BLA BLA BLA 
BLA BLA BLA BLA BLA BLA BLA BLA BLA BLA BLA BLA BLA BLA BLA BLA BLA BLA BLA BLA 
BLA BLA BLA BLA BLA BLA BLA BLA BLA BLA BLA BLA BLA BLA BLA BLA BLA BLA BLA BLA 
BLA BLA BLA BLA BLA BLA BLA BLA BLA BLA BLA BLA BLA BLA BLA BLA BLA BLA BLA BLA 
BLA BLA BLA BLA BLA BLA BLA BLA BLA BLA BLA BLA BLA BLA BLA BLA BLA BLA BLA BLA 
BLA BLA BLA BLA BLA BLA BLA BLA BLA BLA BLA BLA BLA BLA BLA BLA BLA BLA BLA BLA 
BLA BLA BLA BLA BLA BLA BLA BLA BLA BLA BLA BLA BLA BLA BLA BLA BLA BLA BLA BLA 
BLA BLA BLA BLA BLA BLA BLA BLA BLA BLA BLA BLA BLA BLA BLA BLA BLA BLA BLA BLA 
BLA BLA BLA BLA BLA BLA BLA BLA BLA BLA BLA BLA BLA BLA BLA BLA BLA BLA BLA BLA 
BLA BLA BLA BLA BLA BLA BLA BLA BLA BLA BLA BLA BLA BLA BLA BLA BLA BLA BLA BLA 
BLA BLA BLA BLA BLA BLA BLA BLA BLA BLA BLA BLA BLA BLA BLA BLA BLA BLA BLA BLA 
BLA BLA BLA BLA BLA BLA BLA BLA BLA BLA BLA BLA BLA BLA BLA BLA BLA BLA BLA BLA 
BLA BLA BLA BLA BLA BLA BLA BLA BLA BLA BLA BLA BLA BLA BLA BLA BLA BLA BLA BLA 
BLA BLA BLA BLA BLA BLA BLA BLA BLA BLA BLA BLA BLA BLA BLA BLA BLA BLA BLA BLA 
BLA BLA BLA BLA BLA BLA BLA BLA BLA BLA BLA BLA BLA BLA BLA BLA BLA BLA BLA BLA 
BLA BLA BLA BLA BLA BLA BLA BLA BLA BLA BLA BLA BLA BLA BLA BLA BLA BLA BLA BLA 
BLA BLA BLA BLA BLA BLA BLA BLA BLA BLA BLA BLA BLA BLA BLA BLA BLA BLA BLA BLA 
BLA BLA BLA BLA BLA BLA BLA BLA BLA BLA BLA BLA BLA BLA BLA BLA BLA BLA BLA BLA 
BLA BLA BLA BLA BLA BLA BLA BLA BLA BLA BLA BLA BLA BLA BLA BLA BLA BLA BLA BLA 
BLA BLA BLA BLA BLA BLA BLA BLA BLA BLA BLA BLA BLA BLA BLA BLA BLA BLA BLA BLA 
BLA BLA BLA BLA BLA BLA BLA BLA BLA BLA BLA BLA BLA BLA BLA BLA BLA BLA BLA BLA 
BLA BLA BLA BLA BLA BLA BLA BLA BLA BLA BLA BLA BLA BLA BLA BLA BLA BLA BLA BLA 
BLA BLA BLA BLA BLA BLA BLA BLA BLA BLA BLA BLA BLA BLA BLA BLA BLA BLA BLA BLA 
BLA BLA BLA BLA BLA BLA BLA BLA BLA BLA BLA BLA BLA BLA BLA BLA BLA BLA BLA BLA 
BLA BLA BLA BLA BLA BLA BLA BLA BLA BLA BLA BLA BLA BLA BLA BLA BLA BLA BLA BLA 
BLA BLA BLA BLA BLA BLA BLA BLA BLA BLA BLA BLA BLA BLA BLA BLA BLA BLA BLA BLA 
BLA BLA BLA BLA BLA BLA BLA BLA BLA BLA BLA BLA BLA BLA BLA BLA BLA BLA BLA BLA 
BLA BLA BLA BLA BLA BLA BLA BLA BLA BLA BLA BLA BLA BLA BLA BLA BLA BLA BLA BLA 
BLA BLA BLA BLA BLA BLA BLA BLA BLA BLA BLA BLA BLA BLA BLA BLA BLA BLA BLA BLA 
BLA BLA BLA BLA BLA BLA BLA BLA BLA BLA BLA BLA BLA BLA BLA BLA BLA BLA BLA BLA 
BLA BLA BLA BLA BLA BLA BLA BLA BLA BLA BLA BLA BLA BLA BLA BLA BLA BLA BLA BLA 
BLA BLA BLA BLA BLA BLA BLA BLA BLA BLA BLA BLA BLA BLA BLA BLA BLA BLA BLA BLA 
BLA BLA BLA BLA BLA BLA BLA BLA BLA BLA BLA BLA BLA BLA BLA BLA BLA BLA BLA BLA 
BLA BLA BLA BLA BLA BLA BLA BLA BLA BLA BLA BLA BLA BLA BLA BLA BLA BLA BLA BLA 
BLA BLA BLA BLA BLA BLA BLA BLA BLA BLA BLA BLA BLA BLA BLA BLA BLA BLA BLA BLA 
BLA BLA BLA BLA BLA BLA BLA BLA BLA BLA BLA BLA BLA BLA BLA BLA BLA BLA BLA BLA 
BLA BLA BLA BLA BLA BLA BLA BLA BLA BLA BLA BLA BLA BLA BLA BLA BLA BLA BLA BLA 
BLA BLA BLA BLA BLA BLA BLA BLA BLA BLA BLA BLA BLA BLA BLA BLA BLA BLA BLA BLA 
BLA BLA BLA BLA BLA BLA BLA BLA BLA BLA BLA BLA BLA BLA BLA BLA BLA BLA BLA BLA 
BLA BLA BLA BLA BLA BLA BLA BLA BLA BLA BLA BLA BLA BLA BLA BLA BLA BLA BLA BLA 
BLA BLA BLA BLA BLA BLA BLA BLA BLA BLA BLA BLA BLA BLA BLA BLA BLA BLA BLA BLA 
BLA BLA BLA BLA BLA BLA BLA BLA BLA BLA BLA BLA BLA BLA BLA BLA BLA BLA BLA BLA 
BLA BLA BLA BLA BLA BLA BLA BLA BLA BLA BLA BLA BLA BLA BLA BLA BLA BLA BLA BLA 
BLA BLA BLA BLA BLA BLA BLA BLA BLA BLA BLA BLA BLA BLA BLA BLA BLA BLA BLA BLA 
BLA BLA BLA BLA BLA BLA BLA BLA BLA BLA BLA BLA BLA BLA BLA BLA BLA BLA BLA BLA 
BLA BLA BLA BLA BLA BLA BLA BLA BLA BLA BLA BLA BLA BLA BLA BLA BLA BLA BLA BLA 
BLA BLA BLA BLA BLA BLA BLA BLA BLA BLA BLA BLA BLA BLA BLA BLA BLA BLA BLA BLA 
BLA BLA BLA BLA BLA BLA BLA BLA BLA BLA BLA BLA BLA BLA BLA BLA BLA BLA BLA BLA 
BLA BLA BLA BLA BLA BLA BLA BLA BLA BLA BLA BLA BLA BLA BLA BLA BLA BLA BLA BLA 
BLA BLA BLA BLA BLA BLA BLA BLA BLA BLA BLA BLA BLA BLA BLA BLA BLA BLA BLA BLA 
BLA BLA BLA BLA BLA BLA BLA BLA BLA BLA BLA BLA BLA BLA BLA BLA BLA BLA BLA BLA 
BLA BLA BLA BLA BLA BLA BLA BLA BLA BLA BLA BLA BLA BLA BLA BLA BLA BLA BLA BLA 
BLA BLA BLA BLA BLA BLA BLA BLA BLA BLA BLA BLA BLA BLA BLA BLA BLA BLA BLA BLA 
BLA BLA BLA BLA BLA BLA BLA BLA BLA BLA BLA BLA BLA BLA BLA BLA BLA BLA BLA BLA 
BLA BLA BLA BLA BLA BLA BLA BLA BLA BLA BLA BLA BLA BLA BLA BLA BLA BLA BLA BLA 
BLA BLA BLA BLA BLA BLA BLA BLA BLA BLA BLA BLA BLA BLA BLA BLA BLA BLA BLA BLA 
BLA BLA BLA BLA BLA BLA BLA BLA BLA BLA BLA BLA BLA BLA BLA BLA BLA BLA BLA BLA 
BLA BLA BLA BLA BLA BLA BLA BLA BLA BLA BLA BLA BLA BLA BLA BLA BLA BLA BLA BLA 
BLA BLA BLA BLA BLA BLA BLA BLA BLA BLA BLA BLA BLA BLA BLA BLA BLA BLA BLA BLA 
BLA BLA BLA BLA BLA BLA BLA BLA BLA BLA BLA BLA BLA BLA BLA BLA BLA BLA BLA BLA 
BLA BLA BLA BLA BLA BLA BLA BLA BLA BLA BLA BLA BLA BLA BLA BLA BLA BLA BLA BLA 
BLA BLA BLA BLA BLA BLA BLA BLA BLA BLA BLA BLA BLA BLA BLA BLA BLA BLA BLA BLA 
BLA BLA BLA BLA BLA BLA BLA BLA BLA BLA BLA BLA BLA BLA BLA BLA BLA BLA BLA BLA 
BLA BLA BLA BLA BLA BLA BLA BLA BLA BLA BLA BLA BLA BLA BLA BLA BLA BLA BLA BLA 
BLA BLA BLA BLA BLA BLA BLA BLA BLA BLA BLA BLA BLA BLA BLA BLA BLA BLA BLA BLA 
BLA BLA BLA BLA BLA BLA BLA BLA BLA BLA BLA BLA BLA BLA BLA BLA BLA BLA BLA BLA 
BLA BLA BLA BLA BLA BLA BLA BLA BLA BLA BLA BLA BLA BLA BLA BLA BLA BLA BLA BLA 
BLA BLA BLA BLA BLA BLA BLA BLA BLA BLA BLA BLA BLA BLA BLA BLA BLA BLA BLA BLA 
BLA BLA BLA BLA BLA BLA BLA BLA BLA BLA BLA BLA BLA BLA BLA BLA BLA BLA BLA BLA 
BLA BLA BLA BLA BLA BLA BLA BLA BLA BLA BLA BLA BLA BLA BLA BLA BLA BLA BLA BLA 
BLA BLA BLA BLA BLA BLA BLA BLA BLA BLA BLA BLA BLA BLA BLA BLA BLA BLA BLA BLA 
BLA BLA BLA BLA BLA BLA BLA BLA BLA BLA BLA BLA BLA BLA BLA BLA BLA BLA BLA BLA 
BLA BLA BLA BLA BLA BLA BLA BLA BLA BLA BLA BLA BLA BLA BLA BLA BLA BLA BLA BLA 
BLA BLA BLA BLA BLA BLA BLA BLA BLA BLA BLA BLA BLA BLA BLA BLA BLA BLA BLA BLA 
BLA BLA BLA BLA BLA BLA BLA BLA BLA BLA BLA BLA BLA BLA BLA BLA BLA BLA BLA BLA 
BLA BLA BLA BLA BLA BLA BLA BLA BLA BLA BLA BLA BLA BLA BLA BLA BLA BLA BLA BLA 
BLA BLA BLA BLA BLA BLA BLA BLA BLA BLA BLA BLA BLA BLA BLA BLA BLA BLA BLA BLA 
BLA BLA BLA BLA BLA BLA BLA BLA BLA BLA BLA BLA BLA BLA BLA BLA BLA BLA BLA BLA 
BLA BLA BLA BLA BLA BLA BLA BLA BLA BLA BLA BLA BLA BLA BLA BLA BLA BLA BLA BLA 
BLA BLA BLA BLA BLA BLA BLA BLA BLA BLA BLA BLA BLA BLA BLA BLA BLA BLA BLA BLA 
BLA BLA BLA BLA BLA BLA BLA BLA BLA BLA BLA BLA BLA BLA BLA BLA BLA BLA BLA BLA 
BLA BLA BLA BLA BLA BLA BLA BLA BLA BLA BLA BLA BLA BLA BLA BLA BLA BLA BLA BLA 
BLA BLA BLA BLA BLA BLA BLA BLA BLA BLA BLA BLA BLA BLA BLA BLA BLA BLA BLA BLA 
BLA BLA BLA BLA BLA BLA BLA BLA BLA BLA BLA BLA BLA BLA BLA BLA BLA BLA BLA BLA 
BLA BLA BLA BLA BLA BLA BLA BLA BLA BLA BLA BLA BLA BLA BLA BLA BLA BLA BLA BLA 
BLA BLA BLA BLA BLA BLA BLA BLA BLA BLA BLA BLA BLA BLA BLA BLA BLA BLA BLA BLA 
BLA BLA BLA BLA BLA BLA BLA BLA BLA BLA BLA BLA BLA BLA BLA BLA BLA BLA BLA BLA 
BLA BLA BLA BLA BLA BLA BLA BLA BLA BLA BLA BLA BLA BLA BLA BLA BLA BLA BLA BLA 
BLA BLA BLA BLA BLA BLA BLA BLA BLA BLA BLA BLA BLA BLA BLA BLA BLA BLA BLA BLA 
BLA BLA BLA BLA BLA BLA BLA BLA BLA BLA BLA BLA BLA BLA BLA BLA BLA BLA BLA BLA 
BLA BLA BLA BLA BLA BLA BLA BLA BLA BLA BLA BLA BLA BLA BLA BLA BLA BLA BLA BLA 
BLA BLA BLA BLA BLA BLA BLA BLA BLA BLA BLA BLA BLA BLA BLA BLA BLA BLA BLA BLA 
BLA BLA BLA BLA BLA BLA BLA BLA BLA BLA BLA BLA BLA BLA BLA BLA BLA BLA BLA BLA 
BLA BLA BLA BLA BLA BLA BLA BLA BLA BLA BLA BLA BLA BLA BLA BLA BLA BLA BLA BLA 
BLA BLA BLA BLA BLA BLA BLA BLA BLA BLA BLA BLA BLA BLA BLA BLA BLA BLA BLA BLA 
BLA BLA BLA BLA BLA BLA BLA BLA BLA BLA BLA BLA BLA BLA BLA BLA BLA BLA BLA BLA 
BLA BLA BLA BLA BLA BLA BLA BLA BLA BLA BLA BLA BLA BLA BLA BLA BLA BLA BLA BLA 
BLA BLA BLA BLA BLA BLA BLA BLA BLA BLA BLA BLA BLA BLA BLA BLA BLA BLA BLA BLA 
BLA BLA BLA BLA BLA BLA BLA BLA BLA BLA BLA BLA BLA BLA BLA BLA BLA BLA BLA BLA 
BLA BLA BLA BLA BLA BLA BLA BLA BLA BLA BLA BLA BLA BLA BLA BLA BLA BLA BLA BLA 
BLA BLA BLA BLA BLA BLA BLA BLA BLA BLA BLA BLA BLA BLA BLA BLA BLA BLA BLA BLA 
BLA BLA BLA BLA BLA BLA BLA BLA BLA BLA BLA BLA BLA BLA BLA BLA BLA BLA BLA BLA 
BLA BLA BLA BLA BLA BLA BLA BLA BLA BLA BLA BLA BLA BLA BLA BLA BLA BLA BLA BLA 
BLA BLA BLA BLA BLA BLA BLA BLA BLA BLA BLA BLA BLA BLA BLA BLA BLA BLA BLA BLA 
BLA BLA BLA BLA BLA BLA BLA BLA BLA BLA BLA BLA BLA BLA BLA BLA BLA BLA BLA BLA 
BLA BLA BLA BLA BLA BLA BLA BLA BLA BLA BLA BLA BLA BLA BLA BLA BLA BLA BLA BLA 
BLA BLA BLA BLA BLA BLA BLA BLA BLA BLA BLA BLA BLA BLA BLA BLA BLA BLA BLA BLA 
BLA BLA BLA BLA BLA BLA BLA BLA BLA BLA BLA BLA BLA BLA BLA BLA BLA BLA BLA BLA 
BLA BLA BLA BLA BLA BLA BLA BLA BLA BLA BLA BLA BLA BLA BLA BLA BLA BLA BLA BLA 
BLA BLA BLA BLA BLA BLA BLA BLA BLA BLA BLA BLA BLA BLA BLA BLA BLA BLA BLA BLA 
BLA BLA BLA BLA BLA BLA BLA BLA BLA BLA BLA BLA BLA BLA BLA BLA BLA BLA BLA BLA 
BLA BLA BLA BLA BLA BLA BLA BLA BLA BLA BLA BLA BLA BLA BLA BLA BLA BLA BLA BLA 
BLA BLA BLA BLA BLA BLA BLA BLA BLA BLA BLA BLA BLA BLA BLA BLA BLA BLA BLA BLA 
BLA BLA BLA BLA BLA BLA BLA BLA BLA BLA BLA BLA BLA BLA BLA BLA BLA BLA BLA BLA 
BLA BLA BLA BLA BLA BLA BLA BLA BLA BLA BLA BLA BLA BLA BLA BLA BLA BLA BLA BLA 
BLA BLA BLA BLA BLA BLA BLA BLA BLA BLA BLA BLA BLA BLA BLA BLA BLA BLA BLA BLA 
BLA BLA BLA BLA BLA BLA BLA BLA BLA BLA BLA BLA BLA BLA BLA BLA BLA BLA BLA BLA 
BLA BLA BLA BLA BLA BLA BLA BLA BLA BLA BLA BLA BLA BLA BLA BLA BLA BLA BLA BLA 
BLA BLA BLA BLA BLA BLA BLA BLA BLA BLA BLA BLA BLA BLA BLA BLA BLA BLA BLA BLA 
BLA BLA BLA BLA BLA BLA BLA BLA BLA BLA BLA BLA BLA BLA BLA BLA BLA BLA BLA BLA 
BLA BLA BLA BLA BLA BLA BLA BLA BLA BLA BLA BLA BLA BLA BLA BLA BLA BLA BLA BLA 
BLA BLA BLA BLA BLA BLA BLA BLA BLA BLA BLA BLA BLA BLA BLA BLA BLA BLA BLA BLA 
BLA BLA BLA BLA BLA BLA BLA BLA BLA BLA BLA BLA BLA BLA BLA BLA BLA BLA BLA BLA 
BLA BLA BLA BLA BLA BLA BLA BLA BLA BLA BLA BLA BLA BLA BLA BLA BLA BLA BLA BLA 
BLA BLA BLA BLA BLA BLA BLA BLA BLA BLA BLA BLA BLA BLA BLA BLA BLA BLA BLA BLA 
BLA BLA BLA BLA BLA BLA BLA BLA BLA BLA BLA BLA BLA BLA BLA BLA BLA BLA BLA BLA 
BLA BLA BLA BLA BLA BLA BLA BLA BLA BLA BLA BLA BLA BLA BLA BLA BLA BLA BLA BLA 
BLA BLA BLA BLA BLA BLA BLA BLA BLA BLA BLA BLA BLA BLA BLA BLA BLA BLA BLA BLA 
BLA BLA BLA BLA BLA BLA BLA BLA BLA BLA BLA BLA BLA BLA BLA BLA BLA BLA BLA BLA 
BLA BLA BLA BLA BLA BLA BLA BLA BLA BLA BLA BLA BLA BLA BLA BLA BLA BLA BLA BLA 
BLA BLA BLA BLA BLA BLA BLA BLA BLA BLA BLA BLA BLA BLA BLA BLA BLA BLA BLA BLA 
BLA BLA BLA BLA BLA BLA BLA BLA BLA BLA BLA BLA BLA BLA BLA BLA BLA BLA BLA BLA 
BLA BLA BLA BLA BLA BLA BLA BLA BLA BLA BLA BLA BLA BLA BLA BLA BLA BLA BLA BLA 
BLA BLA BLA BLA BLA BLA BLA BLA BLA BLA BLA BLA BLA BLA BLA BLA BLA BLA BLA BLA 
BLA BLA BLA BLA BLA BLA BLA BLA BLA BLA BLA BLA BLA BLA BLA BLA BLA BLA BLA BLA 
BLA BLA BLA BLA BLA BLA BLA BLA BLA BLA BLA BLA BLA BLA BLA BLA BLA BLA BLA BLA 
BLA BLA BLA BLA BLA BLA BLA BLA BLA BLA BLA BLA BLA BLA BLA BLA BLA BLA BLA BLA 
BLA BLA BLA BLA BLA BLA BLA BLA BLA BLA BLA BLA BLA BLA BLA BLA BLA BLA BLA BLA 
BLA BLA BLA BLA BLA BLA BLA BLA BLA BLA BLA BLA BLA BLA BLA BLA BLA BLA BLA BLA 
BLA BLA BLA BLA BLA BLA BLA BLA BLA BLA BLA BLA BLA BLA BLA BLA BLA BLA BLA BLA 
BLA BLA BLA BLA BLA BLA BLA BLA BLA BLA BLA BLA BLA BLA BLA BLA BLA BLA BLA BLA 
BLA BLA BLA BLA BLA BLA BLA BLA BLA BLA BLA BLA BLA BLA BLA BLA BLA BLA BLA BLA 
BLA BLA BLA BLA BLA BLA BLA BLA BLA BLA BLA BLA BLA BLA BLA BLA BLA BLA BLA BLA 
BLA BLA BLA BLA BLA BLA BLA BLA BLA BLA BLA BLA BLA BLA BLA BLA BLA BLA BLA BLA 
BLA BLA BLA BLA BLA BLA BLA BLA BLA BLA BLA BLA BLA BLA BLA BLA BLA BLA BLA BLA 
BLA BLA BLA BLA BLA BLA BLA BLA BLA BLA BLA BLA BLA BLA BLA BLA BLA BLA BLA BLA 
BLA BLA BLA BLA BLA BLA BLA BLA BLA BLA BLA BLA BLA BLA BLA BLA BLA BLA BLA BLA 
BLA BLA BLA BLA BLA BLA BLA BLA BLA BLA BLA BLA BLA BLA BLA BLA BLA BLA BLA BLA 
BLA BLA BLA BLA BLA BLA BLA BLA BLA BLA BLA BLA BLA BLA BLA BLA BLA BLA BLA BLA 
BLA BLA BLA BLA BLA BLA BLA BLA BLA BLA BLA BLA BLA BLA BLA BLA BLA BLA BLA BLA 
BLA BLA BLA BLA BLA BLA BLA BLA BLA BLA BLA BLA BLA BLA BLA BLA BLA BLA BLA BLA 
BLA BLA BLA BLA BLA BLA BLA BLA BLA BLA BLA BLA BLA BLA BLA BLA BLA BLA BLA BLA 
BLA BLA BLA BLA BLA BLA BLA BLA BLA BLA BLA BLA BLA BLA BLA BLA BLA BLA BLA BLA 
BLA BLA BLA BLA BLA BLA BLA BLA BLA BLA BLA BLA BLA BLA BLA BLA BLA BLA BLA BLA 
BLA BLA BLA BLA BLA BLA BLA BLA BLA BLA BLA BLA BLA BLA BLA BLA BLA BLA BLA BLA 
BLA BLA BLA BLA BLA BLA BLA BLA BLA BLA BLA BLA BLA BLA BLA BLA BLA BLA BLA BLA 
BLA BLA BLA BLA BLA BLA BLA BLA BLA BLA BLA BLA BLA BLA BLA BLA BLA BLA BLA BLA 
BLA BLA BLA BLA BLA BLA BLA BLA BLA BLA BLA BLA BLA BLA BLA BLA BLA BLA BLA BLA 
BLA BLA BLA BLA BLA BLA BLA BLA BLA BLA BLA BLA BLA BLA BLA BLA BLA BLA BLA BLA 
BLA BLA BLA BLA BLA BLA BLA BLA BLA BLA BLA BLA BLA BLA BLA BLA BLA BLA BLA BLA 
BLA BLA BLA BLA BLA BLA BLA BLA BLA BLA BLA BLA BLA BLA BLA BLA BLA BLA BLA BLA 
BLA BLA BLA BLA BLA BLA BLA BLA BLA BLA BLA BLA BLA BLA BLA BLA BLA BLA BLA BLA 
BLA BLA BLA BLA BLA BLA BLA BLA BLA BLA BLA BLA BLA BLA BLA BLA BLA BLA BLA BLA 
BLA BLA BLA BLA BLA BLA BLA BLA BLA BLA BLA BLA BLA BLA BLA BLA BLA BLA BLA BLA 
BLA BLA BLA BLA BLA BLA BLA BLA BLA BLA BLA BLA BLA BLA BLA BLA BLA BLA BLA BLA 
BLA BLA BLA BLA BLA BLA BLA BLA BLA BLA BLA BLA BLA BLA BLA BLA BLA BLA BLA BLA 
BLA BLA BLA BLA BLA BLA BLA BLA BLA BLA BLA BLA BLA BLA BLA BLA BLA BLA BLA BLA 
BLA BLA BLA BLA BLA BLA BLA BLA BLA BLA BLA BLA BLA BLA BLA BLA BLA BLA BLA BLA 
BLA BLA BLA BLA BLA BLA BLA BLA BLA BLA BLA BLA BLA BLA BLA BLA BLA BLA BLA BLA 
BLA BLA BLA BLA BLA BLA BLA BLA BLA BLA BLA BLA BLA BLA BLA BLA BLA BLA BLA BLA 
BLA BLA BLA BLA BLA BLA BLA BLA BLA BLA BLA BLA BLA BLA BLA BLA BLA BLA BLA BLA 
BLA BLA BLA BLA BLA BLA BLA BLA BLA BLA BLA BLA BLA BLA BLA BLA BLA BLA BLA BLA 
BLA BLA BLA BLA BLA BLA BLA BLA BLA BLA BLA BLA BLA BLA BLA BLA BLA BLA BLA BLA 
BLA BLA BLA BLA BLA BLA BLA BLA BLA BLA BLA BLA BLA BLA BLA BLA BLA BLA BLA BLA 
BLA BLA BLA BLA BLA BLA BLA BLA BLA BLA BLA BLA BLA BLA BLA BLA BLA BLA BLA BLA 
BLA BLA BLA BLA BLA BLA BLA BLA BLA BLA BLA BLA BLA BLA BLA BLA BLA BLA BLA BLA 
BLA BLA BLA BLA BLA BLA BLA BLA BLA BLA BLA BLA BLA BLA BLA BLA BLA BLA BLA BLA 
BLA BLA BLA BLA BLA BLA BLA BLA BLA BLA BLA BLA BLA BLA BLA BLA BLA BLA BLA BLA 
BLA BLA BLA BLA BLA BLA BLA BLA BLA BLA BLA BLA BLA BLA BLA BLA BLA BLA BLA BLA 
BLA BLA BLA BLA BLA BLA BLA BLA BLA BLA BLA BLA BLA BLA BLA BLA BLA BLA BLA BLA 
BLA BLA BLA BLA BLA BLA BLA BLA BLA BLA BLA BLA BLA BLA BLA BLA BLA BLA BLA BLA 
BLA BLA BLA BLA BLA BLA BLA BLA BLA BLA BLA BLA BLA BLA BLA BLA BLA BLA BLA BLA 
BLA BLA BLA BLA BLA BLA BLA BLA BLA BLA BLA BLA BLA BLA BLA BLA BLA BLA BLA BLA 
BLA BLA BLA BLA BLA BLA BLA BLA BLA BLA BLA BLA BLA BLA BLA BLA BLA BLA BLA BLA 
BLA BLA BLA BLA BLA BLA BLA BLA BLA BLA BLA BLA BLA BLA BLA BLA BLA BLA BLA BLA 
BLA BLA BLA BLA BLA BLA BLA BLA BLA BLA BLA BLA BLA BLA BLA BLA BLA BLA BLA BLA 
BLA BLA BLA BLA BLA BLA BLA BLA BLA BLA BLA BLA BLA BLA BLA BLA BLA BLA BLA BLA 
BLA BLA BLA BLA BLA BLA BLA BLA BLA BLA BLA BLA BLA BLA BLA BLA BLA BLA BLA BLA 
BLA BLA BLA BLA BLA BLA BLA BLA BLA BLA BLA BLA BLA BLA BLA BLA BLA BLA BLA BLA 
BLA BLA BLA BLA BLA BLA BLA BLA BLA BLA BLA BLA BLA BLA BLA BLA BLA BLA BLA BLA 
BLA BLA BLA BLA BLA BLA BLA BLA BLA BLA BLA BLA BLA BLA BLA BLA BLA BLA BLA BLA 
BLA BLA BLA BLA BLA BLA BLA BLA BLA BLA BLA BLA BLA BLA BLA BLA BLA BLA BLA BLA 
BLA BLA BLA BLA BLA BLA BLA BLA BLA BLA BLA BLA BLA BLA BLA BLA BLA BLA BLA BLA 
BLA BLA BLA BLA BLA BLA BLA BLA BLA BLA BLA BLA BLA BLA BLA BLA BLA BLA BLA BLA 
BLA BLA BLA BLA BLA BLA BLA BLA BLA BLA BLA BLA BLA BLA BLA BLA BLA BLA BLA BLA 
BLA BLA BLA BLA BLA BLA BLA BLA BLA BLA BLA BLA BLA BLA BLA BLA BLA BLA BLA BLA 
BLA BLA BLA BLA BLA BLA BLA BLA BLA BLA BLA BLA BLA BLA BLA BLA BLA BLA BLA BLA 
BLA BLA BLA BLA BLA BLA BLA BLA BLA BLA BLA BLA BLA BLA BLA BLA BLA BLA BLA BLA 
BLA BLA BLA BLA BLA BLA BLA BLA BLA BLA BLA BLA BLA BLA BLA BLA BLA BLA BLA BLA 
BLA BLA BLA BLA BLA BLA BLA BLA BLA BLA BLA BLA BLA BLA BLA BLA BLA BLA BLA BLA 
BLA BLA BLA BLA BLA BLA BLA BLA BLA BLA BLA BLA BLA BLA BLA BLA BLA BLA BLA BLA 
BLA BLA BLA BLA BLA BLA BLA BLA BLA BLA BLA BLA BLA BLA BLA BLA BLA BLA BLA BLA 
BLA BLA BLA BLA BLA BLA BLA BLA BLA BLA BLA BLA BLA BLA BLA BLA BLA BLA BLA BLA 
BLA BLA BLA BLA BLA BLA BLA BLA BLA BLA BLA BLA BLA BLA BLA BLA BLA BLA BLA BLA 
BLA BLA BLA BLA BLA BLA BLA BLA BLA BLA BLA BLA BLA BLA BLA BLA BLA BLA BLA BLA 
BLA BLA BLA BLA BLA BLA BLA BLA BLA BLA BLA BLA BLA BLA BLA BLA BLA BLA BLA BLA 
BLA BLA BLA BLA BLA BLA BLA BLA BLA BLA BLA BLA BLA BLA BLA BLA BLA BLA BLA BLA 
BLA BLA BLA BLA BLA BLA BLA BLA BLA BLA BLA BLA BLA BLA BLA BLA BLA BLA BLA BLA 
BLA BLA BLA BLA BLA BLA BLA BLA BLA BLA BLA BLA BLA BLA BLA BLA BLA BLA BLA BLA 
BLA BLA BLA BLA BLA BLA BLA BLA BLA BLA BLA BLA BLA BLA BLA BLA BLA BLA BLA BLA 
BLA BLA BLA BLA BLA BLA BLA BLA BLA BLA BLA BLA BLA BLA BLA BLA BLA BLA BLA BLA 
BLA BLA BLA BLA BLA BLA BLA BLA BLA BLA BLA BLA BLA BLA BLA BLA BLA BLA BLA BLA 
BLA BLA BLA BLA BLA BLA BLA BLA BLA BLA BLA BLA BLA BLA BLA BLA BLA BLA BLA BLA 
BLA BLA BLA BLA BLA BLA BLA BLA BLA BLA BLA BLA BLA BLA BLA BLA BLA BLA BLA BLA 
BLA BLA BLA BLA BLA BLA BLA BLA BLA BLA BLA BLA BLA BLA BLA BLA BLA BLA BLA BLA 
BLA BLA BLA BLA BLA BLA BLA BLA BLA BLA BLA BLA BLA BLA BLA BLA BLA BLA BLA BLA 
BLA BLA BLA BLA BLA BLA BLA BLA BLA BLA BLA BLA BLA BLA BLA BLA BLA BLA BLA BLA 
BLA BLA BLA BLA BLA BLA BLA BLA BLA BLA BLA BLA BLA BLA BLA BLA BLA BLA BLA BLA 
BLA BLA BLA BLA BLA BLA BLA BLA BLA BLA BLA BLA BLA BLA BLA BLA BLA BLA BLA BLA 
BLA BLA BLA BLA BLA BLA BLA BLA BLA BLA BLA BLA BLA BLA BLA BLA BLA BLA BLA BLA 
BLA BLA BLA BLA BLA BLA BLA BLA BLA BLA BLA BLA BLA BLA BLA BLA BLA BLA BLA BLA 
BLA BLA BLA BLA BLA BLA BLA BLA BLA BLA BLA BLA BLA BLA BLA BLA BLA BLA BLA BLA 
BLA BLA BLA BLA BLA BLA BLA BLA BLA BLA BLA BLA BLA BLA BLA BLA BLA BLA BLA BLA 
BLA BLA BLA BLA BLA BLA BLA BLA BLA BLA BLA BLA BLA BLA BLA BLA BLA BLA BLA BLA 
BLA BLA BLA BLA BLA BLA BLA BLA BLA BLA BLA BLA BLA BLA BLA BLA BLA BLA BLA BLA 
BLA BLA BLA BLA BLA BLA BLA BLA BLA BLA BLA BLA BLA BLA BLA BLA BLA BLA BLA BLA 
BLA BLA BLA BLA BLA BLA BLA BLA BLA BLA BLA BLA BLA BLA BLA BLA BLA BLA BLA BLA 
BLA BLA BLA BLA BLA BLA BLA BLA BLA BLA BLA BLA BLA BLA BLA BLA BLA BLA BLA BLA 
BLA BLA BLA BLA BLA BLA BLA BLA BLA BLA BLA BLA BLA BLA BLA BLA BLA BLA BLA BLA 
BLA BLA BLA BLA BLA BLA BLA BLA BLA BLA BLA BLA BLA BLA BLA BLA BLA BLA BLA BLA 
BLA BLA BLA BLA BLA BLA BLA BLA BLA BLA BLA BLA BLA BLA BLA BLA BLA BLA BLA BLA 
BLA BLA BLA BLA BLA BLA BLA BLA BLA BLA BLA BLA BLA BLA BLA BLA BLA BLA BLA BLA 
BLA BLA BLA BLA BLA BLA BLA BLA BLA BLA BLA BLA BLA BLA BLA BLA BLA BLA BLA BLA 
BLA BLA BLA BLA BLA BLA BLA BLA BLA BLA BLA BLA BLA BLA BLA BLA BLA BLA BLA BLA 
BLA BLA BLA BLA BLA BLA BLA BLA BLA BLA BLA BLA BLA BLA BLA BLA BLA BLA BLA BLA 
BLA BLA BLA BLA BLA BLA BLA BLA BLA BLA BLA BLA BLA BLA BLA BLA BLA BLA BLA BLA 
BLA BLA BLA BLA BLA BLA BLA BLA BLA BLA BLA BLA BLA BLA BLA BLA BLA BLA BLA BLA 
BLA BLA BLA BLA BLA BLA BLA BLA BLA BLA BLA BLA BLA BLA BLA BLA BLA BLA BLA BLA 
BLA BLA BLA BLA BLA BLA BLA BLA BLA BLA BLA BLA BLA BLA BLA BLA BLA BLA BLA BLA 
BLA BLA BLA BLA BLA BLA BLA BLA BLA BLA BLA BLA BLA BLA BLA BLA BLA BLA BLA BLA 
BLA BLA BLA BLA BLA BLA BLA BLA BLA BLA BLA BLA BLA BLA BLA BLA BLA BLA BLA BLA 
BLA BLA BLA BLA BLA BLA BLA BLA BLA BLA BLA BLA BLA BLA BLA BLA BLA BLA BLA BLA 
BLA BLA BLA BLA BLA BLA BLA BLA BLA BLA BLA BLA BLA BLA BLA BLA BLA BLA BLA BLA 
BLA BLA BLA BLA BLA BLA BLA BLA BLA BLA BLA BLA BLA BLA BLA BLA BLA BLA BLA BLA 
BLA BLA BLA BLA BLA BLA BLA BLA BLA BLA BLA BLA BLA BLA BLA BLA BLA BLA BLA BLA 
BLA BLA BLA BLA BLA BLA BLA BLA BLA BLA BLA BLA BLA BLA BLA BLA BLA BLA BLA BLA 
BLA BLA BLA BLA BLA BLA BLA BLA BLA BLA BLA BLA BLA BLA BLA BLA BLA BLA BLA BLA 
BLA BLA BLA BLA BLA BLA BLA BLA BLA BLA BLA BLA BLA BLA BLA BLA BLA BLA BLA BLA 
BLA BLA BLA BLA BLA BLA BLA BLA BLA BLA BLA BLA BLA BLA BLA BLA BLA BLA BLA BLA 
BLA BLA BLA BLA BLA BLA BLA BLA BLA BLA BLA BLA BLA BLA BLA BLA BLA BLA BLA BLA 
BLA BLA BLA BLA BLA BLA BLA BLA BLA BLA BLA BLA BLA BLA BLA BLA BLA BLA BLA BLA 
BLA BLA BLA BLA BLA BLA BLA BLA BLA BLA BLA BLA BLA BLA BLA BLA BLA BLA BLA BLA 
BLA BLA BLA BLA BLA BLA BLA BLA BLA BLA BLA BLA BLA BLA BLA BLA BLA BLA BLA BLA 
BLA BLA BLA BLA BLA BLA BLA BLA BLA BLA BLA BLA BLA BLA BLA BLA BLA BLA BLA BLA 
BLA BLA BLA BLA BLA BLA BLA BLA BLA BLA BLA BLA BLA BLA BLA BLA BLA BLA BLA BLA 
BLA BLA BLA BLA BLA BLA BLA BLA BLA BLA BLA BLA BLA BLA BLA BLA BLA BLA BLA BLA 
BLA BLA BLA BLA BLA BLA BLA BLA BLA BLA BLA BLA BLA BLA BLA BLA BLA BLA BLA BLA 
BLA BLA BLA BLA BLA BLA BLA BLA BLA BLA BLA BLA BLA BLA BLA BLA BLA BLA BLA BLA 
BLA BLA BLA BLA BLA BLA BLA BLA BLA BLA BLA BLA BLA BLA BLA BLA BLA BLA BLA BLA 
BLA BLA BLA BLA BLA BLA BLA BLA BLA BLA BLA BLA BLA BLA BLA BLA BLA BLA BLA BLA 
BLA BLA BLA BLA BLA BLA BLA BLA BLA BLA BLA BLA BLA BLA BLA BLA BLA BLA BLA BLA 
BLA BLA BLA BLA BLA BLA BLA BLA BLA BLA BLA BLA BLA BLA BLA BLA BLA BLA BLA BLA 
BLA BLA BLA BLA BLA BLA BLA BLA BLA BLA BLA BLA BLA BLA BLA BLA BLA BLA BLA BLA 
BLA BLA BLA BLA BLA BLA BLA BLA BLA BLA BLA BLA BLA BLA BLA BLA BLA BLA BLA BLA 
BLA BLA BLA BLA BLA BLA BLA BLA BLA BLA BLA BLA BLA BLA BLA BLA BLA BLA BLA BLA 
BLA BLA BLA BLA BLA BLA BLA BLA BLA BLA BLA BLA BLA BLA BLA BLA BLA BLA BLA BLA 
BLA BLA BLA BLA BLA BLA BLA BLA BLA BLA BLA BLA BLA BLA BLA BLA BLA BLA BLA BLA 
BLA BLA BLA BLA BLA BLA BLA BLA BLA BLA BLA BLA BLA BLA BLA BLA BLA BLA BLA BLA 
BLA BLA BLA BLA BLA BLA BLA BLA BLA BLA BLA BLA BLA BLA BLA BLA BLA BLA BLA BLA 
BLA BLA BLA BLA BLA BLA BLA BLA BLA BLA BLA BLA BLA BLA BLA BLA BLA BLA BLA BLA 
BLA BLA BLA BLA BLA BLA BLA BLA BLA BLA BLA BLA BLA BLA BLA BLA BLA BLA BLA BLA 
BLA BLA BLA BLA BLA BLA BLA BLA BLA BLA BLA BLA BLA BLA BLA BLA BLA BLA BLA BLA 
BLA BLA BLA BLA BLA BLA BLA BLA BLA BLA BLA BLA BLA BLA BLA BLA BLA BLA BLA BLA 
BLA BLA BLA BLA BLA BLA BLA BLA BLA BLA BLA BLA BLA BLA BLA BLA BLA BLA BLA BLA 
BLA BLA BLA BLA BLA BLA BLA BLA BLA BLA BLA BLA BLA BLA BLA BLA BLA BLA BLA BLA 
BLA BLA BLA BLA BLA BLA BLA BLA BLA BLA BLA BLA BLA BLA BLA BLA BLA BLA BLA BLA 
BLA BLA BLA BLA BLA BLA BLA BLA BLA BLA BLA BLA BLA BLA BLA BLA BLA BLA BLA BLA 
BLA BLA BLA BLA BLA BLA BLA BLA BLA BLA BLA BLA BLA BLA BLA BLA BLA BLA BLA BLA 
BLA BLA BLA BLA BLA BLA BLA BLA BLA BLA BLA BLA BLA BLA BLA BLA BLA BLA BLA BLA 
BLA BLA BLA BLA BLA BLA BLA BLA BLA BLA BLA BLA BLA BLA BLA BLA BLA BLA BLA BLA 
BLA BLA BLA BLA BLA BLA BLA BLA BLA BLA BLA BLA BLA BLA BLA BLA BLA BLA BLA BLA 
BLA BLA BLA BLA BLA BLA BLA BLA BLA BLA BLA BLA BLA BLA BLA BLA BLA BLA BLA BLA 
BLA BLA BLA BLA BLA BLA BLA BLA BLA BLA BLA BLA BLA BLA BLA BLA BLA BLA BLA BLA 
BLA BLA BLA BLA BLA BLA BLA BLA BLA BLA BLA BLA BLA BLA BLA BLA BLA BLA BLA BLA 
BLA BLA BLA BLA BLA BLA BLA BLA BLA BLA BLA BLA BLA BLA BLA BLA BLA BLA BLA BLA 
BLA BLA BLA BLA BLA BLA BLA BLA BLA BLA BLA BLA BLA BLA BLA BLA BLA BLA BLA BLA 
BLA BLA BLA BLA BLA BLA BLA BLA BLA BLA BLA BLA BLA BLA BLA BLA BLA BLA BLA BLA 
BLA BLA BLA BLA BLA BLA BLA BLA BLA BLA BLA BLA BLA BLA BLA BLA BLA BLA BLA BLA 
BLA BLA BLA BLA BLA BLA BLA BLA BLA BLA BLA BLA BLA BLA BLA BLA BLA BLA BLA BLA 
BLA BLA BLA BLA BLA BLA BLA BLA BLA BLA BLA BLA BLA BLA BLA BLA BLA BLA BLA BLA 
BLA BLA BLA BLA BLA BLA BLA BLA BLA BLA BLA BLA BLA BLA BLA BLA BLA BLA BLA BLA 
BLA BLA BLA BLA BLA BLA BLA BLA BLA BLA BLA BLA BLA BLA BLA BLA BLA BLA BLA BLA 
BLA BLA BLA BLA BLA BLA BLA BLA BLA BLA BLA BLA BLA BLA BLA BLA BLA BLA BLA BLA 
BLA BLA BLA BLA BLA BLA BLA BLA BLA BLA BLA BLA BLA BLA BLA BLA BLA BLA BLA BLA 
BLA BLA BLA BLA BLA BLA BLA BLA BLA BLA BLA BLA BLA BLA BLA BLA BLA BLA BLA BLA 
BLA BLA BLA BLA BLA BLA BLA BLA BLA BLA BLA BLA BLA BLA BLA BLA BLA BLA BLA BLA 
BLA BLA BLA BLA BLA BLA BLA BLA BLA BLA BLA BLA BLA BLA BLA BLA BLA BLA BLA BLA 
BLA BLA BLA BLA BLA BLA BLA BLA BLA BLA BLA BLA BLA BLA BLA BLA BLA BLA BLA BLA 
BLA BLA BLA BLA BLA BLA BLA BLA BLA BLA BLA BLA BLA BLA BLA BLA BLA BLA BLA BLA 
BLA BLA BLA BLA BLA BLA BLA BLA BLA BLA BLA BLA BLA BLA BLA BLA BLA BLA BLA BLA 
BLA BLA BLA BLA BLA BLA BLA BLA BLA BLA BLA BLA BLA BLA BLA BLA BLA BLA BLA BLA 
BLA BLA BLA BLA BLA BLA BLA BLA BLA BLA BLA BLA BLA BLA BLA BLA BLA BLA BLA BLA 
BLA BLA BLA BLA BLA BLA BLA BLA BLA BLA BLA BLA BLA BLA BLA BLA BLA BLA BLA BLA 
BLA BLA BLA BLA BLA BLA BLA BLA BLA BLA BLA BLA BLA BLA BLA BLA BLA BLA BLA BLA 
BLA BLA BLA BLA BLA BLA BLA BLA BLA BLA BLA BLA BLA BLA BLA BLA BLA BLA BLA BLA 
BLA BLA BLA BLA BLA BLA BLA BLA BLA BLA BLA BLA BLA BLA BLA BLA BLA BLA BLA BLA 
BLA BLA BLA BLA BLA BLA BLA BLA BLA BLA BLA BLA BLA BLA BLA BLA BLA BLA BLA BLA 
BLA BLA BLA BLA BLA BLA BLA BLA BLA BLA BLA BLA BLA BLA BLA BLA BLA BLA BLA BLA 
BLA BLA BLA BLA BLA BLA BLA BLA BLA BLA BLA BLA BLA BLA BLA BLA BLA BLA BLA BLA 
BLA BLA BLA BLA BLA BLA BLA BLA BLA BLA BLA BLA BLA BLA BLA BLA BLA BLA BLA BLA 
BLA BLA BLA BLA BLA BLA BLA BLA BLA BLA BLA BLA BLA BLA BLA BLA BLA BLA BLA BLA 
BLA BLA BLA BLA BLA BLA BLA BLA BLA BLA BLA BLA BLA BLA BLA BLA BLA BLA BLA BLA 
BLA BLA BLA BLA BLA BLA BLA BLA BLA BLA BLA BLA BLA BLA BLA BLA BLA BLA BLA BLA 
BLA BLA BLA BLA BLA BLA BLA BLA BLA BLA BLA BLA BLA BLA BLA BLA BLA BLA BLA BLA 
BLA BLA BLA BLA BLA BLA BLA BLA BLA BLA BLA BLA BLA BLA BLA BLA BLA BLA BLA BLA 
BLA BLA BLA BLA BLA BLA BLA BLA BLA BLA BLA BLA BLA BLA BLA BLA BLA BLA BLA BLA 
BLA BLA BLA BLA BLA BLA BLA BLA BLA BLA BLA BLA BLA BLA BLA BLA BLA BLA BLA BLA 
BLA BLA BLA BLA BLA BLA BLA BLA BLA BLA BLA BLA BLA BLA BLA BLA BLA BLA BLA BLA 
BLA BLA BLA BLA BLA BLA BLA BLA BLA BLA BLA BLA BLA BLA BLA BLA BLA BLA BLA BLA 
BLA BLA BLA BLA BLA BLA BLA BLA BLA BLA BLA BLA BLA BLA BLA BLA BLA BLA BLA BLA 
BLA BLA BLA BLA BLA BLA BLA BLA BLA BLA BLA BLA BLA BLA BLA BLA BLA BLA BLA BLA 
BLA BLA BLA BLA BLA BLA BLA BLA BLA BLA BLA BLA BLA BLA BLA BLA BLA BLA BLA BLA 
BLA BLA BLA BLA BLA BLA BLA BLA BLA BLA BLA BLA BLA BLA BLA BLA BLA BLA BLA BLA 
BLA BLA BLA BLA BLA BLA BLA BLA BLA BLA BLA BLA BLA BLA BLA BLA BLA BLA BLA BLA 
BLA BLA BLA BLA BLA BLA BLA BLA BLA BLA BLA BLA BLA BLA BLA BLA BLA BLA BLA BLA 
BLA BLA BLA BLA BLA BLA BLA BLA BLA BLA BLA BLA BLA BLA BLA BLA BLA BLA BLA BLA 
BLA BLA BLA BLA BLA BLA BLA BLA BLA BLA BLA BLA BLA BLA BLA BLA BLA BLA BLA BLA 
BLA BLA BLA BLA BLA BLA BLA BLA BLA BLA BLA BLA BLA BLA BLA BLA BLA BLA BLA BLA 
BLA BLA BLA BLA BLA BLA BLA BLA BLA BLA BLA BLA BLA BLA BLA BLA BLA BLA BLA BLA 
BLA BLA BLA BLA BLA BLA BLA BLA BLA BLA BLA BLA BLA BLA BLA BLA BLA BLA BLA BLA 
BLA BLA BLA BLA BLA BLA BLA BLA BLA BLA BLA BLA BLA BLA BLA BLA BLA BLA BLA BLA 
BLA BLA BLA BLA BLA BLA BLA BLA BLA BLA BLA BLA BLA BLA BLA BLA BLA BLA BLA BLA 
BLA BLA BLA BLA BLA BLA BLA BLA BLA BLA BLA BLA BLA BLA BLA BLA BLA BLA BLA BLA 
BLA BLA BLA BLA BLA BLA BLA BLA BLA BLA BLA BLA BLA BLA BLA BLA BLA BLA BLA BLA 
BLA BLA BLA BLA BLA BLA BLA BLA BLA BLA BLA BLA BLA BLA BLA BLA BLA BLA BLA BLA 
BLA BLA BLA BLA BLA BLA BLA BLA BLA BLA BLA BLA BLA BLA BLA BLA BLA BLA BLA BLA 
BLA BLA BLA BLA BLA BLA BLA BLA BLA BLA BLA BLA BLA BLA BLA BLA BLA BLA BLA BLA 
BLA BLA BLA BLA BLA BLA BLA BLA BLA BLA BLA BLA BLA BLA BLA BLA BLA BLA BLA BLA 
BLA BLA BLA BLA BLA BLA BLA BLA BLA BLA BLA BLA BLA BLA BLA BLA BLA BLA BLA BLA 
BLA BLA BLA BLA BLA BLA BLA BLA BLA BLA BLA BLA BLA BLA BLA BLA BLA BLA BLA BLA 
BLA BLA BLA BLA BLA BLA BLA BLA BLA BLA BLA BLA BLA BLA BLA BLA BLA BLA BLA BLA 
BLA BLA BLA BLA BLA BLA BLA BLA BLA BLA BLA BLA BLA BLA BLA BLA BLA BLA BLA BLA 
BLA BLA BLA BLA BLA BLA BLA BLA BLA BLA BLA BLA BLA BLA BLA BLA BLA BLA BLA BLA 
BLA BLA BLA BLA BLA BLA BLA BLA BLA BLA BLA BLA BLA BLA BLA BLA BLA BLA BLA BLA 
BLA BLA BLA BLA BLA BLA BLA BLA BLA BLA BLA BLA BLA BLA BLA BLA BLA BLA BLA BLA 
BLA BLA BLA BLA BLA BLA BLA BLA BLA BLA BLA BLA BLA BLA BLA BLA BLA BLA BLA BLA 
BLA BLA BLA BLA BLA BLA BLA BLA BLA BLA BLA BLA BLA BLA BLA BLA BLA BLA BLA BLA 
BLA BLA BLA BLA BLA BLA BLA BLA BLA BLA BLA BLA BLA BLA BLA BLA BLA BLA BLA BLA 
BLA BLA BLA BLA BLA BLA BLA BLA BLA BLA BLA BLA BLA BLA BLA BLA BLA BLA BLA BLA 
BLA BLA BLA BLA BLA BLA BLA BLA BLA BLA BLA BLA BLA BLA BLA BLA BLA BLA BLA BLA 
BLA BLA BLA BLA BLA BLA BLA BLA BLA BLA BLA BLA BLA BLA BLA BLA BLA BLA BLA BLA 
BLA BLA BLA BLA BLA BLA BLA BLA BLA BLA BLA BLA BLA BLA BLA BLA BLA BLA BLA BLA 
BLA BLA BLA BLA BLA BLA BLA BLA BLA BLA BLA BLA BLA BLA BLA BLA BLA BLA BLA BLA 
BLA BLA BLA BLA BLA BLA BLA BLA BLA BLA BLA BLA BLA BLA BLA BLA BLA BLA BLA BLA 
BLA BLA BLA BLA BLA BLA BLA BLA BLA BLA BLA BLA BLA BLA BLA BLA BLA BLA BLA BLA 
BLA BLA BLA BLA BLA BLA BLA BLA BLA BLA BLA BLA BLA BLA BLA BLA BLA BLA BLA BLA 
BLA BLA BLA BLA BLA BLA BLA BLA BLA BLA BLA BLA BLA BLA BLA BLA BLA BLA BLA BLA 
BLA BLA BLA BLA BLA BLA BLA BLA BLA BLA BLA BLA BLA BLA BLA BLA BLA BLA BLA BLA 
BLA BLA BLA BLA BLA BLA BLA BLA BLA BLA BLA BLA BLA BLA BLA BLA BLA BLA BLA BLA 
BLA BLA BLA BLA BLA BLA BLA BLA BLA BLA BLA BLA BLA BLA BLA BLA BLA BLA BLA BLA 
BLA BLA BLA BLA BLA BLA BLA BLA BLA BLA BLA BLA BLA BLA BLA BLA BLA BLA BLA BLA 
BLA BLA BLA BLA BLA BLA BLA BLA BLA BLA BLA BLA BLA BLA BLA BLA BLA BLA BLA BLA 
BLA BLA BLA BLA BLA BLA BLA BLA BLA BLA BLA BLA BLA BLA BLA BLA BLA BLA BLA BLA 
BLA BLA BLA BLA BLA BLA BLA BLA BLA BLA BLA BLA BLA BLA BLA BLA BLA BLA BLA BLA 
BLA BLA BLA BLA BLA BLA BLA BLA BLA BLA BLA BLA BLA BLA BLA BLA BLA BLA BLA BLA 
BLA BLA BLA BLA BLA BLA BLA BLA BLA BLA BLA BLA BLA BLA BLA BLA BLA BLA BLA BLA 
BLA BLA BLA BLA BLA BLA BLA BLA BLA BLA BLA BLA BLA BLA BLA BLA BLA BLA BLA BLA 
BLA BLA BLA BLA BLA BLA BLA BLA BLA BLA BLA BLA BLA BLA BLA BLA BLA BLA BLA BLA 
BLA BLA BLA BLA BLA BLA BLA BLA BLA BLA BLA BLA BLA BLA BLA BLA BLA BLA BLA BLA 
BLA BLA BLA BLA BLA BLA BLA BLA BLA BLA BLA BLA BLA BLA BLA BLA BLA BLA BLA BLA 
BLA BLA BLA BLA BLA BLA BLA BLA BLA BLA BLA BLA BLA BLA BLA BLA BLA BLA BLA BLA 
BLA BLA BLA BLA BLA BLA BLA BLA BLA BLA BLA BLA BLA BLA BLA BLA BLA BLA BLA BLA 
BLA BLA BLA BLA BLA BLA BLA BLA BLA BLA BLA BLA BLA BLA BLA BLA BLA BLA BLA BLA 
BLA BLA BLA BLA BLA BLA BLA BLA BLA BLA BLA BLA BLA BLA BLA BLA BLA BLA BLA BLA 
BLA BLA BLA BLA BLA BLA BLA BLA BLA BLA BLA BLA BLA BLA BLA BLA BLA BLA BLA BLA 
BLA BLA BLA BLA BLA BLA BLA BLA BLA BLA BLA BLA BLA BLA BLA BLA BLA BLA BLA BLA 
BLA BLA BLA BLA BLA BLA BLA BLA BLA BLA BLA BLA BLA BLA BLA BLA BLA BLA BLA BLA 
BLA BLA BLA BLA BLA BLA BLA BLA BLA BLA BLA BLA BLA BLA BLA BLA BLA BLA BLA BLA 
BLA BLA BLA BLA BLA BLA BLA BLA BLA BLA BLA BLA BLA BLA BLA BLA BLA BLA BLA BLA 
BLA BLA BLA BLA BLA BLA BLA BLA BLA BLA BLA BLA BLA BLA BLA BLA BLA BLA BLA BLA 
BLA BLA BLA BLA BLA BLA BLA BLA BLA BLA BLA BLA BLA BLA BLA BLA BLA BLA BLA BLA 
BLA BLA BLA BLA BLA BLA BLA BLA BLA BLA BLA BLA BLA BLA BLA BLA BLA BLA BLA BLA 
BLA BLA BLA BLA BLA BLA BLA BLA BLA BLA BLA BLA BLA BLA BLA BLA BLA BLA BLA BLA 
BLA BLA BLA BLA BLA BLA BLA BLA BLA BLA BLA BLA BLA BLA BLA BLA BLA BLA BLA BLA 
BLA BLA BLA BLA BLA BLA BLA BLA BLA BLA BLA BLA BLA BLA BLA BLA BLA BLA BLA BLA 
BLA BLA BLA BLA BLA BLA BLA BLA BLA BLA BLA BLA BLA BLA BLA BLA BLA BLA BLA BLA 
BLA BLA BLA BLA BLA BLA BLA BLA BLA BLA BLA BLA BLA BLA BLA BLA BLA BLA BLA BLA 
BLA BLA BLA BLA BLA BLA BLA BLA BLA BLA BLA BLA BLA BLA BLA BLA BLA BLA BLA BLA 
BLA BLA BLA BLA BLA BLA BLA BLA BLA BLA BLA BLA BLA BLA BLA BLA BLA BLA BLA BLA 
BLA BLA BLA BLA BLA BLA BLA BLA BLA BLA BLA BLA BLA BLA BLA BLA BLA BLA BLA BLA 
BLA BLA BLA BLA BLA BLA BLA BLA BLA BLA BLA BLA BLA BLA BLA BLA BLA BLA BLA BLA 
BLA BLA BLA BLA BLA BLA BLA BLA BLA BLA BLA BLA BLA BLA BLA BLA BLA BLA BLA BLA 
BLA BLA BLA BLA BLA BLA BLA BLA BLA BLA BLA BLA BLA BLA BLA BLA BLA BLA BLA BLA 
BLA BLA BLA BLA BLA BLA BLA BLA BLA BLA BLA BLA BLA BLA BLA BLA BLA BLA BLA BLA 
BLA BLA BLA BLA BLA BLA BLA BLA BLA BLA BLA BLA BLA BLA BLA BLA BLA BLA BLA BLA 
BLA BLA BLA BLA BLA BLA BLA BLA BLA BLA BLA BLA BLA BLA BLA BLA BLA BLA BLA BLA 
BLA BLA BLA BLA BLA BLA BLA BLA BLA BLA BLA BLA BLA BLA BLA BLA BLA BLA BLA BLA 
BLA BLA BLA BLA BLA BLA BLA BLA BLA BLA BLA BLA BLA BLA BLA BLA BLA BLA BLA BLA 
BLA BLA BLA BLA BLA BLA BLA BLA BLA BLA BLA BLA BLA BLA BLA BLA BLA BLA BLA BLA 
BLA BLA BLA BLA BLA BLA BLA BLA BLA BLA BLA BLA BLA BLA BLA BLA BLA BLA BLA BLA 
BLA BLA BLA BLA BLA BLA BLA BLA BLA BLA BLA BLA BLA BLA BLA BLA BLA BLA BLA BLA 
BLA BLA BLA BLA BLA BLA BLA BLA BLA BLA BLA BLA BLA BLA BLA BLA BLA BLA BLA BLA 
BLA BLA BLA BLA BLA BLA BLA BLA BLA BLA BLA BLA BLA BLA BLA BLA BLA BLA BLA BLA 
BLA BLA BLA BLA BLA BLA BLA BLA BLA BLA BLA BLA BLA BLA BLA BLA BLA BLA BLA BLA 
BLA BLA BLA BLA BLA BLA BLA BLA BLA BLA BLA BLA BLA BLA BLA BLA BLA BLA BLA BLA 
BLA BLA BLA BLA BLA BLA BLA BLA BLA BLA BLA BLA BLA BLA BLA BLA BLA BLA BLA BLA 
BLA BLA BLA BLA BLA BLA BLA BLA BLA BLA BLA BLA BLA BLA BLA BLA BLA BLA BLA BLA 
BLA BLA BLA BLA BLA BLA BLA BLA BLA BLA BLA BLA BLA BLA BLA BLA BLA BLA BLA BLA 
BLA BLA BLA BLA BLA BLA BLA BLA BLA BLA BLA BLA BLA BLA BLA BLA BLA BLA BLA BLA 
BLA BLA BLA BLA BLA BLA BLA BLA BLA BLA BLA BLA BLA BLA BLA BLA BLA BLA BLA BLA 
BLA BLA BLA BLA BLA BLA BLA BLA BLA BLA BLA BLA BLA BLA BLA BLA BLA BLA BLA BLA 
BLA BLA BLA BLA BLA BLA BLA BLA BLA BLA BLA BLA BLA BLA BLA BLA BLA BLA BLA BLA 
BLA BLA BLA BLA BLA BLA BLA BLA BLA BLA BLA BLA BLA BLA BLA BLA BLA BLA BLA BLA 
BLA BLA BLA BLA BLA BLA BLA BLA BLA BLA BLA BLA BLA BLA BLA BLA BLA BLA BLA BLA 
BLA BLA BLA BLA BLA BLA BLA BLA BLA BLA BLA BLA BLA BLA BLA BLA BLA BLA BLA BLA 
BLA BLA BLA BLA BLA BLA BLA BLA BLA BLA BLA BLA BLA BLA BLA BLA BLA BLA BLA BLA 
BLA BLA BLA BLA BLA BLA BLA BLA BLA BLA BLA BLA BLA BLA BLA BLA BLA BLA BLA BLA 
BLA BLA BLA BLA BLA BLA BLA BLA BLA BLA BLA BLA BLA BLA BLA BLA BLA BLA BLA BLA 
BLA BLA BLA BLA BLA BLA BLA BLA BLA BLA BLA BLA BLA BLA BLA BLA BLA BLA BLA BLA 
BLA BLA BLA BLA BLA BLA BLA BLA BLA BLA BLA BLA BLA BLA BLA BLA BLA BLA BLA BLA 
BLA BLA BLA BLA BLA BLA BLA BLA BLA BLA BLA BLA BLA BLA BLA BLA BLA BLA BLA BLA 
BLA BLA BLA BLA BLA BLA BLA BLA BLA BLA BLA BLA BLA BLA BLA BLA BLA BLA BLA BLA 
BLA BLA BLA BLA BLA BLA BLA BLA BLA BLA BLA BLA BLA BLA BLA BLA BLA BLA BLA BLA 
BLA BLA BLA BLA BLA BLA BLA BLA BLA BLA BLA BLA BLA BLA BLA BLA BLA BLA BLA BLA 
BLA BLA BLA BLA BLA BLA BLA BLA BLA BLA BLA BLA BLA BLA BLA BLA BLA BLA BLA BLA 
BLA BLA BLA BLA BLA BLA BLA BLA BLA BLA BLA BLA BLA BLA BLA BLA BLA BLA BLA BLA 
BLA BLA BLA BLA BLA BLA BLA BLA BLA BLA BLA BLA BLA BLA BLA BLA BLA BLA BLA BLA 
BLA BLA BLA BLA BLA BLA BLA BLA BLA BLA BLA BLA BLA BLA BLA BLA BLA BLA BLA BLA 
BLA BLA BLA BLA BLA BLA BLA BLA BLA BLA BLA BLA BLA BLA BLA BLA BLA BLA BLA BLA 
BLA BLA BLA BLA BLA BLA BLA BLA BLA BLA BLA BLA BLA BLA BLA BLA BLA BLA BLA BLA 
BLA BLA BLA BLA BLA BLA BLA BLA BLA BLA BLA BLA BLA BLA BLA BLA BLA BLA BLA BLA 
BLA BLA BLA BLA BLA BLA BLA BLA BLA BLA BLA BLA BLA BLA BLA BLA BLA BLA BLA BLA 
BLA BLA BLA BLA BLA BLA BLA BLA BLA BLA BLA BLA BLA BLA BLA BLA BLA BLA BLA BLA 
BLA BLA BLA BLA BLA BLA BLA BLA BLA BLA BLA BLA BLA BLA BLA BLA BLA BLA BLA BLA 
BLA BLA BLA BLA BLA BLA BLA BLA BLA BLA BLA BLA BLA BLA BLA BLA BLA BLA BLA BLA 
BLA BLA BLA BLA BLA BLA BLA BLA BLA BLA BLA BLA BLA BLA BLA BLA BLA BLA BLA BLA 
BLA BLA BLA BLA BLA BLA BLA BLA BLA BLA BLA BLA BLA BLA BLA BLA BLA BLA BLA BLA 
BLA BLA BLA BLA BLA BLA BLA BLA BLA BLA BLA BLA BLA BLA BLA BLA BLA BLA BLA BLA 
BLA BLA BLA BLA BLA BLA BLA BLA BLA BLA BLA BLA BLA BLA BLA BLA BLA BLA BLA BLA 
BLA BLA BLA BLA BLA BLA BLA BLA BLA BLA BLA BLA BLA BLA BLA BLA BLA BLA BLA BLA 
BLA BLA BLA BLA BLA BLA BLA BLA BLA BLA BLA BLA BLA BLA BLA BLA BLA BLA BLA BLA 
BLA BLA BLA BLA BLA BLA BLA BLA BLA BLA BLA BLA BLA BLA BLA BLA BLA BLA BLA BLA 
BLA BLA BLA BLA BLA BLA BLA BLA BLA BLA BLA BLA BLA BLA BLA BLA BLA BLA BLA BLA 
BLA BLA BLA BLA BLA BLA BLA BLA BLA BLA BLA BLA BLA BLA BLA BLA BLA BLA BLA BLA 
BLA BLA BLA BLA BLA BLA BLA BLA BLA BLA BLA BLA BLA BLA BLA BLA BLA BLA BLA BLA 
BLA BLA BLA BLA BLA BLA BLA BLA BLA BLA BLA BLA BLA BLA BLA BLA BLA BLA BLA BLA 
BLA BLA BLA BLA BLA BLA BLA BLA BLA BLA BLA BLA BLA BLA BLA BLA BLA BLA BLA BLA 
BLA BLA BLA BLA BLA BLA BLA BLA BLA BLA BLA BLA BLA BLA BLA BLA BLA BLA BLA BLA 
BLA BLA BLA BLA BLA BLA BLA BLA BLA BLA BLA BLA BLA BLA BLA BLA BLA BLA BLA BLA 
BLA BLA BLA BLA BLA BLA BLA BLA BLA BLA BLA BLA BLA BLA BLA BLA BLA BLA BLA BLA 
BLA BLA BLA BLA BLA BLA BLA BLA BLA BLA BLA BLA BLA BLA BLA BLA BLA BLA BLA BLA 
BLA BLA BLA BLA BLA BLA BLA BLA BLA BLA BLA BLA BLA BLA BLA BLA BLA BLA BLA BLA 
BLA BLA BLA BLA BLA BLA BLA BLA BLA BLA BLA BLA BLA BLA BLA BLA BLA BLA BLA BLA 
BLA BLA BLA BLA BLA BLA BLA BLA BLA BLA BLA BLA BLA BLA BLA BLA BLA BLA BLA BLA 
BLA BLA BLA BLA BLA BLA BLA BLA BLA BLA BLA BLA BLA BLA BLA BLA BLA BLA BLA BLA 
BLA BLA BLA BLA BLA BLA BLA BLA BLA BLA BLA BLA BLA BLA BLA BLA BLA BLA BLA BLA 
BLA BLA BLA BLA BLA BLA BLA BLA BLA BLA BLA BLA BLA BLA BLA BLA BLA BLA BLA BLA 
BLA BLA BLA BLA BLA BLA BLA BLA BLA BLA BLA BLA BLA BLA BLA BLA BLA BLA BLA BLA 
BLA BLA BLA BLA BLA BLA BLA BLA BLA BLA BLA BLA BLA BLA BLA BLA BLA BLA BLA BLA 
BLA BLA BLA BLA BLA BLA BLA BLA BLA BLA BLA BLA BLA BLA BLA BLA BLA BLA BLA BLA 
BLA BLA BLA BLA BLA BLA BLA BLA BLA BLA BLA BLA BLA BLA BLA BLA BLA BLA BLA BLA 
BLA BLA BLA BLA BLA BLA BLA BLA BLA BLA BLA BLA BLA BLA BLA BLA BLA BLA BLA BLA 
BLA BLA BLA BLA BLA BLA BLA BLA BLA BLA BLA BLA BLA BLA BLA BLA BLA BLA BLA BLA 
BLA BLA BLA BLA BLA BLA BLA BLA BLA BLA BLA BLA BLA BLA BLA BLA BLA BLA BLA BLA 
BLA BLA BLA BLA BLA BLA BLA BLA BLA BLA BLA BLA BLA BLA BLA BLA BLA BLA BLA BLA 
BLA BLA BLA BLA BLA BLA BLA BLA BLA BLA BLA BLA BLA BLA BLA BLA BLA BLA BLA BLA 
BLA BLA BLA BLA BLA BLA BLA BLA BLA BLA BLA BLA BLA BLA BLA BLA BLA BLA BLA BLA 
BLA BLA BLA BLA BLA BLA BLA BLA BLA BLA BLA BLA BLA BLA BLA BLA BLA BLA BLA BLA 
BLA BLA BLA BLA BLA BLA BLA BLA BLA BLA BLA BLA BLA BLA BLA BLA BLA BLA BLA BLA 
BLA BLA BLA BLA BLA BLA BLA BLA BLA BLA BLA BLA BLA BLA BLA BLA BLA BLA BLA BLA 
BLA BLA BLA BLA BLA BLA BLA BLA BLA BLA BLA BLA BLA BLA BLA BLA BLA BLA BLA BLA 
BLA BLA BLA BLA BLA BLA BLA BLA BLA BLA BLA BLA BLA BLA BLA BLA BLA BLA BLA BLA 
BLA BLA BLA BLA BLA BLA BLA BLA BLA BLA BLA BLA BLA BLA BLA BLA BLA BLA BLA BLA 
BLA BLA BLA BLA BLA BLA BLA BLA BLA BLA BLA BLA BLA BLA BLA BLA BLA BLA BLA BLA 
BLA BLA BLA BLA BLA BLA BLA BLA BLA BLA BLA BLA BLA BLA BLA BLA BLA BLA BLA BLA 
BLA BLA BLA BLA BLA BLA BLA BLA BLA BLA BLA BLA BLA BLA BLA BLA BLA BLA BLA BLA 
BLA BLA BLA BLA BLA BLA BLA BLA BLA BLA BLA BLA BLA BLA BLA BLA BLA BLA BLA BLA 
BLA BLA BLA BLA BLA BLA BLA BLA BLA BLA BLA BLA BLA BLA BLA BLA BLA BLA BLA BLA 
BLA BLA BLA BLA BLA BLA BLA BLA BLA BLA BLA BLA BLA BLA BLA BLA BLA BLA BLA BLA 
BLA BLA BLA BLA BLA BLA BLA BLA BLA BLA BLA BLA BLA BLA BLA BLA BLA BLA BLA BLA 
BLA BLA BLA BLA BLA BLA BLA BLA BLA BLA BLA BLA BLA BLA BLA BLA BLA BLA BLA BLA 
BLA BLA BLA BLA BLA BLA BLA BLA BLA BLA BLA BLA BLA BLA BLA BLA BLA BLA BLA BLA 
BLA BLA BLA BLA BLA BLA BLA BLA BLA BLA BLA BLA BLA BLA BLA BLA BLA BLA BLA BLA 
BLA BLA BLA BLA BLA BLA BLA BLA BLA BLA BLA BLA BLA BLA BLA BLA BLA BLA BLA BLA 
BLA BLA BLA BLA BLA BLA BLA BLA BLA BLA BLA BLA BLA BLA BLA BLA BLA BLA BLA BLA 
BLA BLA BLA BLA BLA BLA BLA BLA BLA BLA BLA BLA BLA BLA BLA BLA BLA BLA BLA BLA 
BLA BLA BLA BLA BLA BLA BLA BLA BLA BLA BLA BLA BLA BLA BLA BLA BLA BLA BLA BLA 
BLA BLA BLA BLA BLA BLA BLA BLA BLA BLA BLA BLA BLA BLA BLA BLA BLA BLA BLA BLA 
BLA BLA BLA BLA BLA BLA BLA BLA BLA BLA BLA BLA BLA BLA BLA BLA BLA BLA BLA BLA 
BLA BLA BLA BLA BLA BLA BLA BLA BLA BLA BLA BLA BLA BLA BLA BLA BLA BLA BLA BLA 
BLA BLA BLA BLA BLA BLA BLA BLA BLA BLA BLA BLA BLA BLA BLA BLA BLA BLA BLA BLA 
BLA BLA BLA BLA BLA BLA BLA BLA BLA BLA BLA BLA BLA BLA BLA BLA BLA BLA BLA BLA 
BLA BLA BLA BLA BLA BLA BLA BLA BLA BLA BLA BLA BLA BLA BLA BLA BLA BLA BLA BLA 
BLA BLA BLA BLA BLA BLA BLA BLA BLA BLA BLA BLA BLA BLA BLA BLA BLA BLA BLA BLA 
BLA BLA BLA BLA BLA BLA BLA BLA BLA BLA BLA BLA BLA BLA BLA BLA BLA BLA BLA BLA 
BLA BLA BLA BLA BLA BLA BLA BLA BLA BLA BLA BLA BLA BLA BLA BLA BLA BLA BLA BLA 
BLA BLA BLA BLA BLA BLA BLA BLA BLA BLA BLA BLA BLA BLA BLA BLA BLA BLA BLA BLA 
BLA BLA BLA BLA BLA BLA BLA BLA BLA BLA BLA BLA BLA BLA BLA BLA BLA BLA BLA BLA 
BLA BLA BLA BLA BLA BLA BLA BLA BLA BLA BLA BLA BLA BLA BLA BLA BLA BLA BLA BLA 
BLA BLA BLA BLA BLA BLA BLA BLA BLA BLA BLA BLA BLA BLA BLA BLA BLA BLA BLA BLA 
BLA BLA BLA BLA BLA BLA BLA BLA BLA BLA BLA BLA BLA BLA BLA BLA BLA BLA BLA BLA 
BLA BLA BLA BLA BLA BLA BLA BLA BLA BLA BLA BLA BLA BLA BLA BLA BLA BLA BLA BLA 
BLA BLA BLA BLA BLA BLA BLA BLA BLA BLA BLA BLA BLA BLA BLA BLA BLA BLA BLA BLA 
BLA BLA BLA BLA BLA BLA BLA BLA BLA BLA BLA BLA BLA BLA BLA BLA BLA BLA BLA BLA 
BLA BLA BLA BLA BLA BLA BLA BLA BLA BLA BLA BLA BLA BLA BLA BLA BLA BLA BLA BLA 
BLA BLA BLA BLA BLA BLA BLA BLA BLA BLA BLA BLA BLA BLA BLA BLA BLA BLA BLA BLA 
BLA BLA BLA BLA BLA BLA BLA BLA BLA BLA BLA BLA BLA BLA BLA BLA BLA BLA BLA BLA 
BLA BLA BLA BLA BLA BLA BLA BLA BLA BLA BLA BLA BLA BLA BLA BLA BLA BLA BLA BLA 
BLA BLA BLA BLA BLA BLA BLA BLA BLA BLA BLA BLA BLA BLA BLA BLA BLA BLA BLA BLA 
BLA BLA BLA BLA BLA BLA BLA BLA BLA BLA BLA BLA BLA BLA BLA BLA BLA BLA BLA BLA 
BLA BLA BLA BLA BLA BLA BLA BLA BLA BLA BLA BLA BLA BLA BLA BLA BLA BLA BLA BLA 
BLA BLA BLA BLA BLA BLA BLA BLA BLA BLA BLA BLA BLA BLA BLA BLA BLA BLA BLA BLA 
BLA BLA BLA BLA BLA BLA BLA BLA BLA BLA BLA BLA BLA BLA BLA BLA BLA BLA BLA BLA 
BLA BLA BLA BLA BLA BLA BLA BLA BLA BLA BLA BLA BLA BLA BLA BLA BLA BLA BLA BLA 
BLA BLA BLA BLA BLA BLA BLA BLA BLA BLA BLA BLA BLA BLA BLA BLA BLA BLA BLA BLA 
BLA BLA BLA BLA BLA BLA BLA BLA BLA BLA BLA BLA BLA BLA BLA BLA BLA BLA BLA BLA 
BLA BLA BLA BLA BLA BLA BLA BLA BLA BLA BLA BLA BLA BLA BLA BLA BLA BLA BLA BLA 
BLA BLA BLA BLA BLA BLA BLA BLA BLA BLA BLA BLA BLA BLA BLA BLA BLA BLA BLA BLA 
BLA BLA BLA BLA BLA BLA BLA BLA BLA BLA BLA BLA BLA BLA BLA BLA BLA BLA BLA BLA 
BLA BLA BLA BLA BLA BLA BLA BLA BLA BLA BLA BLA BLA BLA BLA BLA BLA BLA BLA BLA 
BLA BLA BLA BLA BLA BLA BLA BLA BLA BLA BLA BLA BLA BLA BLA BLA BLA BLA BLA BLA 
BLA BLA BLA BLA BLA BLA BLA BLA BLA BLA BLA BLA BLA BLA BLA BLA BLA BLA BLA BLA 
BLA BLA BLA BLA BLA BLA BLA BLA BLA BLA BLA BLA BLA BLA BLA BLA BLA BLA BLA BLA 
BLA BLA BLA BLA BLA BLA BLA BLA BLA BLA BLA BLA BLA BLA BLA BLA BLA BLA BLA BLA 
BLA BLA BLA BLA BLA BLA BLA BLA BLA BLA BLA BLA BLA BLA BLA BLA BLA BLA BLA BLA 
BLA BLA BLA BLA BLA BLA BLA BLA BLA BLA BLA BLA BLA BLA BLA BLA BLA BLA BLA BLA 
BLA BLA BLA BLA BLA BLA BLA BLA BLA BLA BLA BLA BLA BLA BLA BLA BLA BLA BLA BLA 
BLA BLA BLA BLA BLA BLA BLA BLA BLA BLA BLA BLA BLA BLA BLA BLA BLA BLA BLA BLA 
BLA BLA BLA BLA BLA BLA BLA BLA BLA BLA BLA BLA BLA BLA BLA BLA BLA BLA BLA BLA 
BLA BLA BLA BLA BLA BLA BLA BLA BLA BLA BLA BLA BLA BLA BLA BLA BLA BLA BLA BLA 
BLA BLA BLA BLA BLA BLA BLA BLA BLA BLA BLA BLA BLA BLA BLA BLA BLA BLA BLA BLA 
BLA BLA BLA BLA BLA BLA BLA BLA BLA BLA BLA BLA BLA BLA BLA BLA BLA BLA BLA BLA 
BLA BLA BLA BLA BLA BLA BLA BLA BLA BLA BLA BLA BLA BLA BLA BLA BLA BLA BLA BLA 
BLA BLA BLA BLA BLA BLA BLA BLA BLA BLA BLA BLA BLA BLA BLA BLA BLA BLA BLA BLA 
BLA BLA BLA BLA BLA BLA BLA BLA BLA BLA BLA BLA BLA BLA BLA BLA BLA BLA BLA BLA 
BLA BLA BLA BLA BLA BLA BLA BLA BLA BLA BLA BLA BLA BLA BLA BLA BLA BLA BLA BLA 
BLA BLA BLA BLA BLA BLA BLA BLA BLA BLA BLA BLA BLA BLA BLA BLA BLA BLA BLA BLA 
BLA BLA BLA BLA BLA BLA BLA BLA BLA BLA BLA BLA BLA BLA BLA BLA BLA BLA BLA BLA 
BLA BLA BLA BLA BLA BLA BLA BLA BLA BLA BLA BLA BLA BLA BLA BLA BLA BLA BLA BLA 
BLA BLA BLA BLA BLA BLA BLA BLA BLA BLA BLA BLA BLA BLA BLA BLA BLA BLA BLA BLA 
BLA BLA BLA BLA BLA BLA BLA BLA BLA BLA BLA BLA BLA BLA BLA BLA BLA BLA BLA BLA 
BLA BLA BLA BLA BLA BLA BLA BLA BLA BLA BLA BLA BLA BLA BLA BLA BLA BLA BLA BLA 
BLA BLA BLA BLA BLA BLA BLA BLA BLA BLA BLA BLA BLA BLA BLA BLA BLA BLA BLA BLA 
BLA BLA BLA BLA BLA BLA BLA BLA BLA BLA BLA BLA BLA BLA BLA BLA BLA BLA BLA BLA 
BLA BLA BLA BLA BLA BLA BLA BLA BLA BLA BLA BLA BLA BLA BLA BLA BLA BLA BLA BLA 
BLA BLA BLA BLA BLA BLA BLA BLA BLA BLA BLA BLA BLA BLA BLA BLA BLA BLA BLA BLA 
BLA BLA BLA BLA BLA BLA BLA BLA BLA BLA BLA BLA BLA BLA BLA BLA BLA BLA BLA BLA 
BLA BLA BLA BLA BLA BLA BLA BLA BLA BLA BLA BLA BLA BLA BLA BLA BLA BLA BLA BLA 
BLA BLA BLA BLA BLA BLA BLA BLA BLA BLA BLA BLA BLA BLA BLA BLA BLA BLA BLA BLA 
BLA BLA BLA BLA BLA BLA BLA BLA BLA BLA BLA BLA BLA BLA BLA BLA BLA BLA BLA BLA 
BLA BLA BLA BLA BLA BLA BLA BLA BLA BLA BLA BLA BLA BLA BLA BLA BLA BLA BLA BLA 
BLA BLA BLA BLA BLA BLA BLA BLA BLA BLA BLA BLA BLA BLA BLA BLA BLA BLA BLA BLA 
BLA BLA BLA BLA BLA BLA BLA BLA BLA BLA BLA BLA BLA BLA BLA BLA BLA BLA BLA BLA 
BLA BLA BLA BLA BLA BLA BLA BLA BLA BLA BLA BLA BLA BLA BLA BLA BLA BLA BLA BLA 
BLA BLA BLA BLA BLA BLA BLA BLA BLA BLA BLA BLA BLA BLA BLA BLA BLA BLA BLA BLA 
BLA BLA BLA BLA BLA BLA BLA BLA BLA BLA BLA BLA BLA BLA BLA BLA BLA BLA BLA BLA 
BLA BLA BLA BLA BLA BLA BLA BLA BLA BLA BLA BLA BLA BLA BLA BLA BLA BLA BLA BLA 
BLA BLA BLA BLA BLA BLA BLA BLA BLA BLA BLA BLA BLA BLA BLA BLA BLA BLA BLA BLA 
BLA BLA BLA BLA BLA BLA BLA BLA BLA BLA BLA BLA BLA BLA BLA BLA BLA BLA BLA BLA 
BLA BLA BLA BLA BLA BLA BLA BLA BLA BLA BLA BLA BLA BLA BLA BLA BLA BLA BLA BLA 
BLA BLA BLA BLA BLA BLA BLA BLA BLA BLA BLA BLA BLA BLA BLA BLA BLA BLA BLA BLA 
BLA BLA BLA BLA BLA BLA BLA BLA BLA BLA BLA BLA BLA BLA BLA BLA BLA BLA BLA BLA 
BLA BLA BLA BLA BLA BLA BLA BLA BLA BLA BLA BLA BLA BLA BLA BLA BLA BLA BLA BLA 
BLA BLA BLA BLA BLA BLA BLA BLA BLA BLA BLA BLA BLA BLA BLA BLA BLA BLA BLA BLA 
BLA BLA BLA BLA BLA BLA BLA BLA BLA BLA BLA BLA BLA BLA BLA BLA BLA BLA BLA BLA 
BLA BLA BLA BLA BLA BLA BLA BLA BLA BLA BLA BLA BLA BLA BLA BLA BLA BLA BLA BLA 
BLA BLA BLA BLA BLA BLA BLA BLA BLA BLA BLA BLA BLA BLA BLA BLA BLA BLA BLA BLA 
BLA BLA BLA BLA BLA BLA BLA BLA BLA BLA BLA BLA BLA BLA BLA BLA BLA BLA BLA BLA 
BLA BLA BLA BLA BLA BLA BLA BLA BLA BLA BLA BLA BLA BLA BLA BLA BLA BLA BLA BLA 
BLA BLA BLA BLA BLA BLA BLA BLA BLA BLA BLA BLA BLA BLA BLA BLA BLA BLA BLA BLA 
BLA BLA BLA BLA BLA BLA BLA BLA BLA BLA BLA BLA BLA BLA BLA BLA BLA BLA BLA BLA 
BLA BLA BLA BLA BLA BLA BLA BLA BLA BLA BLA BLA BLA BLA BLA BLA BLA BLA BLA BLA 
BLA BLA BLA BLA BLA BLA BLA BLA BLA BLA BLA BLA BLA BLA BLA BLA BLA BLA BLA BLA 
BLA BLA BLA BLA BLA BLA BLA BLA BLA BLA BLA BLA BLA BLA BLA BLA BLA BLA BLA BLA 
BLA BLA BLA BLA BLA BLA BLA BLA BLA BLA BLA BLA BLA BLA BLA BLA BLA BLA BLA BLA 
BLA BLA BLA BLA BLA BLA BLA BLA BLA BLA BLA BLA BLA BLA BLA BLA BLA BLA BLA BLA 
BLA BLA BLA BLA BLA BLA BLA BLA BLA BLA BLA BLA BLA BLA BLA BLA BLA BLA BLA BLA 
BLA BLA BLA BLA BLA BLA BLA BLA BLA BLA BLA BLA BLA BLA BLA BLA BLA BLA BLA BLA 
BLA BLA BLA BLA BLA BLA BLA BLA BLA BLA BLA BLA BLA BLA BLA BLA BLA BLA BLA BLA 
BLA BLA BLA BLA BLA BLA BLA BLA BLA BLA BLA BLA BLA BLA BLA BLA BLA BLA BLA BLA 
BLA BLA BLA BLA BLA BLA BLA BLA BLA BLA BLA BLA BLA BLA BLA BLA BLA BLA BLA BLA 
BLA BLA BLA BLA BLA BLA BLA BLA BLA BLA BLA BLA BLA BLA BLA BLA BLA BLA BLA BLA 
BLA BLA BLA BLA BLA BLA BLA BLA BLA BLA BLA BLA BLA BLA BLA BLA BLA BLA BLA BLA 
BLA BLA BLA BLA BLA BLA BLA BLA BLA BLA BLA BLA BLA BLA BLA BLA BLA BLA BLA BLA 
BLA BLA BLA BLA BLA BLA BLA BLA BLA BLA BLA BLA BLA BLA BLA BLA BLA BLA BLA BLA 
BLA BLA BLA BLA BLA BLA BLA BLA BLA BLA BLA BLA BLA BLA BLA BLA BLA BLA BLA BLA 
BLA BLA BLA BLA BLA BLA BLA BLA BLA BLA BLA BLA BLA BLA BLA BLA BLA BLA BLA BLA 
BLA BLA BLA BLA BLA BLA BLA BLA BLA BLA BLA BLA BLA BLA BLA BLA BLA BLA BLA BLA 
BLA BLA BLA BLA BLA BLA BLA BLA BLA BLA BLA BLA BLA BLA BLA BLA BLA BLA BLA BLA 
BLA BLA BLA BLA BLA BLA BLA BLA BLA BLA BLA BLA BLA BLA BLA BLA BLA BLA BLA BLA 
BLA BLA BLA BLA BLA BLA BLA BLA BLA BLA BLA BLA BLA BLA BLA BLA BLA BLA BLA BLA 
BLA BLA BLA BLA BLA BLA BLA BLA BLA BLA BLA BLA BLA BLA BLA BLA BLA BLA BLA BLA 
BLA BLA BLA BLA BLA BLA BLA BLA BLA BLA BLA BLA BLA BLA BLA BLA BLA BLA BLA BLA 
BLA BLA BLA BLA BLA BLA BLA BLA BLA BLA BLA BLA BLA BLA BLA BLA BLA BLA BLA BLA 
BLA BLA BLA BLA BLA BLA BLA BLA BLA BLA BLA BLA BLA BLA BLA BLA BLA BLA BLA BLA 
BLA BLA BLA BLA BLA BLA BLA BLA BLA BLA BLA BLA BLA BLA BLA BLA BLA BLA BLA BLA 
BLA BLA BLA BLA BLA BLA BLA BLA BLA BLA BLA BLA BLA BLA BLA BLA BLA BLA BLA BLA 
BLA BLA BLA BLA BLA BLA BLA BLA BLA BLA BLA BLA BLA BLA BLA BLA BLA BLA BLA BLA 
BLA BLA BLA BLA BLA BLA BLA BLA BLA BLA BLA BLA BLA BLA BLA BLA BLA BLA BLA BLA 
BLA BLA BLA BLA BLA BLA BLA BLA BLA BLA BLA BLA BLA BLA BLA BLA BLA BLA BLA BLA 
BLA BLA BLA BLA BLA BLA BLA BLA BLA BLA BLA BLA BLA BLA BLA BLA BLA BLA BLA BLA 
BLA BLA BLA BLA BLA BLA BLA BLA BLA BLA BLA BLA BLA BLA BLA BLA BLA BLA BLA BLA 
BLA BLA BLA BLA BLA BLA BLA BLA BLA BLA BLA BLA BLA BLA BLA BLA BLA BLA BLA BLA 
BLA BLA BLA BLA BLA BLA BLA BLA BLA BLA BLA BLA BLA BLA BLA BLA BLA BLA BLA BLA 
BLA BLA BLA BLA BLA BLA BLA BLA BLA BLA BLA BLA BLA BLA BLA BLA BLA BLA BLA BLA 
BLA BLA BLA BLA BLA BLA BLA BLA BLA BLA BLA BLA BLA BLA BLA BLA BLA BLA BLA BLA 
BLA BLA BLA BLA BLA BLA BLA BLA BLA BLA BLA BLA BLA BLA BLA BLA BLA BLA BLA BLA 
BLA BLA BLA BLA BLA BLA BLA BLA BLA BLA BLA BLA BLA BLA BLA BLA BLA BLA BLA BLA 
BLA BLA BLA BLA BLA BLA BLA BLA BLA BLA BLA BLA BLA BLA BLA BLA BLA BLA BLA BLA 
BLA BLA BLA BLA BLA BLA BLA BLA BLA BLA BLA BLA BLA BLA BLA BLA BLA BLA BLA BLA 
BLA BLA BLA BLA BLA BLA BLA BLA BLA BLA BLA BLA BLA BLA BLA BLA BLA BLA BLA BLA 
BLA BLA BLA BLA BLA BLA BLA BLA BLA BLA BLA BLA BLA BLA BLA BLA BLA BLA BLA BLA 
BLA BLA BLA BLA BLA BLA BLA BLA BLA BLA BLA BLA BLA BLA BLA BLA BLA BLA BLA BLA 
BLA BLA BLA BLA BLA BLA BLA BLA BLA BLA BLA BLA BLA BLA BLA BLA BLA BLA BLA BLA 
BLA BLA BLA BLA BLA BLA BLA BLA BLA BLA BLA BLA BLA BLA BLA BLA BLA BLA BLA BLA 
BLA BLA BLA BLA BLA BLA BLA BLA BLA BLA BLA BLA BLA BLA BLA BLA BLA BLA BLA BLA 
BLA BLA BLA BLA BLA BLA BLA BLA BLA BLA BLA BLA BLA BLA BLA BLA BLA BLA BLA BLA 
BLA BLA BLA BLA BLA BLA BLA BLA BLA BLA BLA BLA BLA BLA BLA BLA BLA BLA BLA BLA 
BLA BLA BLA BLA BLA BLA BLA BLA BLA BLA BLA BLA BLA BLA BLA BLA BLA BLA BLA BLA 
BLA BLA BLA BLA BLA BLA BLA BLA BLA BLA BLA BLA BLA BLA BLA BLA BLA BLA BLA BLA 
BLA BLA BLA BLA BLA BLA BLA BLA BLA BLA BLA BLA BLA BLA BLA BLA BLA BLA BLA BLA 
BLA BLA BLA BLA BLA BLA BLA BLA BLA BLA BLA BLA BLA BLA BLA BLA BLA BLA BLA BLA 
BLA BLA BLA BLA BLA BLA BLA BLA BLA BLA BLA BLA BLA BLA BLA BLA BLA BLA BLA BLA 
BLA BLA BLA BLA BLA BLA BLA BLA BLA BLA BLA BLA BLA BLA BLA BLA BLA BLA BLA BLA 
BLA BLA BLA BLA BLA BLA BLA BLA BLA BLA BLA BLA BLA BLA BLA BLA BLA BLA BLA BLA 
BLA BLA BLA BLA BLA BLA BLA BLA BLA BLA BLA BLA BLA BLA BLA BLA BLA BLA BLA BLA 
BLA BLA BLA BLA BLA BLA BLA BLA BLA BLA BLA BLA BLA BLA BLA BLA BLA BLA BLA BLA 
BLA BLA BLA BLA BLA BLA BLA BLA BLA BLA BLA BLA BLA BLA BLA BLA BLA BLA BLA BLA 
BLA BLA BLA BLA BLA BLA BLA BLA BLA BLA BLA BLA BLA BLA BLA BLA BLA BLA BLA BLA 
BLA BLA BLA BLA BLA BLA BLA BLA BLA BLA BLA BLA BLA BLA BLA BLA BLA BLA BLA BLA 
BLA BLA BLA BLA BLA BLA BLA BLA BLA BLA BLA BLA BLA BLA BLA BLA BLA BLA BLA BLA 
BLA BLA BLA BLA BLA BLA BLA BLA BLA BLA BLA BLA BLA BLA BLA BLA BLA BLA BLA BLA 
BLA BLA BLA BLA BLA BLA BLA BLA BLA BLA BLA BLA BLA BLA BLA BLA BLA BLA BLA BLA 
BLA BLA BLA BLA BLA BLA BLA BLA BLA BLA BLA BLA BLA BLA BLA BLA BLA BLA BLA BLA 
BLA BLA BLA BLA BLA BLA BLA BLA BLA BLA BLA BLA BLA BLA BLA BLA BLA BLA BLA BLA 
BLA BLA BLA BLA BLA BLA BLA BLA BLA BLA BLA BLA BLA BLA BLA BLA BLA BLA BLA BLA 
BLA BLA BLA BLA BLA BLA BLA BLA BLA BLA BLA BLA BLA BLA BLA BLA BLA BLA BLA BLA 
BLA BLA BLA BLA BLA BLA BLA BLA BLA BLA BLA BLA BLA BLA BLA BLA BLA BLA BLA BLA 
BLA BLA BLA BLA BLA BLA BLA BLA BLA BLA BLA BLA BLA BLA BLA BLA BLA BLA BLA BLA 
BLA BLA BLA BLA BLA BLA BLA BLA BLA BLA BLA BLA BLA BLA BLA BLA BLA BLA BLA BLA 
BLA BLA BLA BLA BLA BLA BLA BLA BLA BLA BLA BLA BLA BLA BLA BLA BLA BLA BLA BLA 
BLA BLA BLA BLA BLA BLA BLA BLA BLA BLA BLA BLA BLA BLA BLA BLA BLA BLA BLA BLA 
BLA BLA BLA BLA BLA BLA BLA BLA BLA BLA BLA BLA BLA BLA BLA BLA BLA BLA BLA BLA 
BLA BLA BLA BLA BLA BLA BLA BLA BLA BLA BLA BLA BLA BLA BLA BLA BLA BLA BLA BLA 
BLA BLA BLA BLA BLA BLA BLA BLA BLA BLA BLA BLA BLA BLA BLA BLA BLA BLA BLA BLA 
BLA BLA BLA BLA BLA BLA BLA BLA BLA BLA BLA BLA BLA BLA BLA BLA BLA BLA BLA BLA 
BLA BLA BLA BLA BLA BLA BLA BLA BLA BLA BLA BLA BLA BLA BLA BLA BLA BLA BLA BLA 
BLA BLA BLA BLA BLA BLA BLA BLA BLA BLA BLA BLA BLA BLA BLA BLA BLA BLA BLA BLA 
BLA BLA BLA BLA BLA BLA BLA BLA BLA BLA BLA BLA BLA BLA BLA BLA BLA BLA BLA BLA 
BLA BLA BLA BLA BLA BLA BLA BLA BLA BLA BLA BLA BLA BLA BLA BLA BLA BLA BLA BLA 
BLA BLA BLA BLA BLA BLA BLA BLA BLA BLA BLA BLA BLA BLA BLA BLA BLA BLA BLA BLA 
BLA BLA BLA BLA BLA BLA BLA BLA BLA BLA BLA BLA BLA BLA BLA BLA BLA BLA BLA BLA 
BLA BLA BLA BLA BLA BLA BLA BLA BLA BLA BLA BLA BLA BLA BLA BLA BLA BLA BLA BLA 
BLA BLA BLA BLA BLA BLA BLA BLA BLA BLA BLA BLA BLA BLA BLA BLA BLA BLA BLA BLA 
BLA BLA BLA BLA BLA BLA BLA BLA BLA BLA BLA BLA BLA BLA BLA BLA BLA BLA BLA BLA 
BLA BLA BLA BLA BLA BLA BLA BLA BLA BLA BLA BLA BLA BLA BLA BLA BLA BLA BLA BLA 
BLA BLA BLA BLA BLA BLA BLA BLA BLA BLA BLA BLA BLA BLA BLA BLA BLA BLA BLA BLA 
BLA BLA BLA BLA BLA BLA BLA BLA BLA BLA BLA BLA BLA BLA BLA BLA BLA BLA BLA BLA 
BLA BLA BLA BLA BLA BLA BLA BLA BLA BLA BLA BLA BLA BLA BLA BLA BLA BLA BLA BLA 
BLA BLA BLA BLA BLA BLA BLA BLA BLA BLA BLA BLA BLA BLA BLA BLA BLA BLA BLA BLA 
BLA BLA BLA BLA BLA BLA BLA BLA BLA BLA BLA BLA BLA BLA BLA BLA BLA BLA BLA BLA 
BLA BLA BLA BLA BLA BLA BLA BLA BLA BLA BLA BLA BLA BLA BLA BLA BLA BLA BLA BLA 
BLA BLA BLA BLA BLA BLA BLA BLA BLA BLA BLA BLA BLA BLA BLA BLA BLA BLA BLA BLA 
BLA BLA BLA BLA BLA BLA BLA BLA BLA BLA BLA BLA BLA BLA BLA BLA BLA BLA BLA BLA 
BLA BLA BLA BLA BLA BLA BLA BLA BLA BLA BLA BLA BLA BLA BLA BLA BLA BLA BLA BLA 
BLA BLA BLA BLA BLA BLA BLA BLA BLA BLA BLA BLA BLA BLA BLA BLA BLA BLA BLA BLA 
BLA BLA BLA BLA BLA BLA BLA BLA BLA BLA BLA BLA BLA BLA BLA BLA BLA BLA BLA BLA 
BLA BLA BLA BLA BLA BLA BLA BLA BLA BLA BLA BLA BLA BLA BLA BLA BLA BLA BLA BLA 
BLA BLA BLA BLA BLA BLA BLA BLA BLA BLA BLA BLA BLA BLA BLA BLA BLA BLA BLA BLA 
BLA BLA BLA BLA BLA BLA BLA BLA BLA BLA BLA BLA BLA BLA BLA BLA BLA BLA BLA BLA 
BLA BLA BLA BLA BLA BLA BLA BLA BLA BLA BLA BLA BLA BLA BLA BLA BLA BLA BLA BLA 
BLA BLA BLA BLA BLA BLA BLA BLA BLA BLA BLA BLA BLA BLA BLA BLA BLA BLA BLA BLA 
BLA BLA BLA BLA BLA BLA BLA BLA BLA BLA BLA BLA BLA BLA BLA BLA BLA BLA BLA BLA 
BLA BLA BLA BLA BLA BLA BLA BLA BLA BLA BLA BLA BLA BLA BLA BLA BLA BLA BLA BLA 
BLA BLA BLA BLA BLA BLA BLA BLA BLA BLA BLA BLA BLA BLA BLA BLA BLA BLA BLA BLA 
BLA BLA BLA BLA BLA BLA BLA BLA BLA BLA BLA BLA BLA BLA BLA BLA BLA BLA BLA BLA 
BLA BLA BLA BLA BLA BLA BLA BLA BLA BLA BLA BLA BLA BLA BLA BLA BLA BLA BLA BLA 
BLA BLA BLA BLA BLA BLA BLA BLA BLA BLA BLA BLA BLA BLA BLA BLA BLA BLA BLA BLA 
BLA BLA BLA BLA BLA BLA BLA BLA BLA BLA BLA BLA BLA BLA BLA BLA BLA BLA BLA BLA 
BLA BLA BLA BLA BLA BLA BLA BLA BLA BLA BLA BLA BLA BLA BLA BLA BLA BLA BLA BLA 
BLA BLA BLA BLA BLA BLA BLA BLA BLA BLA BLA BLA BLA BLA BLA BLA BLA BLA BLA BLA 
BLA BLA BLA BLA BLA BLA BLA BLA BLA BLA BLA BLA BLA BLA BLA BLA BLA BLA BLA BLA 
BLA BLA BLA BLA BLA BLA BLA BLA BLA BLA BLA BLA BLA BLA BLA BLA BLA BLA BLA BLA 
BLA BLA BLA BLA BLA BLA BLA BLA BLA BLA BLA BLA BLA BLA BLA BLA BLA BLA BLA BLA 
BLA BLA BLA BLA BLA BLA BLA BLA BLA BLA BLA BLA BLA BLA BLA BLA BLA BLA BLA BLA 
BLA BLA BLA BLA BLA BLA BLA BLA BLA BLA BLA BLA BLA BLA BLA BLA BLA BLA BLA BLA 
BLA BLA BLA BLA BLA BLA BLA BLA BLA BLA BLA BLA BLA BLA BLA BLA BLA BLA BLA BLA 
BLA BLA BLA BLA BLA BLA BLA BLA BLA BLA BLA BLA BLA BLA BLA BLA BLA BLA BLA BLA 
BLA BLA BLA BLA BLA BLA BLA BLA BLA BLA BLA BLA BLA BLA BLA BLA BLA BLA BLA BLA 
BLA BLA BLA BLA BLA BLA BLA BLA BLA BLA BLA BLA BLA BLA BLA BLA BLA BLA BLA BLA 
BLA BLA BLA BLA BLA BLA BLA BLA BLA BLA BLA BLA BLA BLA BLA BLA BLA BLA BLA BLA 
BLA BLA BLA BLA BLA BLA BLA BLA BLA BLA BLA BLA BLA BLA BLA BLA BLA BLA BLA BLA 
BLA BLA BLA BLA BLA BLA BLA BLA BLA BLA BLA BLA BLA BLA BLA BLA BLA BLA BLA BLA 
BLA BLA BLA BLA BLA BLA BLA BLA BLA BLA BLA BLA BLA BLA BLA BLA BLA BLA BLA BLA 
BLA BLA BLA BLA BLA BLA BLA BLA BLA BLA BLA BLA BLA BLA BLA BLA BLA BLA BLA BLA 
BLA BLA BLA BLA BLA BLA BLA BLA BLA BLA BLA BLA BLA BLA BLA BLA BLA BLA BLA BLA 
BLA BLA BLA BLA BLA BLA BLA BLA BLA BLA BLA BLA BLA BLA BLA BLA BLA BLA BLA BLA 
BLA BLA BLA BLA BLA BLA BLA BLA BLA BLA BLA BLA BLA BLA BLA BLA BLA BLA BLA BLA 
BLA BLA BLA BLA BLA BLA BLA BLA BLA BLA BLA BLA BLA BLA BLA BLA BLA BLA BLA BLA 
BLA BLA BLA BLA BLA BLA BLA BLA BLA BLA BLA BLA BLA BLA BLA BLA BLA BLA BLA BLA 
BLA BLA BLA BLA BLA BLA BLA BLA BLA BLA BLA BLA BLA BLA BLA BLA BLA BLA BLA BLA 
BLA BLA BLA BLA BLA BLA BLA BLA BLA BLA BLA BLA BLA BLA BLA BLA BLA BLA BLA BLA 
BLA BLA BLA BLA BLA BLA BLA BLA BLA BLA BLA BLA BLA BLA BLA BLA BLA BLA BLA BLA 
BLA BLA BLA BLA BLA BLA BLA BLA BLA BLA BLA BLA BLA BLA BLA BLA BLA BLA BLA BLA 
BLA BLA BLA BLA BLA BLA BLA BLA BLA BLA BLA BLA BLA BLA BLA BLA BLA BLA BLA BLA 
BLA BLA BLA BLA BLA BLA BLA BLA BLA BLA BLA BLA BLA BLA BLA BLA BLA BLA BLA BLA 
BLA BLA BLA BLA BLA BLA BLA BLA BLA BLA BLA BLA BLA BLA BLA BLA BLA BLA BLA BLA 
BLA BLA BLA BLA BLA BLA BLA BLA BLA BLA BLA BLA BLA BLA BLA BLA BLA BLA BLA BLA 
BLA BLA BLA BLA BLA BLA BLA BLA BLA BLA BLA BLA BLA BLA BLA BLA BLA BLA BLA BLA 
BLA BLA BLA BLA BLA BLA BLA BLA BLA BLA BLA BLA BLA BLA BLA BLA BLA BLA BLA BLA 
BLA BLA BLA BLA BLA BLA BLA BLA BLA BLA BLA BLA BLA BLA BLA BLA BLA BLA BLA BLA 
BLA BLA BLA BLA BLA BLA BLA BLA BLA BLA BLA BLA BLA BLA BLA BLA BLA BLA BLA BLA 
BLA BLA BLA BLA BLA BLA BLA BLA BLA BLA BLA BLA BLA BLA BLA BLA BLA BLA BLA BLA 
BLA BLA BLA BLA BLA BLA BLA BLA BLA BLA BLA BLA BLA BLA BLA BLA BLA BLA BLA BLA 
BLA BLA BLA BLA BLA BLA BLA BLA BLA BLA BLA BLA BLA BLA BLA BLA BLA BLA BLA BLA 
BLA BLA BLA BLA BLA BLA BLA BLA BLA BLA BLA BLA BLA BLA BLA BLA BLA BLA BLA BLA 
BLA BLA BLA BLA BLA BLA BLA BLA BLA BLA BLA BLA BLA BLA BLA BLA BLA BLA BLA BLA 
BLA BLA BLA BLA BLA BLA BLA BLA BLA BLA BLA BLA BLA BLA BLA BLA BLA BLA BLA BLA 
BLA BLA BLA BLA BLA BLA BLA BLA BLA BLA BLA BLA BLA BLA BLA BLA BLA BLA BLA BLA 
BLA BLA BLA BLA BLA BLA BLA BLA BLA BLA BLA BLA BLA BLA BLA BLA BLA BLA BLA BLA 
BLA BLA BLA BLA BLA BLA BLA BLA BLA BLA BLA BLA BLA BLA BLA BLA BLA BLA BLA BLA 
BLA BLA BLA BLA BLA BLA BLA BLA BLA BLA BLA BLA BLA BLA BLA BLA BLA BLA BLA BLA 
BLA BLA BLA BLA BLA BLA BLA BLA BLA BLA BLA BLA BLA BLA BLA BLA BLA BLA BLA BLA 
BLA BLA BLA BLA BLA BLA BLA BLA BLA BLA BLA BLA BLA BLA BLA BLA BLA BLA BLA BLA 
BLA BLA BLA BLA BLA BLA BLA BLA BLA BLA BLA BLA BLA BLA BLA BLA BLA BLA BLA BLA 
BLA BLA BLA BLA BLA BLA BLA BLA BLA BLA BLA BLA BLA BLA BLA BLA BLA BLA BLA BLA 
BLA BLA BLA BLA BLA BLA BLA BLA BLA BLA BLA BLA BLA BLA BLA BLA BLA BLA BLA BLA 
BLA BLA BLA BLA BLA BLA BLA BLA BLA BLA BLA BLA BLA BLA BLA BLA BLA BLA BLA BLA 
BLA BLA BLA BLA BLA BLA BLA BLA BLA BLA BLA BLA BLA BLA BLA BLA BLA BLA BLA BLA 
BLA BLA BLA BLA BLA BLA BLA BLA BLA BLA BLA BLA BLA BLA BLA BLA BLA BLA BLA BLA 
BLA BLA BLA BLA BLA BLA BLA BLA BLA BLA BLA BLA BLA BLA BLA BLA BLA BLA BLA BLA 
BLA BLA BLA BLA BLA BLA BLA BLA BLA BLA BLA BLA BLA BLA BLA BLA BLA BLA BLA BLA 
BLA BLA BLA BLA BLA BLA BLA BLA BLA BLA BLA BLA BLA BLA BLA BLA BLA BLA BLA BLA 
BLA BLA BLA BLA BLA BLA BLA BLA BLA BLA BLA BLA BLA BLA BLA BLA BLA BLA BLA BLA 
BLA BLA BLA BLA BLA BLA BLA BLA BLA BLA BLA BLA BLA BLA BLA BLA BLA BLA BLA BLA 
BLA BLA BLA BLA BLA BLA BLA BLA BLA BLA BLA BLA BLA BLA BLA BLA BLA BLA BLA BLA 
BLA BLA BLA BLA BLA BLA BLA BLA BLA BLA BLA BLA BLA BLA BLA BLA BLA BLA BLA BLA 
BLA BLA BLA BLA BLA BLA BLA BLA BLA BLA BLA BLA BLA BLA BLA BLA BLA BLA BLA BLA 
BLA BLA BLA BLA BLA BLA BLA BLA BLA BLA BLA BLA BLA BLA BLA BLA BLA BLA BLA BLA 
BLA BLA BLA BLA BLA BLA BLA BLA BLA BLA BLA BLA BLA BLA BLA BLA BLA BLA BLA BLA 
BLA BLA BLA BLA BLA BLA BLA BLA BLA BLA BLA BLA BLA BLA BLA BLA BLA BLA BLA BLA 
BLA BLA BLA BLA BLA BLA BLA BLA BLA BLA BLA BLA BLA BLA BLA BLA BLA BLA BLA BLA 
BLA BLA BLA BLA BLA BLA BLA BLA BLA BLA BLA BLA BLA BLA BLA BLA BLA BLA BLA BLA 
BLA BLA BLA BLA BLA BLA BLA BLA BLA BLA BLA BLA BLA BLA BLA BLA BLA BLA BLA BLA 
BLA BLA BLA BLA BLA BLA BLA BLA BLA BLA BLA BLA BLA BLA BLA BLA BLA BLA BLA BLA 
BLA BLA BLA BLA BLA BLA BLA BLA BLA BLA BLA BLA BLA BLA BLA BLA BLA BLA BLA BLA 
BLA BLA BLA BLA BLA BLA BLA BLA BLA BLA BLA BLA BLA BLA BLA BLA BLA BLA BLA BLA 
BLA BLA BLA BLA BLA BLA BLA BLA BLA BLA BLA BLA BLA BLA BLA BLA BLA BLA BLA BLA 
BLA BLA BLA BLA BLA BLA BLA BLA BLA BLA BLA BLA BLA BLA BLA BLA BLA BLA BLA BLA 
BLA BLA BLA BLA BLA BLA BLA BLA BLA BLA BLA BLA BLA BLA BLA BLA BLA BLA BLA BLA 
BLA BLA BLA BLA BLA BLA BLA BLA BLA BLA BLA BLA BLA BLA BLA BLA BLA BLA BLA BLA 
BLA BLA BLA BLA BLA BLA BLA BLA BLA BLA BLA BLA BLA BLA BLA BLA BLA BLA BLA BLA 
BLA BLA BLA BLA BLA BLA BLA BLA BLA BLA BLA BLA BLA BLA BLA BLA BLA BLA BLA BLA 
BLA BLA BLA BLA BLA BLA BLA BLA BLA BLA BLA BLA BLA BLA BLA BLA BLA BLA BLA BLA 
BLA BLA BLA BLA BLA BLA BLA BLA BLA BLA BLA BLA BLA BLA BLA BLA BLA BLA BLA BLA 
BLA BLA BLA BLA BLA BLA BLA BLA BLA BLA BLA BLA BLA BLA BLA BLA BLA BLA BLA BLA 
BLA BLA BLA BLA BLA BLA BLA BLA BLA BLA BLA BLA BLA BLA BLA BLA BLA BLA BLA BLA 
BLA BLA BLA BLA BLA BLA BLA BLA BLA BLA BLA BLA BLA BLA BLA BLA BLA BLA BLA BLA 
BLA BLA BLA BLA BLA BLA BLA BLA BLA BLA BLA BLA BLA BLA BLA BLA BLA BLA BLA BLA 
BLA BLA BLA BLA BLA BLA BLA BLA BLA BLA BLA BLA BLA BLA BLA BLA BLA BLA BLA BLA 
BLA BLA BLA BLA BLA BLA BLA BLA BLA BLA BLA BLA BLA BLA BLA BLA BLA BLA BLA BLA 
BLA BLA BLA BLA BLA BLA BLA BLA BLA BLA BLA BLA BLA BLA BLA BLA BLA BLA BLA BLA 
BLA BLA BLA BLA BLA BLA BLA BLA BLA BLA BLA BLA BLA BLA BLA BLA BLA BLA BLA BLA 
BLA BLA BLA BLA BLA BLA BLA BLA BLA BLA BLA BLA BLA BLA BLA BLA BLA BLA BLA BLA 
BLA BLA BLA BLA BLA BLA BLA BLA BLA BLA BLA BLA BLA BLA BLA BLA BLA BLA BLA BLA 
BLA BLA BLA BLA BLA BLA BLA BLA BLA BLA BLA BLA BLA BLA BLA BLA BLA BLA BLA BLA 
BLA BLA BLA BLA BLA BLA BLA BLA BLA BLA BLA BLA BLA BLA BLA BLA BLA BLA BLA BLA 
BLA BLA BLA BLA BLA BLA BLA BLA BLA BLA BLA BLA BLA BLA BLA BLA BLA BLA BLA BLA 
BLA BLA BLA BLA BLA BLA BLA BLA BLA BLA BLA BLA BLA BLA BLA BLA BLA BLA BLA BLA 
BLA BLA BLA BLA BLA BLA BLA BLA BLA BLA BLA BLA BLA BLA BLA BLA BLA BLA BLA BLA 
BLA BLA BLA BLA BLA BLA BLA BLA BLA BLA BLA BLA BLA BLA BLA BLA BLA BLA BLA BLA 
BLA BLA BLA BLA BLA BLA BLA BLA BLA BLA BLA BLA BLA BLA BLA BLA BLA BLA BLA BLA 
BLA BLA BLA BLA BLA BLA BLA BLA BLA BLA BLA BLA BLA BLA BLA BLA BLA BLA BLA BLA 
BLA BLA BLA BLA BLA BLA BLA BLA BLA BLA BLA BLA BLA BLA BLA BLA BLA BLA BLA BLA 
BLA BLA BLA BLA BLA BLA BLA BLA BLA BLA BLA BLA BLA BLA BLA BLA BLA BLA BLA BLA 
BLA BLA BLA BLA BLA BLA BLA BLA BLA BLA BLA BLA BLA BLA BLA BLA BLA BLA BLA BLA 
BLA BLA BLA BLA BLA BLA BLA BLA BLA BLA BLA BLA BLA BLA BLA BLA BLA BLA BLA BLA 
BLA BLA BLA BLA BLA BLA BLA BLA BLA BLA BLA BLA BLA BLA BLA BLA BLA BLA BLA BLA 
BLA BLA BLA BLA BLA BLA BLA BLA BLA BLA BLA BLA BLA BLA BLA BLA BLA BLA BLA BLA 
BLA BLA BLA BLA BLA BLA BLA BLA BLA BLA BLA BLA BLA BLA BLA BLA BLA BLA BLA BLA 
BLA BLA BLA BLA BLA BLA BLA BLA BLA BLA BLA BLA BLA BLA BLA BLA BLA BLA BLA BLA 
BLA BLA BLA BLA BLA BLA BLA BLA BLA BLA BLA BLA BLA BLA BLA BLA BLA BLA BLA BLA 
BLA BLA BLA BLA BLA BLA BLA BLA BLA BLA BLA BLA BLA BLA BLA BLA BLA BLA BLA BLA 
BLA BLA BLA BLA BLA BLA BLA BLA BLA BLA BLA BLA BLA BLA BLA BLA BLA BLA BLA BLA 
BLA BLA BLA BLA BLA BLA BLA BLA BLA BLA BLA BLA BLA BLA BLA BLA BLA BLA BLA BLA 
BLA BLA BLA BLA BLA BLA BLA BLA BLA BLA BLA BLA BLA BLA BLA BLA BLA BLA BLA BLA 
BLA BLA BLA BLA BLA BLA BLA BLA BLA BLA BLA BLA BLA BLA BLA BLA BLA BLA BLA BLA 
BLA BLA BLA BLA BLA BLA BLA BLA BLA BLA BLA BLA BLA BLA BLA BLA BLA BLA BLA BLA 
BLA BLA BLA BLA BLA BLA BLA BLA BLA BLA BLA BLA BLA BLA BLA BLA BLA BLA BLA BLA 
BLA BLA BLA BLA BLA BLA BLA BLA BLA BLA BLA BLA BLA BLA BLA BLA BLA BLA BLA BLA 
BLA BLA BLA BLA BLA BLA BLA BLA BLA BLA BLA BLA BLA BLA BLA BLA BLA BLA BLA BLA 
BLA BLA BLA BLA BLA BLA BLA BLA BLA BLA BLA BLA BLA BLA BLA BLA BLA BLA BLA BLA 
BLA BLA BLA BLA BLA BLA BLA BLA BLA BLA BLA BLA BLA BLA BLA BLA BLA BLA BLA BLA 
BLA BLA BLA BLA BLA BLA BLA BLA BLA BLA BLA BLA BLA BLA BLA BLA BLA BLA BLA BLA 
BLA BLA BLA BLA BLA BLA BLA BLA BLA BLA BLA BLA BLA BLA BLA BLA BLA BLA BLA BLA 
BLA BLA BLA BLA BLA BLA BLA BLA BLA BLA BLA BLA BLA BLA BLA BLA BLA BLA BLA BLA 
BLA BLA BLA BLA BLA BLA BLA BLA BLA BLA BLA BLA BLA BLA BLA BLA BLA BLA BLA BLA 
BLA BLA BLA BLA BLA BLA BLA BLA BLA BLA BLA BLA BLA BLA BLA BLA BLA BLA BLA BLA 
BLA BLA BLA BLA BLA BLA BLA BLA BLA BLA BLA BLA BLA BLA BLA BLA BLA BLA BLA BLA 
BLA BLA BLA BLA BLA BLA BLA BLA BLA BLA BLA BLA BLA BLA BLA BLA BLA BLA BLA BLA 
BLA BLA BLA BLA BLA BLA BLA BLA BLA BLA BLA BLA BLA BLA BLA BLA BLA BLA BLA BLA 
BLA BLA BLA BLA BLA BLA BLA BLA BLA BLA BLA BLA BLA BLA BLA BLA BLA BLA BLA BLA 
BLA BLA BLA BLA BLA BLA BLA BLA BLA BLA BLA BLA BLA BLA BLA BLA BLA BLA BLA BLA 
BLA BLA BLA BLA BLA BLA BLA BLA BLA BLA BLA BLA BLA BLA BLA BLA BLA BLA BLA BLA 
BLA BLA BLA BLA BLA BLA BLA BLA BLA BLA BLA BLA BLA BLA BLA BLA BLA BLA BLA BLA 
BLA BLA BLA BLA BLA BLA BLA BLA BLA BLA BLA BLA BLA BLA BLA BLA BLA BLA BLA BLA 
BLA BLA BLA BLA BLA BLA BLA BLA BLA BLA BLA BLA BLA BLA BLA BLA BLA BLA BLA BLA 
BLA BLA BLA BLA BLA BLA BLA BLA BLA BLA BLA BLA BLA BLA BLA BLA BLA BLA BLA BLA 
BLA BLA BLA BLA BLA BLA BLA BLA BLA BLA BLA BLA BLA BLA BLA BLA BLA BLA BLA BLA 
BLA BLA BLA BLA BLA BLA BLA BLA BLA BLA BLA BLA BLA BLA BLA BLA BLA BLA BLA BLA 
BLA BLA BLA BLA BLA BLA BLA BLA BLA BLA BLA BLA BLA BLA BLA BLA BLA BLA BLA BLA 
BLA BLA BLA BLA BLA BLA BLA BLA BLA BLA BLA BLA BLA BLA BLA BLA BLA BLA BLA BLA 
BLA BLA BLA BLA BLA BLA BLA BLA BLA BLA BLA BLA BLA BLA BLA BLA BLA BLA BLA BLA 
BLA BLA BLA BLA BLA BLA BLA BLA BLA BLA BLA BLA BLA BLA BLA BLA BLA BLA BLA BLA 
BLA BLA BLA BLA BLA BLA BLA BLA BLA BLA BLA BLA BLA BLA BLA BLA BLA BLA BLA BLA 
BLA BLA BLA BLA BLA BLA BLA BLA BLA BLA BLA BLA BLA BLA BLA BLA BLA BLA BLA BLA 
BLA BLA BLA BLA BLA BLA BLA BLA BLA BLA BLA BLA BLA BLA BLA BLA BLA BLA BLA BLA 
BLA BLA BLA BLA BLA BLA BLA BLA BLA BLA BLA BLA BLA BLA BLA BLA BLA BLA BLA BLA 
BLA BLA BLA BLA BLA BLA BLA BLA BLA BLA BLA BLA BLA BLA BLA BLA BLA BLA BLA BLA 
BLA BLA BLA BLA BLA BLA BLA BLA BLA BLA BLA BLA BLA BLA BLA BLA BLA BLA BLA BLA 
BLA BLA BLA BLA BLA BLA BLA BLA BLA BLA BLA BLA BLA BLA BLA BLA BLA BLA BLA BLA 
BLA BLA BLA BLA BLA BLA BLA BLA BLA BLA BLA BLA BLA BLA BLA BLA BLA BLA BLA BLA 
BLA BLA BLA BLA BLA BLA BLA BLA BLA BLA BLA BLA BLA BLA BLA BLA BLA BLA BLA BLA 
BLA BLA BLA BLA BLA BLA BLA BLA BLA BLA BLA BLA BLA BLA BLA BLA BLA BLA BLA BLA 
BLA BLA BLA BLA BLA BLA BLA BLA BLA BLA BLA BLA BLA BLA BLA BLA BLA BLA BLA BLA 
BLA BLA BLA BLA BLA BLA BLA BLA BLA BLA BLA BLA BLA BLA BLA BLA BLA BLA BLA BLA 
BLA BLA BLA BLA BLA BLA BLA BLA BLA BLA BLA BLA BLA BLA BLA BLA BLA BLA BLA BLA 
BLA BLA BLA BLA BLA BLA BLA BLA BLA BLA BLA BLA BLA BLA BLA BLA BLA BLA BLA BLA 
BLA BLA BLA BLA BLA BLA BLA BLA BLA BLA BLA BLA BLA BLA BLA BLA BLA BLA BLA BLA 
BLA BLA BLA BLA BLA BLA BLA BLA BLA BLA BLA BLA BLA BLA BLA BLA BLA BLA BLA BLA 
BLA BLA BLA BLA BLA BLA BLA BLA BLA BLA BLA BLA BLA BLA BLA BLA BLA BLA BLA BLA 
BLA BLA BLA BLA BLA BLA BLA BLA BLA BLA BLA BLA BLA BLA BLA BLA BLA BLA BLA BLA 
BLA BLA BLA BLA BLA BLA BLA BLA BLA BLA BLA BLA BLA BLA BLA BLA BLA BLA BLA BLA 
BLA BLA BLA BLA BLA BLA BLA BLA BLA BLA BLA BLA BLA BLA BLA BLA BLA BLA BLA BLA 
BLA BLA BLA BLA BLA BLA BLA BLA BLA BLA BLA BLA BLA BLA BLA BLA BLA BLA BLA BLA 
BLA BLA BLA BLA BLA BLA BLA BLA BLA BLA BLA BLA BLA BLA BLA BLA BLA BLA BLA BLA 
BLA BLA BLA BLA BLA BLA BLA BLA BLA BLA BLA BLA BLA BLA BLA BLA BLA BLA BLA BLA 
BLA BLA BLA BLA BLA BLA BLA BLA BLA BLA BLA BLA BLA BLA BLA BLA BLA BLA BLA BLA 
BLA BLA BLA BLA BLA BLA BLA BLA BLA BLA BLA BLA BLA BLA BLA BLA BLA BLA BLA BLA 
BLA BLA BLA BLA BLA BLA BLA BLA BLA BLA BLA BLA BLA BLA BLA BLA BLA BLA BLA BLA 
BLA BLA BLA BLA BLA BLA BLA BLA BLA BLA BLA BLA BLA BLA BLA BLA BLA BLA BLA BLA 
BLA BLA BLA BLA BLA BLA BLA BLA BLA BLA BLA BLA BLA BLA BLA BLA BLA BLA BLA BLA 
BLA BLA BLA BLA BLA BLA BLA BLA BLA BLA BLA BLA BLA BLA BLA BLA BLA BLA BLA BLA 
BLA BLA BLA BLA BLA BLA BLA BLA BLA BLA BLA BLA BLA BLA BLA BLA BLA BLA BLA BLA 
BLA BLA BLA BLA BLA BLA BLA BLA BLA BLA BLA BLA BLA BLA BLA BLA BLA BLA BLA BLA 
BLA BLA BLA BLA BLA BLA BLA BLA BLA BLA BLA BLA BLA BLA BLA BLA BLA BLA BLA BLA 
BLA BLA BLA BLA BLA BLA BLA BLA BLA BLA BLA BLA BLA BLA BLA BLA BLA BLA BLA BLA 
BLA BLA BLA BLA BLA BLA BLA BLA BLA BLA BLA BLA BLA BLA BLA BLA BLA BLA BLA BLA 
BLA BLA BLA BLA BLA BLA BLA BLA BLA BLA BLA BLA BLA BLA BLA BLA BLA BLA BLA BLA 
BLA BLA BLA BLA BLA BLA BLA BLA BLA BLA BLA BLA BLA BLA BLA BLA BLA BLA BLA BLA 
BLA BLA BLA BLA BLA BLA BLA BLA BLA BLA BLA BLA BLA BLA BLA BLA BLA BLA BLA BLA 
BLA BLA BLA BLA BLA BLA BLA BLA BLA BLA BLA BLA BLA BLA BLA BLA BLA BLA BLA BLA 
BLA BLA BLA BLA BLA BLA BLA BLA BLA BLA BLA BLA BLA BLA BLA BLA BLA BLA BLA BLA 
BLA BLA BLA BLA BLA BLA BLA BLA BLA BLA BLA BLA BLA BLA BLA BLA BLA BLA BLA BLA 
BLA BLA BLA BLA BLA BLA BLA BLA BLA BLA BLA BLA BLA BLA BLA BLA BLA BLA BLA BLA 
BLA BLA BLA BLA BLA BLA BLA BLA BLA BLA BLA BLA BLA BLA BLA BLA BLA BLA BLA BLA 
BLA BLA BLA BLA BLA BLA BLA BLA BLA BLA BLA BLA BLA BLA BLA BLA BLA BLA BLA BLA 
BLA BLA BLA BLA BLA BLA BLA BLA BLA BLA BLA BLA BLA BLA BLA BLA BLA BLA BLA BLA 
BLA BLA BLA BLA BLA BLA BLA BLA BLA BLA BLA BLA BLA BLA BLA BLA BLA BLA BLA BLA 
BLA BLA BLA BLA BLA BLA BLA BLA BLA BLA BLA BLA BLA BLA BLA BLA BLA BLA BLA BLA 
BLA BLA BLA BLA BLA BLA BLA BLA BLA BLA BLA BLA BLA BLA BLA BLA BLA BLA BLA BLA 
BLA BLA BLA BLA BLA BLA BLA BLA BLA BLA BLA BLA BLA BLA BLA BLA BLA BLA BLA BLA 
BLA BLA BLA BLA BLA BLA BLA BLA BLA BLA BLA BLA BLA BLA BLA BLA BLA BLA BLA BLA 
BLA BLA BLA BLA BLA BLA BLA BLA BLA BLA BLA BLA BLA BLA BLA BLA BLA BLA BLA BLA 
BLA BLA BLA BLA BLA BLA BLA BLA BLA BLA BLA BLA BLA BLA BLA BLA BLA BLA BLA BLA 
BLA BLA BLA BLA BLA BLA BLA BLA BLA BLA BLA BLA BLA BLA BLA BLA BLA BLA BLA BLA 
BLA BLA BLA BLA BLA BLA BLA BLA BLA BLA BLA BLA BLA BLA BLA BLA BLA BLA BLA BLA 
BLA BLA BLA BLA BLA BLA BLA BLA BLA BLA BLA BLA BLA BLA BLA BLA BLA BLA BLA BLA 
BLA BLA BLA BLA BLA BLA BLA BLA BLA BLA BLA BLA BLA BLA BLA BLA BLA BLA BLA BLA 
BLA BLA BLA BLA BLA BLA BLA BLA BLA BLA BLA BLA BLA BLA BLA BLA BLA BLA BLA BLA 
BLA BLA BLA BLA BLA BLA BLA BLA BLA BLA BLA BLA BLA BLA BLA BLA BLA BLA BLA BLA 
BLA BLA BLA BLA BLA BLA BLA BLA BLA BLA BLA BLA BLA BLA BLA BLA BLA BLA BLA BLA 
BLA BLA BLA BLA BLA BLA BLA BLA BLA BLA BLA BLA BLA BLA BLA BLA BLA BLA BLA BLA 
BLA BLA BLA BLA BLA BLA BLA BLA BLA BLA BLA BLA BLA BLA BLA BLA BLA BLA BLA BLA 
BLA BLA BLA BLA BLA BLA BLA BLA BLA BLA BLA BLA BLA BLA BLA BLA BLA BLA BLA BLA 
BLA BLA BLA BLA BLA BLA BLA BLA BLA BLA BLA BLA BLA BLA BLA BLA BLA BLA BLA BLA 
BLA BLA BLA BLA BLA BLA BLA BLA BLA BLA BLA BLA BLA BLA BLA BLA BLA BLA BLA BLA 
BLA BLA BLA BLA BLA BLA BLA BLA BLA BLA BLA BLA BLA BLA BLA BLA BLA BLA BLA BLA 
BLA BLA BLA BLA BLA BLA BLA BLA BLA BLA BLA BLA BLA BLA BLA BLA BLA BLA BLA BLA 
BLA BLA BLA BLA BLA BLA BLA BLA BLA BLA BLA BLA BLA BLA BLA BLA BLA BLA BLA BLA 
BLA BLA BLA BLA BLA BLA BLA BLA BLA BLA BLA BLA BLA BLA BLA BLA BLA BLA BLA BLA 
BLA BLA BLA BLA BLA BLA BLA BLA BLA BLA BLA BLA BLA BLA BLA BLA BLA BLA BLA BLA 
BLA BLA BLA BLA BLA BLA BLA BLA BLA BLA BLA BLA BLA BLA BLA BLA BLA BLA BLA BLA 
BLA BLA BLA BLA BLA BLA BLA BLA BLA BLA BLA BLA BLA BLA BLA BLA BLA BLA BLA BLA 
BLA BLA BLA BLA BLA BLA BLA BLA BLA BLA BLA BLA BLA BLA BLA BLA BLA BLA BLA BLA 
BLA BLA BLA BLA BLA BLA BLA BLA BLA BLA BLA BLA BLA BLA BLA BLA BLA BLA BLA BLA 
BLA BLA BLA BLA BLA BLA BLA BLA BLA BLA BLA BLA BLA BLA BLA BLA BLA BLA BLA BLA 
BLA BLA BLA BLA BLA BLA BLA BLA BLA BLA BLA BLA BLA BLA BLA BLA BLA BLA BLA BLA 
BLA BLA BLA BLA BLA BLA BLA BLA BLA BLA BLA BLA BLA BLA BLA BLA BLA BLA BLA BLA 
BLA BLA BLA BLA BLA BLA BLA BLA BLA BLA BLA BLA BLA BLA BLA BLA BLA BLA BLA BLA 
BLA BLA BLA BLA BLA BLA BLA BLA BLA BLA BLA BLA BLA BLA BLA BLA BLA BLA BLA BLA 
BLA BLA BLA BLA BLA BLA BLA BLA BLA BLA BLA BLA BLA BLA BLA BLA BLA BLA BLA BLA 
BLA BLA BLA BLA BLA BLA BLA BLA BLA BLA BLA BLA BLA BLA BLA BLA BLA BLA BLA BLA 
BLA BLA BLA BLA BLA BLA BLA BLA BLA BLA BLA BLA BLA BLA BLA BLA BLA BLA BLA BLA 
BLA BLA BLA BLA BLA BLA BLA BLA BLA BLA BLA BLA BLA BLA BLA BLA BLA BLA BLA BLA 
BLA BLA BLA BLA BLA BLA BLA BLA BLA BLA BLA BLA BLA BLA BLA BLA BLA BLA BLA BLA 
BLA BLA BLA BLA BLA BLA BLA BLA BLA BLA BLA BLA BLA BLA BLA BLA BLA BLA BLA BLA 
BLA BLA BLA BLA BLA BLA BLA BLA BLA BLA BLA BLA BLA BLA BLA BLA BLA BLA BLA BLA 
BLA BLA BLA BLA BLA BLA BLA BLA BLA BLA BLA BLA BLA BLA BLA BLA BLA BLA BLA BLA 
BLA BLA BLA BLA BLA BLA BLA BLA BLA BLA BLA BLA BLA BLA BLA BLA BLA BLA BLA BLA 
BLA BLA BLA BLA BLA BLA BLA BLA BLA BLA BLA BLA BLA BLA BLA BLA BLA BLA BLA BLA 
BLA BLA BLA BLA BLA BLA BLA BLA BLA BLA BLA BLA BLA BLA BLA BLA BLA BLA BLA BLA 
BLA BLA BLA BLA BLA BLA BLA BLA BLA BLA BLA BLA BLA BLA BLA BLA BLA BLA BLA BLA 
BLA BLA BLA BLA BLA BLA BLA BLA BLA BLA BLA BLA BLA BLA BLA BLA BLA BLA BLA BLA 
BLA BLA BLA BLA BLA BLA BLA BLA BLA BLA BLA BLA BLA BLA BLA BLA BLA BLA BLA BLA 
BLA BLA BLA BLA BLA BLA BLA BLA BLA BLA BLA BLA BLA BLA BLA BLA BLA BLA BLA BLA 
BLA BLA BLA BLA BLA BLA BLA BLA BLA BLA BLA BLA BLA BLA BLA BLA BLA BLA BLA BLA 
BLA BLA BLA BLA BLA BLA BLA BLA BLA BLA BLA BLA BLA BLA BLA BLA BLA BLA BLA BLA 
BLA BLA BLA BLA BLA BLA BLA BLA BLA BLA BLA BLA BLA BLA BLA BLA BLA BLA BLA BLA 
BLA BLA BLA BLA BLA BLA BLA BLA BLA BLA BLA BLA BLA BLA BLA BLA BLA BLA BLA BLA 
BLA BLA BLA BLA BLA BLA BLA BLA BLA BLA BLA BLA BLA BLA BLA BLA BLA BLA BLA BLA 
BLA BLA BLA BLA BLA BLA BLA BLA BLA BLA BLA BLA BLA BLA BLA BLA BLA BLA BLA BLA 
BLA BLA BLA BLA BLA BLA BLA BLA BLA BLA BLA BLA BLA BLA BLA BLA BLA BLA BLA BLA 
BLA BLA BLA BLA BLA BLA BLA BLA BLA BLA BLA BLA BLA BLA BLA BLA BLA BLA BLA BLA 
BLA BLA BLA BLA BLA BLA BLA BLA BLA BLA BLA BLA BLA BLA BLA BLA BLA BLA BLA BLA 
BLA BLA BLA BLA BLA BLA BLA BLA BLA BLA BLA BLA BLA BLA BLA BLA BLA BLA BLA BLA 
BLA BLA BLA BLA BLA BLA BLA BLA BLA BLA BLA BLA BLA BLA BLA BLA BLA BLA BLA BLA 
BLA BLA BLA BLA BLA BLA BLA BLA BLA BLA BLA BLA BLA BLA BLA BLA BLA BLA BLA BLA 
BLA BLA BLA BLA BLA BLA BLA BLA BLA BLA BLA BLA BLA BLA BLA BLA BLA BLA BLA BLA 
BLA BLA BLA BLA BLA BLA BLA BLA BLA BLA BLA BLA BLA BLA BLA BLA BLA BLA BLA BLA 
BLA BLA BLA BLA BLA BLA BLA BLA BLA BLA BLA BLA BLA BLA BLA BLA BLA BLA BLA BLA 
BLA BLA BLA BLA BLA BLA BLA BLA BLA BLA BLA BLA BLA BLA BLA BLA BLA BLA BLA BLA 
BLA BLA BLA BLA BLA BLA BLA BLA BLA BLA BLA BLA BLA BLA BLA BLA BLA BLA BLA BLA 
BLA BLA BLA BLA BLA BLA BLA BLA BLA BLA BLA BLA BLA BLA BLA BLA BLA BLA BLA BLA 
BLA BLA BLA BLA BLA BLA BLA BLA BLA BLA BLA BLA BLA BLA BLA BLA BLA BLA BLA BLA 
BLA BLA BLA BLA BLA BLA BLA BLA BLA BLA BLA BLA BLA BLA BLA BLA BLA BLA BLA BLA 
BLA BLA BLA BLA BLA BLA BLA BLA BLA BLA BLA BLA BLA BLA BLA BLA BLA BLA BLA BLA 
BLA BLA BLA BLA BLA BLA BLA BLA BLA BLA BLA BLA BLA BLA BLA BLA BLA BLA BLA BLA 
BLA BLA BLA BLA BLA BLA BLA BLA BLA BLA BLA BLA BLA BLA BLA BLA BLA BLA BLA BLA 
BLA BLA BLA BLA BLA BLA BLA BLA BLA BLA BLA BLA BLA BLA BLA BLA BLA BLA BLA BLA 
BLA BLA BLA BLA BLA BLA BLA BLA BLA BLA BLA BLA BLA BLA BLA BLA BLA BLA BLA BLA 
BLA BLA BLA BLA BLA BLA BLA BLA BLA BLA BLA BLA BLA BLA BLA BLA BLA BLA BLA BLA 
BLA BLA BLA BLA BLA BLA BLA BLA BLA BLA BLA BLA BLA BLA BLA BLA BLA BLA BLA BLA 
BLA BLA BLA BLA BLA BLA BLA BLA BLA BLA BLA BLA BLA BLA BLA BLA BLA BLA BLA BLA 
BLA BLA BLA BLA BLA BLA BLA BLA BLA BLA BLA BLA BLA BLA BLA BLA BLA BLA BLA BLA 
BLA BLA BLA BLA BLA BLA BLA BLA BLA BLA BLA BLA BLA BLA BLA BLA BLA BLA BLA BLA 
BLA BLA BLA BLA BLA BLA BLA BLA BLA BLA BLA BLA BLA BLA BLA BLA BLA BLA BLA BLA 
BLA BLA BLA BLA BLA BLA BLA BLA BLA BLA BLA BLA BLA BLA BLA BLA BLA BLA BLA BLA 
BLA BLA BLA BLA BLA BLA BLA BLA BLA BLA BLA BLA BLA BLA BLA BLA BLA BLA BLA BLA 
BLA BLA BLA BLA BLA BLA BLA BLA BLA BLA BLA BLA BLA BLA BLA BLA BLA BLA BLA BLA 
BLA BLA BLA BLA BLA BLA BLA BLA BLA BLA BLA BLA BLA BLA BLA BLA BLA BLA BLA BLA 
BLA BLA BLA BLA BLA BLA BLA BLA BLA BLA BLA BLA BLA BLA BLA BLA BLA BLA BLA BLA 
BLA BLA BLA BLA BLA BLA BLA BLA BLA BLA BLA BLA BLA BLA BLA BLA BLA BLA BLA BLA 
BLA BLA BLA BLA BLA BLA BLA BLA BLA BLA BLA BLA BLA BLA BLA BLA BLA BLA BLA BLA 
BLA BLA BLA BLA BLA BLA BLA BLA BLA BLA BLA BLA BLA BLA BLA BLA BLA BLA BLA BLA 
BLA BLA BLA BLA BLA BLA BLA BLA BLA BLA BLA BLA BLA BLA BLA BLA BLA BLA BLA BLA 
BLA BLA BLA BLA BLA BLA BLA BLA BLA BLA BLA BLA BLA BLA BLA BLA BLA BLA BLA BLA 
BLA BLA BLA BLA BLA BLA BLA BLA BLA BLA BLA BLA BLA BLA BLA BLA BLA BLA BLA BLA 
BLA BLA BLA BLA BLA BLA BLA BLA BLA BLA BLA BLA BLA BLA BLA BLA BLA BLA BLA BLA 
BLA BLA BLA BLA BLA BLA BLA BLA BLA BLA BLA BLA BLA BLA BLA BLA BLA BLA BLA BLA 
BLA BLA BLA BLA BLA BLA BLA BLA BLA BLA BLA BLA BLA BLA BLA BLA BLA BLA BLA BLA 
BLA BLA BLA BLA BLA BLA BLA BLA BLA BLA BLA BLA BLA BLA BLA BLA BLA BLA BLA BLA 
BLA BLA BLA BLA BLA BLA BLA BLA BLA BLA BLA BLA BLA BLA BLA BLA BLA BLA BLA BLA 
BLA BLA BLA BLA BLA BLA BLA BLA BLA BLA BLA BLA BLA BLA BLA BLA BLA BLA BLA BLA 
BLA BLA BLA BLA BLA BLA BLA BLA BLA BLA BLA BLA BLA BLA BLA BLA BLA BLA BLA BLA 
BLA BLA BLA BLA BLA BLA BLA BLA BLA BLA BLA BLA BLA BLA BLA BLA BLA BLA BLA BLA 
BLA BLA BLA BLA BLA BLA BLA BLA BLA BLA BLA BLA BLA BLA BLA BLA BLA BLA BLA BLA 
BLA BLA BLA BLA BLA BLA BLA BLA BLA BLA BLA BLA BLA BLA BLA BLA BLA BLA BLA BLA 
BLA BLA BLA BLA BLA BLA BLA BLA BLA BLA BLA BLA BLA BLA BLA BLA BLA BLA BLA BLA 
BLA BLA BLA BLA BLA BLA BLA BLA BLA BLA BLA BLA BLA BLA BLA BLA BLA BLA BLA BLA 
BLA BLA BLA BLA BLA BLA BLA BLA BLA BLA BLA BLA BLA BLA BLA BLA BLA BLA BLA BLA 
BLA BLA BLA BLA BLA BLA BLA BLA BLA BLA BLA BLA BLA BLA BLA BLA BLA BLA BLA BLA 
BLA BLA BLA BLA BLA BLA BLA BLA BLA BLA BLA BLA BLA BLA BLA BLA BLA BLA BLA BLA 
BLA BLA BLA BLA BLA BLA BLA BLA BLA BLA BLA BLA BLA BLA BLA BLA BLA BLA BLA BLA 
BLA BLA BLA BLA BLA BLA BLA BLA BLA BLA BLA BLA BLA BLA BLA BLA BLA BLA BLA BLA 
BLA BLA BLA BLA BLA BLA BLA BLA BLA BLA BLA BLA BLA BLA BLA BLA BLA BLA BLA BLA 
BLA BLA BLA BLA BLA BLA BLA BLA BLA BLA BLA BLA BLA BLA BLA BLA BLA BLA BLA BLA 
BLA BLA BLA BLA BLA BLA BLA BLA BLA BLA BLA BLA BLA BLA BLA BLA BLA BLA BLA BLA 
BLA BLA BLA BLA BLA BLA BLA BLA BLA BLA BLA BLA BLA BLA BLA BLA BLA BLA BLA BLA 
BLA BLA BLA BLA BLA BLA BLA BLA BLA BLA BLA BLA BLA BLA BLA BLA BLA BLA BLA BLA 
BLA BLA BLA BLA BLA BLA BLA BLA BLA BLA BLA BLA BLA BLA BLA BLA BLA BLA BLA BLA 
BLA BLA BLA BLA BLA BLA BLA BLA BLA BLA BLA BLA BLA BLA BLA BLA BLA BLA BLA BLA 
BLA BLA BLA BLA BLA BLA BLA 
%FLAG JOIN_ARRAY                                                                
%FORMAT(10I8)                                                                   
       0       0       0       0       0       0       0       0       0       0
       0       0       0       0       0       0       0       0       0       0
       0       0       0       0       0       0       0       0       0       0
       0       0       0       0       0       0       0       0       0       0
       0       0       0       0       0       0       0       0       0       0
       0       0       0       0       0       0       0       0       0       0
       0       0       0       0       0       0       0       0       0       0
       0       0       0       0       0       0       0       0       0       0
       0       0       0       0       0       0       0       0       0       0
       0       0       0       0       0       0       0       0       0       0
       0       0       0       0       0       0       0       0       0       0
       0       0       0       0       0       0       0       0       0       0
       0       0       0       0       0       0       0       0       0       0
       0       0       0       0       0       0       0       0       0       0
       0       0       0       0       0       0       0       0       0       0
       0       0       0       0       0       0       0       0       0       0
       0       0       0       0       0       0       0       0       0       0
       0       0       0       0       0       0       0       0       0       0
       0       0       0       0       0       0       0       0       0       0
       0       0       0       0       0       0       0       0       0       0
       0       0       0       0       0       0       0       0       0       0
       0       0       0       0       0       0       0       0       0       0
       0       0       0       0       0       0       0       0       0       0
       0       0       0       0       0       0       0       0       0       0
       0       0       0       0       0       0       0       0       0       0
       0       0       0       0       0       0       0       0       0       0
       0       0       0       0       0       0       0       0       0       0
       0       0       0       0       0       0       0       0       0       0
       0       0       0       0       0       0       0       0       0       0
       0       0       0       0       0       0       0       0       0       0
       0       0       0       0       0       0       0       0       0       0
       0       0       0       0       0       0       0       0       0       0
       0       0       0       0       0       0       0       0       0       0
       0       0       0       0       0       0       0       0       0       0
       0       0       0       0       0       0       0       0       0       0
       0       0       0       0       0       0       0       0       0       0
       0       0       0       0       0       0       0       0       0       0
       0       0       0       0       0       0       0       0       0       0
       0       0       0       0       0       0       0       0       0       0
       0       0       0       0       0       0       0       0       0       0
       0       0       0       0       0       0       0       0       0       0
       0       0       0       0       0       0       0       0       0       0
       0       0       0       0       0       0       0       0       0       0
       0       0       0       0       0       0       0       0       0       0
       0       0       0       0       0       0       0       0       0       0
       0       0       0       0       0       0       0       0       0       0
       0       0       0       0       0       0       0       0       0       0
       0       0       0       0       0       0       0       0       0       0
       0       0       0       0       0       0       0       0       0       0
       0       0       0       0       0       0       0       0       0       0
       0       0       0       0       0       0       0       0       0       0
       0       0       0       0       0       0       0       0       0       0
       0       0       0       0       0       0       0       0       0       0
       0       0       0       0       0       0       0       0       0       0
       0       0       0       0       0       0       0       0       0       0
       0       0       0       0       0       0       0       0       0       0
       0       0       0       0       0       0       0       0       0       0
       0       0       0       0       0       0       0       0       0       0
       0       0       0       0       0       0       0       0       0       0
       0       0       0       0       0       0       0       0       0       0
       0       0       0       0       0       0       0       0       0       0
       0       0       0       0       0       0       0       0       0       0
       0       0       0       0       0       0       0       0       0       0
       0       0       0       0       0       0       0       0       0       0
       0       0       0       0       0       0       0       0       0       0
       0       0       0       0       0       0       0       0       0       0
       0       0       0       0       0       0       0       0       0       0
       0       0       0       0       0       0       0       0       0       0
       0       0       0       0       0       0       0       0       0       0
       0       0       0       0       0       0       0       0       0       0
       0       0       0       0       0       0       0       0       0       0
       0       0       0       0       0       0       0       0       0       0
       0       0       0       0       0       0       0       0       0       0
       0       0       0       0       0       0       0       0       0       0
       0       0       0       0       0       0       0       0       0       0
       0       0       0       0       0       0       0       0       0       0
       0       0       0       0       0       0       0       0       0       0
       0       0       0       0       0       0       0       0       0       0
       0       0       0       0       0       0       0       0       0       0
       0       0       0       0       0       0       0       0       0       0
       0       0       0       0       0       0       0       0       0       0
       0       0       0       0       0       0       0       0       0       0
       0       0       0       0       0       0       0       0       0       0
       0       0       0       0       0       0       0       0       0       0
       0       0       0       0       0       0       0       0       0       0
       0       0       0       0       0       0       0       0       0       0
       0       0       0       0       0       0       0       0       0       0
       0       0       0       0       0       0       0       0       0       0
       0       0       0       0       0       0       0       0       0       0
       0       0       0       0       0       0       0       0       0       0
       0       0       0       0       0       0       0       0       0       0
       0       0       0       0       0       0       0       0       0       0
       0       0       0       0       0       0       0       0       0       0
       0       0       0       0       0       0       0       0       0       0
       0       0       0       0       0       0       0       0       0       0
       0       0       0       0       0       0       0       0       0       0
       0       0       0       0       0       0       0       0       0       0
       0       0       0       0       0       0       0       0       0       0
       0       0       0       0       0       0       0       0       0       0
       0       0       0       0       0       0       0       0       0       0
       0       0       0       0       0       0       0       0       0       0
       0       0       0       0       0       0       0       0       0       0
       0       0       0       0       0       0       0       0       0       0
       0       0       0       0       0       0       0       0       0       0
       0       0       0       0       0       0       0       0       0       0
       0       0       0       0       0       0       0       0       0       0
       0       0       0       0       0       0       0       0       0       0
       0       0       0       0       0       0       0       0       0       0
       0       0       0       0       0       0       0       0       0       0
       0       0       0       0       0       0       0       0       0       0
       0       0       0       0       0       0       0       0       0       0
       0       0       0       0       0       0       0       0       0       0
       0       0       0       0       0       0       0       0       0       0
       0       0       0       0       0       0       0       0       0       0
       0       0       0       0       0       0       0       0       0       0
       0       0       0       0       0       0       0       0       0       0
       0       0       0       0       0       0       0       0       0       0
       0       0       0       0       0       0       0       0       0       0
       0       0       0       0       0       0       0       0       0       0
       0       0       0       0       0       0       0       0       0       0
       0       0       0       0       0       0       0       0       0       0
       0       0       0       0       0       0       0       0       0       0
       0       0       0       0       0       0       0       0       0       0
       0       0       0       0       0       0       0       0       0       0
       0       0       0       0       0       0       0       0       0       0
       0       0       0       0       0       0       0       0       0       0
       0       0       0       0       0       0       0       0       0       0
       0       0       0       0       0       0       0       0       0       0
       0       0       0       0       0       0       0       0       0       0
       0       0       0       0       0       0       0       0       0       0
       0       0       0       0       0       0       0       0       0       0
       0       0       0       0       0       0       0       0       0       0
       0       0       0       0       0       0       0       0       0       0
       0       0       0       0       0       0       0       0       0       0
       0       0       0       0       0       0       0       0       0       0
       0       0       0       0       0       0       0       0       0       0
       0       0       0       0       0       0       0       0       0       0
       0       0       0       0       0       0       0       0       0       0
       0       0       0       0       0       0       0       0       0       0
       0       0       0       0       0       0       0       0       0       0
       0       0       0       0       0       0       0       0       0       0
       0       0       0       0       0       0       0       0       0       0
       0       0       0       0       0       0       0       0       0       0
       0       0       0       0       0       0       0       0       0       0
       0       0       0       0       0       0       0       0       0       0
       0       0       0       0       0       0       0       0       0       0
       0       0       0       0       0       0       0       0       0       0
       0       0       0       0       0       0       0       0       0       0
       0       0       0       0       0       0       0       0       0       0
       0       0       0       0       0       0       0       0       0       0
       0       0       0       0       0       0       0       0       0       0
       0       0       0       0       0       0       0       0       0       0
       0       0       0       0       0       0       0       0       0       0
       0       0       0       0       0       0       0       0       0       0
       0       0       0       0       0       0       0       0       0       0
       0       0       0       0       0       0       0       0       0       0
       0       0       0       0       0       0       0       0       0       0
       0       0       0       0       0       0       0       0       0       0
       0       0       0       0       0       0       0       0       0       0
       0       0       0       0       0       0       0       0       0       0
       0       0       0       0       0       0       0       0       0       0
       0       0       0       0       0       0       0       0       0       0
       0       0       0       0       0       0       0       0       0       0
       0       0       0       0       0       0       0       0       0       0
       0       0       0       0       0       0       0       0       0       0
       0       0       0       0       0       0       0       0       0       0
       0       0       0       0       0       0       0       0       0       0
       0       0       0       0       0       0       0       0       0       0
       0       0       0       0       0       0       0       0       0       0
       0       0       0       0       0       0       0       0       0       0
       0       0       0       0       0       0       0       0       0       0
       0       0       0       0       0       0       0       0       0       0
       0       0       0       0       0       0       0       0       0       0
       0       0       0       0       0       0       0       0       0       0
       0       0       0       0       0       0       0       0       0       0
       0       0       0       0       0       0       0       0       0       0
       0       0       0       0       0       0       0       0       0       0
       0       0       0       0       0       0       0       0       0       0
       0       0       0       0       0       0       0       0       0       0
       0       0       0       0       0       0       0       0       0       0
       0       0       0       0       0       0       0       0       0       0
       0       0       0       0       0       0       0       0       0       0
       0       0       0       0       0       0       0       0       0       0
       0       0       0       0       0       0       0       0       0       0
       0       0       0       0       0       0       0       0       0       0
       0       0       0       0       0       0       0       0       0       0
       0       0       0       0       0       0       0       0       0       0
       0       0       0       0       0       0       0       0       0       0
       0       0       0       0       0       0       0       0       0       0
       0       0       0       0       0       0       0       0       0       0
       0       0       0       0       0       0       0       0       0       0
       0       0       0       0       0       0       0       0       0       0
       0       0       0       0       0       0       0       0       0       0
       0       0       0       0       0       0       0       0       0       0
       0       0       0       0       0       0       0       0       0       0
       0       0       0       0       0       0       0       0       0       0
       0       0       0       0       0       0       0       0       0       0
       0       0       0       0       0       0       0       0       0       0
       0       0       0       0       0       0       0       0       0       0
       0       0       0       0       0       0       0       0       0       0
       0       0       0       0       0       0       0       0       0       0
       0       0       0       0       0       0       0       0       0       0
       0       0       0       0       0       0       0       0       0       0
       0       0       0       0       0       0       0       0       0       0
       0       0       0       0       0       0       0       0       0       0
       0       0       0       0       0       0       0       0       0       0
       0       0       0       0       0       0       0       0       0       0
       0       0       0       0       0       0       0       0       0       0
       0       0       0       0       0       0       0       0       0       0
       0       0       0       0       0       0       0       0       0       0
       0       0       0       0       0       0       0       0       0       0
       0       0       0       0       0       0       0       0       0       0
       0       0       0       0       0       0       0       0       0       0
       0       0       0       0       0       0       0       0       0       0
       0       0       0       0       0       0       0       0       0       0
       0       0       0       0       0       0       0       0       0       0
       0       0       0       0       0       0       0       0       0       0
       0       0       0       0       0       0       0       0       0       0
       0       0       0       0       0       0       0       0       0       0
       0       0       0       0       0       0       0       0       0       0
       0       0       0       0       0       0       0       0       0       0
       0       0       0       0       0       0       0       0       0       0
       0       0       0       0       0       0       0       0       0       0
       0       0       0       0       0       0       0       0       0       0
       0       0       0       0       0       0       0       0       0       0
       0       0       0       0       0       0       0       0       0       0
       0       0       0       0       0       0       0       0       0       0
       0       0       0       0       0       0       0       0       0       0
       0       0       0       0       0       0       0       0       0       0
       0       0       0       0       0       0       0       0       0       0
       0       0       0       0       0       0       0       0       0       0
       0       0       0       0       0       0       0       0       0       0
       0       0       0       0       0       0       0       0       0       0
       0       0       0       0       0       0       0       0       0       0
       0       0       0       0       0       0       0       0       0       0
       0       0       0       0       0       0       0       0       0       0
       0       0       0       0       0       0       0       0       0       0
       0       0       0       0       0       0       0       0       0       0
       0       0       0       0       0       0       0       0       0       0
       0       0       0       0       0       0       0       0       0       0
       0       0       0       0       0       0       0       0       0       0
       0       0       0       0       0       0       0       0       0       0
       0       0       0       0       0       0       0       0       0       0
       0       0       0       0       0       0       0       0       0       0
       0       0       0       0       0       0       0       0       0       0
       0       0       0       0       0       0       0       0       0       0
       0       0       0       0       0       0       0       0       0       0
       0       0       0       0       0       0       0       0       0       0
       0       0       0       0       0       0       0       0       0       0
       0       0       0       0       0       0       0       0       0       0
       0       0       0       0       0       0       0       0       0       0
       0       0       0       0       0       0       0       0       0       0
       0       0       0       0       0       0       0       0       0       0
       0       0       0       0       0       0       0       0       0       0
       0       0       0       0       0       0       0       0       0       0
       0       0       0       0       0       0       0       0       0       0
       0       0       0       0       0       0       0       0       0       0
       0       0       0       0       0       0       0       0       0       0
       0       0       0       0       0       0       0       0       0       0
       0       0       0       0       0       0       0       0       0       0
       0       0       0       0       0       0       0       0       0       0
       0       0       0       0       0       0       0       0       0       0
       0       0       0       0       0       0       0       0       0       0
       0       0       0       0       0       0       0       0       0       0
       0       0       0       0       0       0       0       0       0       0
       0       0       0       0       0       0       0       0       0       0
       0       0       0       0       0       0       0       0       0       0
       0       0       0       0       0       0       0       0       0       0
       0       0       0       0       0       0       0       0       0       0
       0       0       0       0       0       0       0       0       0       0
       0       0       0       0       0       0       0       0       0       0
       0       0       0       0       0       0       0       0       0       0
       0       0       0       0       0       0       0       0       0       0
       0       0       0       0       0       0       0       0       0       0
       0       0       0       0       0       0       0       0       0       0
       0       0       0       0       0       0       0       0       0       0
       0       0       0       0       0       0       0       0       0       0
       0       0       0       0       0       0       0       0       0       0
       0       0       0       0       0       0       0       0       0       0
       0       0       0       0       0       0       0       0       0       0
       0       0       0       0       0       0       0       0       0       0
       0       0       0       0       0       0       0       0       0       0
       0       0       0       0       0       0       0       0       0       0
       0       0       0       0       0       0       0       0       0       0
       0       0       0       0       0       0       0       0       0       0
       0       0       0       0       0       0       0       0       0       0
       0       0       0       0       0       0       0       0       0       0
       0       0       0       0       0       0       0       0       0       0
       0       0       0       0       0       0       0       0       0       0
       0       0       0       0       0       0       0       0       0       0
       0       0       0       0       0       0       0       0       0       0
       0       0       0       0       0       0       0       0       0       0
       0       0       0       0       0       0       0       0       0       0
       0       0       0       0       0       0       0       0       0       0
       0       0       0       0       0       0       0       0       0       0
       0       0       0       0       0       0       0       0       0       0
       0       0       0       0       0       0       0       0       0       0
       0       0       0       0       0       0       0       0       0       0
       0       0       0       0       0       0       0       0       0       0
       0       0       0       0       0       0       0       0       0       0
       0       0       0       0       0       0       0       0       0       0
       0       0       0       0       0       0       0       0       0       0
       0       0       0       0       0       0       0       0       0       0
       0       0       0       0       0       0       0       0       0       0
       0       0       0       0       0       0       0       0       0       0
       0       0       0       0       0       0       0       0       0       0
       0       0       0       0       0       0       0       0       0       0
       0       0       0       0       0       0       0       0       0       0
       0       0       0       0       0       0       0       0       0       0
       0       0       0       0       0       0       0       0       0       0
       0       0       0       0       0       0       0       0       0       0
       0       0       0       0       0       0       0       0       0       0
       0       0       0       0       0       0       0       0       0       0
       0       0       0       0       0       0       0       0       0       0
       0       0       0       0       0       0       0       0       0       0
       0       0       0       0       0       0       0       0       0       0
       0       0       0       0       0       0       0       0       0       0
       0       0       0       0       0       0       0       0       0       0
       0       0       0       0       0       0       0       0       0       0
       0       0       0       0       0       0       0       0       0       0
       0       0       0       0       0       0       0       0       0       0
       0       0       0       0       0       0       0       0       0       0
       0       0       0       0       0       0       0       0       0       0
       0       0       0       0       0       0       0       0       0       0
       0       0       0       0       0       0       0       0       0       0
       0       0       0       0       0       0       0       0       0       0
       0       0       0       0       0       0       0       0       0       0
       0       0       0       0       0       0       0       0       0       0
       0       0       0       0       0       0       0       0       0       0
       0       0       0       0       0       0       0       0       0       0
       0       0       0       0       0       0       0       0       0       0
       0       0       0       0       0       0       0       0       0       0
       0       0       0       0       0       0       0       0       0       0
       0       0       0       0       0       0       0       0       0       0
       0       0       0       0       0       0       0       0       0       0
       0       0       0       0       0       0       0       0       0       0
       0       0       0       0       0       0       0       0       0       0
       0       0       0       0       0       0       0       0       0       0
       0       0       0       0       0       0       0       0       0       0
       0       0       0       0       0       0       0       0       0       0
       0       0       0       0       0       0       0       0       0       0
       0       0       0       0       0       0       0       0       0       0
       0       0       0       0       0       0       0       0       0       0
       0       0       0       0       0       0       0       0       0       0
       0       0       0       0       0       0       0       0       0       0
       0       0       0       0       0       0       0       0       0       0
       0       0       0       0       0       0       0       0       0       0
       0       0       0       0       0       0       0       0       0       0
       0       0       0       0       0       0       0       0       0       0
       0       0       0       0       0       0       0       0       0       0
       0       0       0       0       0       0       0       0       0       0
       0       0       0       0       0       0       0       0       0       0
       0       0       0       0       0       0       0       0       0       0
       0       0       0       0       0       0       0       0       0       0
       0       0       0       0       0       0       0       0       0       0
       0       0       0       0       0       0       0       0       0       0
       0       0       0       0       0       0       0       0       0       0
       0       0       0       0       0       0       0       0       0       0
       0       0       0       0       0       0       0       0       0       0
       0       0       0       0       0       0       0       0       0       0
       0       0       0       0       0       0       0       0       0       0
       0       0       0       0       0       0       0       0       0       0
       0       0       0       0       0       0       0       0       0       0
       0       0       0       0       0       0       0       0       0       0
       0       0       0       0       0       0       0       0       0       0
       0       0       0       0       0       0       0       0       0       0
       0       0       0       0       0       0       0       0       0       0
       0       0       0       0       0       0       0       0       0       0
       0       0       0       0       0       0       0       0       0       0
       0       0       0       0       0       0       0       0       0       0
       0       0       0       0       0       0       0       0       0       0
       0       0       0       0       0       0       0       0       0       0
       0       0       0       0       0       0       0       0       0       0
       0       0       0       0       0       0       0       0       0       0
       0       0       0       0       0       0       0       0       0       0
       0       0       0       0       0       0       0       0       0       0
       0       0       0       0       0       0       0       0       0       0
       0       0       0       0       0       0       0       0       0       0
       0       0       0       0       0       0       0       0       0       0
       0       0       0       0       0       0       0       0       0       0
       0       0       0       0       0       0       0       0       0       0
       0       0       0       0       0       0       0       0       0       0
       0       0       0       0       0       0       0       0       0       0
       0       0       0       0       0       0       0       0       0       0
       0       0       0       0       0       0       0       0       0       0
       0       0       0       0       0       0       0       0       0       0
       0       0       0       0       0       0       0       0       0       0
       0       0       0       0       0       0       0       0       0       0
       0       0       0       0       0       0       0       0       0       0
       0       0       0       0       0       0       0       0       0       0
       0       0       0       0       0       0       0       0       0       0
       0       0       0       0       0       0       0       0       0       0
       0       0       0       0       0       0       0       0       0       0
       0       0       0       0       0       0       0       0       0       0
       0       0       0       0       0       0       0       0       0       0
       0       0       0       0       0       0       0       0       0       0
       0       0       0       0       0       0       0       0       0       0
       0       0       0       0       0       0       0       0       0       0
       0       0       0       0       0       0       0       0       0       0
       0       0       0       0       0       0       0       0       0       0
       0       0       0       0       0       0       0       0       0       0
       0       0       0       0       0       0       0       0       0       0
       0       0       0       0       0       0       0       0       0       0
       0       0       0       0       0       0       0       0       0       0
       0       0       0       0       0       0       0       0       0       0
       0       0       0       0       0       0       0       0       0       0
       0       0       0       0       0       0       0       0       0       0
       0       0       0       0       0       0       0       0       0       0
       0       0       0       0       0       0       0       0       0       0
       0       0       0       0       0       0       0       0       0       0
       0       0       0       0       0       0       0       0       0       0
       0       0       0       0       0       0       0       0       0       0
       0       0       0       0       0       0       0       0       0       0
       0       0       0       0       0       0       0       0       0       0
       0       0       0       0       0       0       0       0       0       0
       0       0       0       0       0       0       0       0       0       0
       0       0       0       0       0       0       0       0       0       0
       0       0       0       0       0       0       0       0       0       0
       0       0       0       0       0       0       0       0       0       0
       0       0       0       0       0       0       0       0       0       0
       0       0       0       0       0       0       0       0       0       0
       0       0       0       0       0       0       0       0       0       0
       0       0       0       0       0       0       0       0       0       0
       0       0       0       0       0       0       0       0       0       0
       0       0       0       0       0       0       0       0       0       0
       0       0       0       0       0       0       0       0       0       0
       0       0       0       0       0       0       0       0       0       0
       0       0       0       0       0       0       0       0       0       0
       0       0       0       0       0       0       0       0       0       0
       0       0       0       0       0       0       0       0       0       0
       0       0       0       0       0       0       0       0       0       0
       0       0       0       0       0       0       0       0       0       0
       0       0       0       0       0       0       0       0       0       0
       0       0       0       0       0       0       0       0       0       0
       0       0       0       0       0       0       0       0       0       0
       0       0       0       0       0       0       0       0       0       0
       0       0       0       0       0       0       0       0       0       0
       0       0       0       0       0       0       0       0       0       0
       0       0       0       0       0       0       0       0       0       0
       0       0       0       0       0       0       0       0       0       0
       0       0       0       0       0       0       0       0       0       0
       0       0       0       0       0       0       0       0       0       0
       0       0       0       0       0       0       0       0       0       0
       0       0       0       0       0       0       0       0       0       0
       0       0       0       0       0       0       0       0       0       0
       0       0       0       0       0       0       0       0       0       0
       0       0       0       0       0       0       0       0       0       0
       0       0       0       0       0       0       0       0       0       0
       0       0       0       0       0       0       0       0       0       0
       0       0       0       0       0       0       0       0       0       0
       0       0       0       0       0       0       0       0       0       0
       0       0       0       0       0       0       0       0       0       0
       0       0       0       0       0       0       0       0       0       0
       0       0       0       0       0       0       0       0       0       0
       0       0       0       0       0       0       0       0       0       0
       0       0       0       0       0       0       0       0       0       0
       0       0       0       0       0       0       0       0       0       0
       0       0       0       0       0       0       0       0       0       0
       0       0       0       0       0       0       0       0       0       0
       0       0       0       0       0       0       0       0       0       0
       0       0       0       0       0       0       0       0       0       0
       0       0       0       0       0       0       0       0       0       0
       0       0       0       0       0       0       0       0       0       0
       0       0       0       0       0       0       0       0       0       0
       0       0       0       0       0       0       0       0       0       0
       0       0       0       0       0       0       0       0       0       0
       0       0       0       0       0       0       0       0       0       0
       0       0       0       0       0       0       0       0       0       0
       0       0       0       0       0       0       0       0       0       0
       0       0       0       0       0       0       0       0       0       0
       0       0       0       0       0       0       0       0       0       0
       0       0       0       0       0       0       0       0       0       0
       0       0       0       0       0       0       0       0       0       0
       0       0       0       0       0       0       0       0       0       0
       0       0       0       0       0       0       0       0       0       0
       0       0       0       0       0       0       0       0       0       0
       0       0       0       0       0       0       0       0       0       0
       0       0       0       0       0       0       0       0       0       0
       0       0       0       0       0       0       0       0       0       0
       0       0       0       0       0       0       0       0       0       0
       0       0       0       0       0       0       0       0       0       0
       0       0       0       0       0       0       0       0       0       0
       0       0       0       0       0       0       0       0       0       0
       0       0       0       0       0       0       0       0       0       0
       0       0       0       0       0       0       0       0       0       0
       0       0       0       0       0       0       0       0       0       0
       0       0       0       0       0       0       0       0       0       0
       0       0       0       0       0       0       0       0       0       0
       0       0       0       0       0       0       0       0       0       0
       0       0       0       0       0       0       0       0       0       0
       0       0       0       0       0       0       0       0       0       0
       0       0       0       0       0       0       0       0       0       0
       0       0       0       0       0       0       0       0       0       0
       0       0       0       0       0       0       0       0       0       0
       0       0       0       0       0       0       0       0       0       0
       0       0       0       0       0       0       0       0       0       0
       0       0       0       0       0       0       0       0       0       0
       0       0       0       0       0       0       0       0       0       0
       0       0       0       0       0       0       0       0       0       0
       0       0       0       0       0       0       0       0       0       0
       0       0       0       0       0       0       0       0       0       0
       0       0       0       0       0       0       0       0       0       0
       0       0       0       0       0       0       0       0       0       0
       0       0       0       0       0       0       0       0       0       0
       0       0       0       0       0       0       0       0       0       0
       0       0       0       0       0       0       0       0       0       0
       0       0       0       0       0       0       0       0       0       0
       0       0       0       0       0       0       0       0       0       0
       0       0       0       0       0       0       0       0       0       0
       0       0       0       0       0       0       0       0       0       0
       0       0       0       0       0       0       0       0       0       0
       0       0       0       0       0       0       0       0       0       0
       0       0       0       0       0       0       0       0       0       0
       0       0       0       0       0       0       0       0       0       0
       0       0       0       0       0       0       0       0       0       0
       0       0       0       0       0       0       0       0       0       0
       0       0       0       0       0       0       0       0       0       0
       0       0       0       0       0       0       0       0       0       0
       0       0       0       0       0       0       0       0       0       0
       0       0       0       0       0       0       0       0       0       0
       0       0       0       0       0       0       0       0       0       0
       0       0       0       0       0       0       0       0       0       0
       0       0       0       0       0       0       0       0       0       0
       0       0       0       0       0       0       0       0       0       0
       0       0       0       0       0       0       0       0       0       0
       0       0       0       0       0       0       0       0       0       0
       0       0       0       0       0       0       0       0       0       0
       0       0       0       0       0       0       0       0       0       0
       0       0       0       0       0       0       0       0       0       0
       0       0       0       0       0       0       0       0       0       0
       0       0       0       0       0       0       0       0       0       0
       0       0       0       0       0       0       0       0       0       0
       0       0       0       0       0       0       0       0       0       0
       0       0       0       0       0       0       0       0       0       0
       0       0       0       0       0       0       0       0       0       0
       0       0       0       0       0       0       0       0       0       0
       0       0       0       0       0       0       0       0       0       0
       0       0       0       0       0       0       0       0       0       0
       0       0       0       0       0       0       0       0       0       0
       0       0       0       0       0       0       0       0       0       0
       0       0       0       0       0       0       0       0       0       0
       0       0       0       0       0       0       0       0       0       0
       0       0       0       0       0       0       0       0       0       0
       0       0       0       0       0       0       0       0       0       0
       0       0       0       0       0       0       0       0       0       0
       0       0       0       0       0       0       0       0       0       0
       0       0       0       0       0       0       0       0       0       0
       0       0       0       0       0       0       0       0       0       0
       0       0       0       0       0       0       0       0       0       0
       0       0       0       0       0       0       0       0       0       0
       0       0       0       0       0       0       0       0       0       0
       0       0       0       0       0       0       0       0       0       0
       0       0       0       0       0       0       0       0       0       0
       0       0       0       0       0       0       0       0       0       0
       0       0       0       0       0       0       0       0       0       0
       0       0       0       0       0       0       0       0       0       0
       0       0       0       0       0       0       0       0       0       0
       0       0       0       0       0       0       0       0       0       0
       0       0       0       0       0       0       0       0       0       0
       0       0       0       0       0       0       0       0       0       0
       0       0       0       0       0       0       0       0       0       0
       0       0       0       0       0       0       0       0       0       0
       0       0       0       0       0       0       0       0       0       0
       0       0       0       0       0       0       0       0       0       0
       0       0       0       0       0       0       0       0       0       0
       0       0       0       0       0       0       0       0       0       0
       0       0       0       0       0       0       0       0       0       0
       0       0       0       0       0       0       0       0       0       0
       0       0       0       0       0       0       0       0       0       0
       0       0       0       0       0       0       0       0       0       0
       0       0       0       0       0       0       0       0       0       0
       0       0       0       0       0       0       0       0       0       0
       0       0       0       0       0       0       0       0       0       0
       0       0       0       0       0       0       0       0       0       0
       0       0       0       0       0       0       0       0       0       0
       0       0       0       0       0       0       0       0       0       0
       0       0       0       0       0       0       0       0       0       0
       0       0       0       0       0       0       0       0       0       0
       0       0       0       0       0       0       0       0       0       0
       0       0       0       0       0       0       0       0       0       0
       0       0       0       0       0       0       0       0       0       0
       0       0       0       0       0       0       0       0       0       0
       0       0       0       0       0       0       0       0       0       0
       0       0       0       0       0       0       0       0       0       0
       0       0       0       0       0       0       0       0       0       0
       0       0       0       0       0       0       0       0       0       0
       0       0       0       0       0       0       0       0       0       0
       0       0       0       0       0       0       0       0       0       0
       0       0       0       0       0       0       0       0       0       0
       0       0       0       0       0       0       0       0       0       0
       0       0       0       0       0       0       0       0       0       0
       0       0       0       0       0       0       0       0       0       0
       0       0       0       0       0       0       0       0       0       0
       0       0       0       0       0       0       0       0       0       0
       0       0       0       0       0       0       0       0       0       0
       0       0       0       0       0       0       0       0       0       0
       0       0       0       0       0       0       0       0       0       0
       0       0       0       0       0       0       0       0       0       0
       0       0       0       0       0       0       0       0       0       0
       0       0       0       0       0       0       0       0       0       0
       0       0       0       0       0       0       0       0       0       0
       0       0       0       0       0       0       0       0       0       0
       0       0       0       0       0       0       0       0       0       0
       0       0       0       0       0       0       0       0       0       0
       0       0       0       0       0       0       0       0       0       0
       0       0       0       0       0       0       0       0       0       0
       0       0       0       0       0       0       0       0       0       0
       0       0       0       0       0       0       0       0       0       0
       0       0       0       0       0       0       0       0       0       0
       0       0       0       0       0       0       0       0       0       0
       0       0       0       0       0       0       0       0       0       0
       0       0       0       0       0       0       0       0       0       0
       0       0       0       0       0       0       0       0       0       0
       0       0       0       0       0       0       0       0       0       0
       0       0       0       0       0       0       0       0       0       0
       0       0       0       0       0       0       0       0       0       0
       0       0       0       0       0       0       0       0       0       0
       0       0       0       0       0       0       0       0       0       0
       0       0       0       0       0       0       0       0       0       0
       0       0       0       0       0       0       0       0       0       0
       0       0       0       0       0       0       0       0       0       0
       0       0       0       0       0       0       0       0       0       0
       0       0       0       0       0       0       0       0       0       0
       0       0       0       0       0       0       0       0       0       0
       0       0       0       0       0       0       0       0       0       0
       0       0       0       0       0       0       0       0       0       0
       0       0       0       0       0       0       0       0       0       0
       0       0       0       0       0       0       0       0       0       0
       0       0       0       0       0       0       0       0       0       0
       0       0       0       0       0       0       0       0       0       0
       0       0       0       0       0       0       0       0       0       0
       0       0       0       0       0       0       0       0       0       0
       0       0       0       0       0       0       0       0       0       0
       0       0       0       0       0       0       0       0       0       0
       0       0       0       0       0       0       0       0       0       0
       0       0       0       0       0       0       0       0       0       0
       0       0       0       0       0       0       0       0       0       0
       0       0       0       0       0       0       0       0       0       0
       0       0       0       0       0       0       0       0       0       0
       0       0       0       0       0       0       0       0       0       0
       0       0       0       0       0       0       0       0       0       0
       0       0       0       0       0       0       0       0       0       0
       0       0       0       0       0       0       0       0       0       0
       0       0       0       0       0       0       0       0       0       0
       0       0       0       0       0       0       0       0       0       0
       0       0       0       0       0       0       0       0       0       0
       0       0       0       0       0       0       0       0       0       0
       0       0       0       0       0       0       0       0       0       0
       0       0       0       0       0       0       0       0       0       0
       0       0       0       0       0       0       0       0       0       0
       0       0       0       0       0       0       0       0       0       0
       0       0       0       0       0       0       0       0       0       0
       0       0       0       0       0       0       0       0       0       0
       0       0       0       0       0       0       0       0       0       0
       0       0       0       0       0       0       0       0       0       0
       0       0       0       0       0       0       0       0       0       0
       0       0       0       0       0       0       0       0       0       0
       0       0       0       0       0       0       0       0       0       0
       0       0       0       0       0       0       0       0       0       0
       0       0       0       0       0       0       0       0       0       0
       0       0       0       0       0       0       0       0       0       0
       0       0       0       0       0       0       0       0       0       0
       0       0       0       0       0       0       0       0       0       0
       0       0       0       0       0       0       0       0       0       0
       0       0       0       0       0       0       0       0       0       0
       0       0       0       0       0       0       0       0       0       0
       0       0       0       0       0       0       0       0       0       0
       0       0       0       0       0       0       0       0       0       0
       0       0       0       0       0       0       0       0       0       0
       0       0       0       0       0       0       0       0       0       0
       0       0       0       0       0       0       0       0       0       0
       0       0       0       0       0       0       0       0       0       0
       0       0       0       0       0       0       0       0       0       0
       0       0       0       0       0       0       0       0       0       0
       0       0       0       0       0       0       0       0       0       0
       0       0       0       0       0       0       0       0       0       0
       0       0       0       0       0       0       0       0       0       0
       0       0       0       0       0       0       0       0       0       0
       0       0       0       0       0       0       0       0       0       0
       0       0       0       0       0       0       0       0       0       0
       0       0       0       0       0       0       0       0       0       0
       0       0       0       0       0       0       0       0       0       0
       0       0       0       0       0       0       0       0       0       0
       0       0       0       0       0       0       0       0       0       0
       0       0       0       0       0       0       0       0       0       0
       0       0       0       0       0       0       0       0       0       0
       0       0       0       0       0       0       0       0       0       0
       0       0       0       0       0       0       0       0       0       0
       0       0       0       0       0       0       0       0       0       0
       0       0       0       0       0       0       0       0       0       0
       0       0       0       0       0       0       0       0       0       0
       0       0       0       0       0       0       0       0       0       0
       0       0       0       0       0       0       0       0       0       0
       0       0       0       0       0       0       0       0       0       0
       0       0       0       0       0       0       0       0       0       0
       0       0       0       0       0       0       0       0       0       0
       0       0       0       0       0       0       0       0       0       0
       0       0       0       0       0       0       0       0       0       0
       0       0       0       0       0       0       0       0       0       0
       0       0       0       0       0       0       0       0       0       0
       0       0       0       0       0       0       0       0       0       0
       0       0       0       0       0       0       0       0       0       0
       0       0       0       0       0       0       0       0       0       0
       0       0       0       0       0       0       0       0       0       0
       0       0       0       0       0       0       0       0       0       0
       0       0       0       0       0       0       0       0       0       0
       0       0       0       0       0       0       0       0       0       0
       0       0       0       0       0       0       0       0       0       0
       0       0       0       0       0       0       0       0       0       0
       0       0       0       0       0       0       0       0       0       0
       0       0       0       0       0       0       0       0       0       0
       0       0       0       0       0       0       0       0       0       0
       0       0       0       0       0       0       0       0       0       0
       0       0       0       0       0       0       0       0       0       0
       0       0       0       0       0       0       0       0       0       0
       0       0       0       0       0       0       0       0       0       0
       0       0       0       0       0       0       0       0       0       0
       0       0       0       0       0       0       0       0       0       0
       0       0       0       0       0       0       0       0       0       0
       0       0       0       0       0       0       0       0       0       0
       0       0       0       0       0       0       0       0       0       0
       0       0       0       0       0       0       0       0       0       0
       0       0       0       0       0       0       0       0       0       0
       0       0       0       0       0       0       0       0       0       0
       0       0       0       0       0       0       0       0       0       0
       0       0       0       0       0       0       0       0       0       0
       0       0       0       0       0       0       0       0       0       0
       0       0       0       0       0       0       0       0       0       0
       0       0       0       0       0       0       0       0       0       0
       0       0       0       0       0       0       0       0       0       0
       0       0       0       0       0       0       0       0       0       0
       0       0       0       0       0       0       0       0       0       0
       0       0       0       0       0       0       0       0       0       0
       0       0       0       0       0       0       0       0       0       0
       0       0       0       0       0       0       0       0       0       0
       0       0       0       0       0       0       0       0       0       0
       0       0       0       0       0       0       0       0       0       0
       0       0       0       0       0       0       0       0       0       0
       0       0       0       0       0       0       0       0       0       0
       0       0       0       0       0       0       0       0       0       0
       0       0       0       0       0       0       0       0       0       0
       0       0       0       0       0       0       0       0       0       0
       0       0       0       0       0       0       0       0       0       0
       0       0       0       0       0       0       0       0       0       0
       0       0       0       0       0       0       0       0       0       0
       0       0       0       0       0       0       0       0       0       0
       0       0       0       0       0       0       0       0       0       0
       0       0       0       0       0       0       0       0       0       0
       0       0       0       0       0       0       0       0       0       0
       0       0       0       0       0       0       0       0       0       0
       0       0       0       0       0       0       0       0       0       0
       0       0       0       0       0       0       0       0       0       0
       0       0       0       0       0       0       0       0       0       0
       0       0       0       0       0       0       0       0       0       0
       0       0       0       0       0       0       0       0       0       0
       0       0       0       0       0       0       0       0       0       0
       0       0       0       0       0       0       0       0       0       0
       0       0       0       0       0       0       0       0       0       0
       0       0       0       0       0       0       0       0       0       0
       0       0       0       0       0       0       0       0       0       0
       0       0       0       0       0       0       0       0       0       0
       0       0       0       0       0       0       0       0       0       0
       0       0       0       0       0       0       0       0       0       0
       0       0       0       0       0       0       0       0       0       0
       0       0       0       0       0       0       0       0       0       0
       0       0       0       0       0       0       0       0       0       0
       0       0       0       0       0       0       0       0       0       0
       0       0       0       0       0       0       0       0       0       0
       0       0       0       0       0       0       0       0       0       0
       0       0       0       0       0       0       0       0       0       0
       0       0       0       0       0       0       0       0       0       0
       0       0       0       0       0       0       0       0       0       0
       0       0       0       0       0       0       0       0       0       0
       0       0       0       0       0       0       0       0       0       0
       0       0       0       0       0       0       0       0       0       0
       0       0       0       0       0       0       0       0       0       0
       0       0       0       0       0       0       0       0       0       0
       0       0       0       0       0       0       0       0       0       0
       0       0       0       0       0       0       0       0       0       0
       0       0       0       0       0       0       0       0       0       0
       0       0       0       0       0       0       0       0       0       0
       0       0       0       0       0       0       0       0       0       0
       0       0       0       0       0       0       0       0       0       0
       0       0       0       0       0       0       0       0       0       0
       0       0       0       0       0       0       0       0       0       0
       0       0       0       0       0       0       0       0       0       0
       0       0       0       0       0       0       0       0       0       0
       0       0       0       0       0       0       0       0       0       0
       0       0       0       0       0       0       0       0       0       0
       0       0       0       0       0       0       0       0       0       0
       0       0       0       0       0       0       0       0       0       0
       0       0       0       0       0       0       0       0       0       0
       0       0       0       0       0       0       0       0       0       0
       0       0       0       0       0       0       0       0       0       0
       0       0       0       0       0       0       0       0       0       0
       0       0       0       0       0       0       0       0       0       0
       0       0       0       0       0       0       0       0       0       0
       0       0       0       0       0       0       0       0       0       0
       0       0       0       0       0       0       0       0       0       0
       0       0       0       0       0       0       0       0       0       0
       0       0       0       0       0       0       0       0       0       0
       0       0       0       0       0       0       0       0       0       0
       0       0       0       0       0       0       0       0       0       0
       0       0       0       0       0       0       0       0       0       0
       0       0       0       0       0       0       0       0       0       0
       0       0       0       0       0       0       0       0       0       0
       0       0       0       0       0       0       0       0       0       0
       0       0       0       0       0       0       0       0       0       0
       0       0       0       0       0       0       0       0       0       0
       0       0       0       0       0       0       0       0       0       0
       0       0       0       0       0       0       0       0       0       0
       0       0       0       0       0       0       0       0       0       0
       0       0       0       0       0       0       0       0       0       0
       0       0       0       0       0       0       0       0       0       0
       0       0       0       0       0       0       0       0       0       0
       0       0       0       0       0       0       0       0       0       0
       0       0       0       0       0       0       0       0       0       0
       0       0       0       0       0       0       0       0       0       0
       0       0       0       0       0       0       0       0       0       0
       0       0       0       0       0       0       0       0       0       0
       0       0       0       0       0       0       0       0       0       0
       0       0       0       0       0       0       0       0       0       0
       0       0       0       0       0       0       0       0       0       0
       0       0       0       0       0       0       0       0       0       0
       0       0       0       0       0       0       0       0       0       0
       0       0       0       0       0       0       0       0       0       0
       0       0       0       0       0       0       0       0       0       0
       0       0       0       0       0       0       0       0       0       0
       0       0       0       0       0       0       0       0       0       0
       0       0       0       0       0       0       0       0       0       0
       0       0       0       0       0       0       0       0       0       0
       0       0       0       0       0       0       0       0       0       0
       0       0       0       0       0       0       0       0       0       0
       0       0       0       0       0       0       0       0       0       0
       0       0       0       0       0       0       0       0       0       0
       0       0       0       0       0       0       0       0       0       0
       0       0       0       0       0       0       0       0       0       0
       0       0       0       0       0       0       0       0       0       0
       0       0       0       0       0       0       0       0       0       0
       0       0       0       0       0       0       0       0       0       0
       0       0       0       0       0       0       0       0       0       0
       0       0       0       0       0       0       0       0       0       0
       0       0       0       0       0       0       0       0       0       0
       0       0       0       0       0       0       0       0       0       0
       0       0       0       0       0       0       0       0       0       0
       0       0       0       0       0       0       0       0       0       0
       0       0       0       0       0       0       0       0       0       0
       0       0       0       0       0       0       0       0       0       0
       0       0       0       0       0       0       0       0       0       0
       0       0       0       0       0       0       0       0       0       0
       0       0       0       0       0       0       0       0       0       0
       0       0       0       0       0       0       0       0       0       0
       0       0       0       0       0       0       0       0       0       0
       0       0       0       0       0       0       0       0       0       0
       0       0       0       0       0       0       0       0       0       0
       0       0       0       0       0       0       0       0       0       0
       0       0       0       0       0       0       0       0       0       0
       0       0       0       0       0       0       0       0       0       0
       0       0       0       0       0       0       0       0       0       0
       0       0       0       0       0       0       0       0       0       0
       0       0       0       0       0       0       0       0       0       0
       0       0       0       0       0       0       0       0       0       0
       0       0       0       0       0       0       0       0       0       0
       0       0       0       0       0       0       0       0       0       0
       0       0       0       0       0       0       0       0       0       0
       0       0       0       0       0       0       0       0       0       0
       0       0       0       0       0       0       0       0       0       0
       0       0       0       0       0       0       0       0       0       0
       0       0       0       0       0       0       0       0       0       0
       0       0       0       0       0       0       0       0       0       0
       0       0       0       0       0       0       0       0       0       0
       0       0       0       0       0       0       0       0       0       0
       0       0       0       0       0       0       0       0       0       0
       0       0       0       0       0       0       0       0       0       0
       0       0       0       0       0       0       0       0       0       0
       0       0       0       0       0       0       0       0       0       0
       0       0       0       0       0       0       0       0       0       0
       0       0       0       0       0       0       0       0       0       0
       0       0       0       0       0       0       0       0       0       0
       0       0       0       0       0       0       0       0       0       0
       0       0       0       0       0       0       0       0       0       0
       0       0       0       0       0       0       0       0       0       0
       0       0       0       0       0       0       0       0       0       0
       0       0       0       0       0       0       0       0       0       0
       0       0       0       0       0       0       0       0       0       0
       0       0       0       0       0       0       0       0       0       0
       0       0       0       0       0       0       0       0       0       0
       0       0       0       0       0       0       0       0       0       0
       0       0       0       0       0       0       0       0       0       0
       0       0       0       0       0       0       0       0       0       0
       0       0       0       0       0       0       0       0       0       0
       0       0       0       0       0       0       0       0       0       0
       0       0       0       0       0       0       0       0       0       0
       0       0       0       0       0       0       0       0       0       0
       0       0       0       0       0       0       0       0       0       0
       0       0       0       0       0       0       0       0       0       0
       0       0       0       0       0       0       0       0       0       0
       0       0       0       0       0       0       0       0       0       0
       0       0       0       0       0       0       0       0       0       0
       0       0       0       0       0       0       0       0       0       0
       0       0       0       0       0       0       0       0       0       0
       0       0       0       0       0       0       0       0       0       0
       0       0       0       0       0       0       0       0       0       0
       0       0       0       0       0       0       0       0       0       0
       0       0       0       0       0       0       0       0       0       0
       0       0       0       0       0       0       0       0       0       0
       0       0       0       0       0       0       0       0       0       0
       0       0       0       0       0       0       0       0       0       0
       0       0       0       0       0       0       0       0       0       0
       0       0       0       0       0       0       0       0       0       0
       0       0       0       0       0       0       0       0       0       0
       0       0       0       0       0       0       0       0       0       0
       0       0       0       0       0       0       0       0       0       0
       0       0       0       0       0       0       0       0       0       0
       0       0       0       0       0       0       0       0       0       0
       0       0       0       0       0       0       0       0       0       0
       0       0       0       0       0       0       0       0       0       0
       0       0       0       0       0       0       0       0       0       0
       0       0       0       0       0       0       0       0       0       0
       0       0       0       0       0       0       0       0       0       0
       0       0       0       0       0       0       0       0       0       0
       0       0       0       0       0       0       0       0       0       0
       0       0       0       0       0       0       0       0       0       0
       0       0       0       0       0       0       0       0       0       0
       0       0       0       0       0       0       0       0       0       0
       0       0       0       0       0       0       0       0       0       0
       0       0       0       0       0       0       0       0       0       0
       0       0       0       0       0       0       0       0       0       0
       0       0       0       0       0       0       0       0       0       0
       0       0       0       0       0       0       0       0       0       0
       0       0       0       0       0       0       0       0       0       0
       0       0       0       0       0       0       0       0       0       0
       0       0       0       0       0       0       0       0       0       0
       0       0       0       0       0       0       0       0       0       0
       0       0       0       0       0       0       0       0       0       0
       0       0       0       0       0       0       0       0       0       0
       0       0       0       0       0       0       0       0       0       0
       0       0       0       0       0       0       0       0       0       0
       0       0       0       0       0       0       0       0       0       0
       0       0       0       0       0       0       0       0       0       0
       0       0       0       0       0       0       0       0       0       0
       0       0       0       0       0       0       0       0       0       0
       0       0       0       0       0       0       0       0       0       0
       0       0       0       0       0       0       0       0       0       0
       0       0       0       0       0       0       0       0       0       0
       0       0       0       0       0       0       0       0       0       0
       0       0       0       0       0       0       0       0       0       0
       0       0       0       0       0       0       0       0       0       0
       0       0       0       0       0       0       0       0       0       0
       0       0       0       0       0       0       0       0       0       0
       0       0       0       0       0       0       0       0       0       0
       0       0       0       0       0       0       0       0       0       0
       0       0       0       0       0       0       0       0       0       0
       0       0       0       0       0       0       0       0       0       0
       0       0       0       0       0       0       0       0       0       0
       0       0       0       0       0       0       0       0       0       0
       0       0       0       0       0       0       0       0       0       0
       0       0       0       0       0       0       0       0       0       0
       0       0       0       0       0       0       0       0       0       0
       0       0       0       0       0       0       0       0       0       0
       0       0       0       0       0       0       0       0       0       0
       0       0       0       0       0       0       0       0       0       0
       0       0       0       0       0       0       0       0       0       0
       0       0       0       0       0       0       0       0       0       0
       0       0       0       0       0       0       0       0       0       0
       0       0       0       0       0       0       0       0       0       0
       0       0       0       0       0       0       0       0       0       0
       0       0       0       0       0       0       0       0       0       0
       0       0       0       0       0       0       0       0       0       0
       0       0       0       0       0       0       0       0       0       0
       0       0       0       0       0       0       0       0       0       0
       0       0       0       0       0       0       0       0       0       0
       0       0       0       0       0       0       0       0       0       0
       0       0       0       0       0       0       0       0       0       0
       0       0       0       0       0       0       0       0       0       0
       0       0       0       0       0       0       0       0       0       0
       0       0       0       0       0       0       0       0       0       0
       0       0       0       0       0       0       0       0       0       0
       0       0       0       0       0       0       0       0       0       0
       0       0       0       0       0       0       0       0       0       0
       0       0       0       0       0       0       0       0       0       0
       0       0       0       0       0       0       0       0       0       0
       0       0       0       0       0       0       0       0       0       0
       0       0       0       0       0       0       0       0       0       0
       0       0       0       0       0       0       0       0       0       0
       0       0       0       0       0       0       0       0       0       0
       0       0       0       0       0       0       0       0       0       0
       0       0       0       0       0       0       0       0       0       0
       0       0       0       0       0       0       0       0       0       0
       0       0       0       0       0       0       0       0       0       0
       0       0       0       0       0       0       0       0       0       0
       0       0       0       0       0       0       0       0       0       0
       0       0       0       0       0       0       0       0       0       0
       0       0       0       0       0       0       0       0       0       0
       0       0       0       0       0       0       0       0       0       0
       0       0       0       0       0       0       0       0       0       0
       0       0       0       0       0       0       0       0       0       0
       0       0       0       0       0       0       0       0       0       0
       0       0       0       0       0       0       0       0       0       0
       0       0       0       0       0       0       0       0       0       0
       0       0       0       0       0       0       0       0       0       0
       0       0       0       0       0       0       0       0       0       0
       0       0       0       0       0       0       0       0       0       0
       0       0       0       0       0       0       0       0       0       0
       0       0       0       0       0       0       0       0       0       0
       0       0       0       0       0       0       0       0       0       0
       0       0       0       0       0       0       0       0       0       0
       0       0       0       0       0       0       0       0       0       0
       0       0       0       0       0       0       0       0       0       0
       0       0       0       0       0       0       0       0       0       0
       0       0       0       0       0       0       0       0       0       0
       0       0       0       0       0       0       0       0       0       0
       0       0       0       0       0       0       0       0       0       0
       0       0       0       0       0       0       0       0       0       0
       0       0       0       0       0       0       0       0       0       0
       0       0       0       0       0       0       0       0       0       0
       0       0       0       0       0       0       0       0       0       0
       0       0       0       0       0       0       0       0       0       0
       0       0       0       0       0       0       0       0       0       0
       0       0       0       0       0       0       0       0       0       0
       0       0       0       0       0       0       0       0       0       0
       0       0       0       0       0       0       0       0       0       0
       0       0       0       0       0       0       0       0       0       0
       0       0       0       0       0       0       0       0       0       0
       0       0       0       0       0       0       0       0       0       0
       0       0       0       0       0       0       0       0       0       0
       0       0       0       0       0       0       0       0       0       0
       0       0       0       0       0       0       0       0       0       0
       0       0       0       0       0       0       0       0       0       0
       0       0       0       0       0       0       0       0       0       0
       0       0       0       0       0       0       0       0       0       0
       0       0       0       0       0       0       0       0       0       0
       0       0       0       0       0       0       0       0       0       0
       0       0       0       0       0       0       0       0       0       0
       0       0       0       0       0       0       0       0       0       0
       0       0       0       0       0       0       0       0       0       0
       0       0       0       0       0       0       0       0       0       0
       0       0       0       0       0       0       0       0       0       0
       0       0       0       0       0       0       0       0       0       0
       0       0       0       0       0       0       0       0       0       0
       0       0       0       0       0       0       0       0       0       0
       0       0       0       0       0       0       0       0       0       0
       0       0       0       0       0       0       0       0       0       0
       0       0       0       0       0       0       0       0       0       0
       0       0       0       0       0       0       0       0       0       0
       0       0       0       0       0       0       0       0       0       0
       0       0       0       0       0       0       0       0       0       0
       0       0       0       0       0       0       0       0       0       0
       0       0       0       0       0       0       0       0       0       0
       0       0       0       0       0       0       0       0       0       0
       0       0       0       0       0       0       0       0       0       0
       0       0       0       0       0       0       0       0       0       0
       0       0       0       0       0       0       0       0       0       0
       0       0       0       0       0       0       0       0       0       0
       0       0       0       0       0       0       0       0       0       0
       0       0       0       0       0       0       0       0       0       0
       0       0       0       0       0       0       0       0       0       0
       0       0       0       0       0       0       0       0       0       0
       0       0       0       0       0       0       0       0       0       0
       0       0       0       0       0       0       0       0       0       0
       0       0       0       0       0       0       0       0       0       0
       0       0       0       0       0       0       0       0       0       0
       0       0       0       0       0       0       0       0       0       0
       0       0       0       0       0       0       0       0       0       0
       0       0       0       0       0       0       0       0       0       0
       0       0       0       0       0       0       0       0       0       0
       0       0       0       0       0       0       0       0       0       0
       0       0       0       0       0       0       0       0       0       0
       0       0       0       0       0       0       0       0       0       0
       0       0       0       0       0       0       0       0       0       0
       0       0       0       0       0       0       0       0       0       0
       0       0       0       0       0       0       0       0       0       0
       0       0       0       0       0       0       0       0       0       0
       0       0       0       0       0       0       0       0       0       0
       0       0       0       0       0       0       0       0       0       0
       0       0       0       0       0       0       0       0       0       0
       0       0       0       0       0       0       0       0       0       0
       0       0       0       0       0       0       0       0       0       0
       0       0       0       0       0       0       0       0       0       0
       0       0       0       0       0       0       0       0       0       0
       0       0       0       0       0       0       0       0       0       0
       0       0       0       0       0       0       0       0       0       0
       0       0       0       0       0       0       0       0       0       0
       0       0       0       0       0       0       0       0       0       0
       0       0       0       0       0       0       0       0       0       0
       0       0       0       0       0       0       0       0       0       0
       0       0       0       0       0       0       0       0       0       0
       0       0       0       0       0       0       0       0       0       0
       0       0       0       0       0       0       0       0       0       0
       0       0       0       0       0       0       0       0       0       0
       0       0       0       0       0       0       0       0       0       0
       0       0       0       0       0       0       0       0       0       0
       0       0       0       0       0       0       0       0       0       0
       0       0       0       0       0       0       0       0       0       0
       0       0       0       0       0       0       0       0       0       0
       0       0       0       0       0       0       0       0       0       0
       0       0       0       0       0       0       0       0       0       0
       0       0       0       0       0       0       0       0       0       0
       0       0       0       0       0       0       0       0       0       0
       0       0       0       0       0       0       0       0       0       0
       0       0       0       0       0       0       0       0       0       0
       0       0       0       0       0       0       0       0       0       0
       0       0       0       0       0       0       0       0       0       0
       0       0       0       0       0       0       0       0       0       0
       0       0       0       0       0       0       0       0       0       0
       0       0       0       0       0       0       0       0       0       0
       0       0       0       0       0       0       0       0       0       0
       0       0       0       0       0       0       0       0       0       0
       0       0       0       0       0       0       0       0       0       0
       0       0       0       0       0       0       0       0       0       0
       0       0       0       0       0       0       0       0       0       0
       0       0       0       0       0       0       0       0       0       0
       0       0       0       0       0       0       0       0       0       0
       0       0       0       0       0       0       0       0       0       0
       0       0       0       0       0       0       0       0       0       0
       0       0       0       0       0       0       0       0       0       0
       0       0       0       0       0       0       0       0       0       0
       0       0       0       0       0       0       0       0       0       0
       0       0       0       0       0       0       0       0       0       0
       0       0       0       0       0       0       0       0       0       0
       0       0       0       0       0       0       0       0       0       0
       0       0       0       0       0       0       0       0       0       0
       0       0       0       0       0       0       0       0       0       0
       0       0       0       0       0       0       0       0       0       0
       0       0       0       0       0       0       0       0       0       0
       0       0       0       0       0       0       0       0       0       0
       0       0       0       0       0       0       0       0       0       0
       0       0       0       0       0       0       0       0       0       0
       0       0       0       0       0       0       0       0       0       0
       0       0       0       0       0       0       0       0       0       0
       0       0       0       0       0       0       0       0       0       0
       0       0       0       0       0       0       0       0       0       0
       0       0       0       0       0       0       0       0       0       0
       0       0       0       0       0       0       0       0       0       0
       0       0       0       0       0       0       0       0       0       0
       0       0       0       0       0       0       0       0       0       0
       0       0       0       0       0       0       0       0       0       0
       0       0       0       0       0       0       0       0       0       0
       0       0       0       0       0       0       0       0       0       0
       0       0       0       0       0       0       0       0       0       0
       0       0       0       0       0       0       0       0       0       0
       0       0       0       0       0       0       0       0       0       0
       0       0       0       0       0       0       0       0       0       0
       0       0       0       0       0       0       0       0       0       0
       0       0       0       0       0       0       0       0       0       0
       0       0       0       0       0       0       0       0       0       0
       0       0       0       0       0       0       0       0       0       0
       0       0       0       0       0       0       0       0       0       0
       0       0       0       0       0       0       0       0       0       0
       0       0       0       0       0       0       0       0       0       0
       0       0       0       0       0       0       0       0       0       0
       0       0       0       0       0       0       0       0       0       0
       0       0       0       0       0       0       0       0       0       0
       0       0       0       0       0       0       0       0       0       0
       0       0       0       0       0       0       0       0       0       0
       0       0       0       0       0       0       0       0       0       0
       0       0       0       0       0       0       0       0       0       0
       0       0       0       0       0       0       0       0       0       0
       0       0       0       0       0       0       0       0       0       0
       0       0       0       0       0       0       0       0       0       0
       0       0       0       0       0       0       0       0       0       0
       0       0       0       0       0       0       0       0       0       0
       0       0       0       0       0       0       0       0       0       0
       0       0       0       0       0       0       0       0       0       0
       0       0       0       0       0       0       0       0       0       0
       0       0       0       0       0       0       0       0       0       0
       0       0       0       0       0       0       0       0       0       0
       0       0       0       0       0       0       0       0       0       0
       0       0       0       0       0       0       0       0       0       0
       0       0       0       0       0       0       0       0       0       0
       0       0       0       0       0       0       0       0       0       0
       0       0       0       0       0       0       0       0       0       0
       0       0       0       0       0       0       0       0       0       0
       0       0       0       0       0       0       0       0       0       0
       0       0       0       0       0       0       0       0       0       0
       0       0       0       0       0       0       0       0       0       0
       0       0       0       0       0       0       0       0       0       0
       0       0       0       0       0       0       0       0       0       0
       0       0       0       0       0       0       0       0       0       0
       0       0       0       0       0       0       0       0       0       0
       0       0       0       0       0       0       0       0       0       0
       0       0       0       0       0       0       0       0       0       0
       0       0       0       0       0       0       0       0       0       0
       0       0       0       0       0       0       0       0       0       0
       0       0       0       0       0       0       0       0       0       0
       0       0       0       0       0       0       0       0       0       0
       0       0       0       0       0       0       0       0       0       0
       0       0       0       0       0       0       0       0       0       0
       0       0       0       0       0       0       0       0       0       0
       0       0       0       0       0       0       0       0       0       0
       0       0       0       0       0       0       0       0       0       0
       0       0       0       0       0       0       0       0       0       0
       0       0       0       0       0       0       0       0       0       0
       0       0       0       0       0       0       0       0       0       0
       0       0       0       0       0       0       0       0       0       0
       0       0       0       0       0       0       0       0       0       0
       0       0       0       0       0       0       0       0       0       0
       0       0       0       0       0       0       0       0       0       0
       0       0       0       0       0       0       0       0       0       0
       0       0       0       0       0       0       0       0       0       0
       0       0       0       0       0       0       0       0       0       0
       0       0       0       0       0       0       0       0       0       0
       0       0       0       0       0       0       0       0       0       0
       0       0       0       0       0       0       0       0       0       0
       0       0       0       0       0       0       0       0       0       0
       0       0       0       0       0       0       0       0       0       0
       0       0       0       0       0       0       0       0       0       0
       0       0       0       0       0       0       0       0       0       0
       0       0       0       0       0       0       0       0       0       0
       0       0       0       0       0       0       0       0       0       0
       0       0       0       0       0       0       0       0       0       0
       0       0       0       0       0       0       0       0       0       0
       0       0       0       0       0       0       0       0       0       0
       0       0       0       0       0       0       0       0       0       0
       0       0       0       0       0       0       0       0       0       0
       0       0       0       0       0       0       0       0       0       0
       0       0       0       0       0       0       0       0       0       0
       0       0       0       0       0       0       0       0       0       0
       0       0       0       0       0       0       0       0       0       0
       0       0       0       0       0       0       0       0       0       0
       0       0       0       0       0       0       0       0       0       0
       0       0       0       0       0       0       0       0       0       0
       0       0       0       0       0       0       0       0       0       0
       0       0       0       0       0       0       0       0       0       0
       0       0       0       0       0       0       0       0       0       0
       0       0       0       0       0       0       0       0       0       0
       0       0       0       0       0       0       0       0       0       0
       0       0       0       0       0       0       0       0       0       0
       0       0       0       0       0       0       0       0       0       0
       0       0       0       0       0       0       0       0       0       0
       0       0       0       0       0       0       0       0       0       0
       0       0       0       0       0       0       0       0       0       0
       0       0       0       0       0       0       0       0       0       0
       0       0       0       0       0       0       0       0       0       0
       0       0       0       0       0       0       0       0       0       0
       0       0       0       0       0       0       0       0       0       0
       0       0       0       0       0       0       0       0       0       0
       0       0       0       0       0       0       0       0       0       0
       0       0       0       0       0       0       0       0       0       0
       0       0       0       0       0       0       0       0       0       0
       0       0       0       0       0       0       0       0       0       0
       0       0       0       0       0       0       0       0       0       0
       0       0       0       0       0       0       0       0       0       0
       0       0       0       0       0       0       0       0       0       0
       0       0       0       0       0       0       0       0       0       0
       0       0       0       0       0       0       0       0       0       0
       0       0       0       0       0       0       0       0       0       0
       0       0       0       0       0       0       0       0       0       0
       0       0       0       0       0       0       0       0       0       0
       0       0       0       0       0       0       0       0       0       0
       0       0       0       0       0       0       0       0       0       0
       0       0       0       0       0       0       0       0       0       0
       0       0       0       0       0       0       0       0       0       0
       0       0       0       0       0       0       0       0       0       0
       0       0       0       0       0       0       0       0       0       0
       0       0       0       0       0       0       0       0       0       0
       0       0       0       0       0       0       0       0       0       0
       0       0       0       0       0       0       0       0       0       0
       0       0       0       0       0       0       0       0       0       0
       0       0       0       0       0       0       0       0       0       0
       0       0       0       0       0       0       0       0       0       0
       0       0       0       0       0       0       0       0       0       0
       0       0       0       0       0       0       0       0       0       0
       0       0       0       0       0       0       0       0       0       0
       0       0       0       0       0       0       0       0       0       0
       0       0       0       0       0       0       0       0       0       0
       0       0       0       0       0       0       0       0       0       0
       0       0       0       0       0       0       0       0       0       0
       0       0       0       0       0       0       0       0       0       0
       0       0       0       0       0       0       0       0       0       0
       0       0       0       0       0       0       0       0       0       0
       0       0       0       0       0       0       0       0       0       0
       0       0       0       0       0       0       0       0       0       0
       0       0       0       0       0       0       0       0       0       0
       0       0       0       0       0       0       0       0       0       0
       0       0       0       0       0       0       0       0       0       0
       0       0       0       0       0       0       0       0       0       0
       0       0       0       0       0       0       0       0       0       0
       0       0       0       0       0       0       0       0       0       0
       0       0       0       0       0       0       0       0       0       0
       0       0       0       0       0       0       0       0       0       0
       0       0       0       0       0       0       0       0       0       0
       0       0       0       0       0       0       0       0       0       0
       0       0       0       0       0       0       0       0       0       0
       0       0       0       0       0       0       0       0       0       0
       0       0       0       0       0       0       0       0       0       0
       0       0       0       0       0       0       0       0       0       0
       0       0       0       0       0       0       0       0       0       0
       0       0       0       0       0       0       0       0       0       0
       0       0       0       0       0       0       0       0       0       0
       0       0       0       0       0       0       0       0       0       0
       0       0       0       0       0       0       0       0       0       0
       0       0       0       0       0       0       0       0       0       0
       0       0       0       0       0       0       0       0       0       0
       0       0       0       0       0       0       0       0       0       0
       0       0       0       0       0       0       0       0       0       0
       0       0       0       0       0       0       0       0       0       0
       0       0       0       0       0       0       0       0       0       0
       0       0       0       0       0       0       0       0       0       0
       0       0       0       0       0       0       0       0       0       0
       0       0       0       0       0       0       0       0       0       0
       0       0       0       0       0       0       0       0       0       0
       0       0       0       0       0       0       0       0       0       0
       0       0       0       0       0       0       0       0       0       0
       0       0       0       0       0       0       0       0       0       0
       0       0       0       0       0       0       0       0       0       0
       0       0       0       0       0       0       0       0       0       0
       0       0       0       0       0       0       0       0       0       0
       0       0       0       0       0       0       0       0       0       0
       0       0       0       0       0       0       0       0       0       0
       0       0       0       0       0       0       0       0       0       0
       0       0       0       0       0       0       0       0       0       0
       0       0       0       0       0       0       0       0       0       0
       0       0       0       0       0       0       0       0       0       0
       0       0       0       0       0       0       0       0       0       0
       0       0       0       0       0       0       0       0       0       0
       0       0       0       0       0       0       0       0       0       0
       0       0       0       0       0       0       0       0       0       0
       0       0       0       0       0       0       0       0       0       0
       0       0       0       0       0       0       0       0       0       0
       0       0       0       0       0       0       0       0       0       0
       0       0       0       0       0       0       0       0       0       0
       0       0       0       0       0       0       0       0       0       0
       0       0       0       0       0       0       0       0       0       0
       0       0       0       0       0       0       0       0       0       0
       0       0       0       0       0       0       0       0       0       0
       0       0       0       0       0       0       0       0       0       0
       0       0       0       0       0       0       0       0       0       0
       0       0       0       0       0       0       0       0       0       0
       0       0       0       0       0       0       0       0       0       0
       0       0       0       0       0       0       0       0       0       0
       0       0       0       0       0       0       0       0       0       0
       0       0       0       0       0       0       0       0       0       0
       0       0       0       0       0       0       0       0       0       0
       0       0       0       0       0       0       0       0       0       0
       0       0       0       0       0       0       0       0       0       0
       0       0       0       0       0       0       0       0       0       0
       0       0       0       0       0       0       0       0       0       0
       0       0       0       0       0       0       0       0       0       0
       0       0       0       0       0       0       0       0       0       0
       0       0       0       0       0       0       0       0       0       0
       0       0       0       0       0       0       0       0       0       0
       0       0       0       0       0       0       0       0       0       0
       0       0       0       0       0       0       0       0       0       0
       0       0       0       0       0       0       0       0       0       0
       0       0       0       0       0       0       0       0       0       0
       0       0       0       0       0       0       0       0       0       0
       0       0       0       0       0       0       0       0       0       0
       0       0       0       0       0       0       0       0       0       0
       0       0       0       0       0       0       0       0       0       0
       0       0       0       0       0       0       0       0       0       0
       0       0       0       0       0       0       0       0       0       0
       0       0       0       0       0       0       0       0       0       0
       0       0       0       0       0       0       0       0       0       0
       0       0       0       0       0       0       0       0       0       0
       0       0       0       0       0       0       0       0       0       0
       0       0       0       0       0       0       0       0       0       0
       0       0       0       0       0       0       0       0       0       0
       0       0       0       0       0       0       0       0       0       0
       0       0       0       0       0       0       0       0       0       0
       0       0       0       0       0       0       0       0       0       0
       0       0       0       0       0       0       0       0       0       0
       0       0       0       0       0       0       0       0       0       0
       0       0       0       0       0       0       0       0       0       0
       0       0       0       0       0       0       0       0       0       0
       0       0       0       0       0       0       0       0       0       0
       0       0       0       0       0       0       0       0       0       0
       0       0       0       0       0       0       0       0       0       0
       0       0       0       0       0       0       0       0       0       0
       0       0       0       0       0       0       0       0       0       0
       0       0       0       0       0       0       0       0       0       0
       0       0       0       0       0       0       0       0       0       0
       0       0       0       0       0       0       0       0       0       0
       0       0       0       0       0       0       0       0       0       0
       0       0       0       0       0       0       0       0       0       0
       0       0       0       0       0       0       0       0       0       0
       0       0       0       0       0       0       0       0       0       0
       0       0       0       0       0       0       0       0       0       0
       0       0       0       0       0       0       0       0       0       0
       0       0       0       0       0       0       0       0       0       0
       0       0       0       0       0       0       0       0       0       0
       0       0       0       0       0       0       0       0       0       0
       0       0       0       0       0       0       0       0       0       0
       0       0       0       0       0       0       0       0       0       0
       0       0       0       0       0       0       0       0       0       0
       0       0       0       0       0       0       0       0       0       0
       0       0       0       0       0       0       0       0       0       0
       0       0       0       0       0       0       0       0       0       0
       0       0       0       0       0       0       0       0       0       0
       0       0       0       0       0       0       0       0       0       0
       0       0       0       0       0       0       0       0       0       0
       0       0       0       0       0       0       0       0       0       0
       0       0       0       0       0       0       0       0       0       0
       0       0       0       0       0       0       0       0       0       0
       0       0       0       0       0       0       0       0       0       0
       0       0       0       0       0       0       0       0       0       0
       0       0       0       0       0       0       0       0       0       0
       0       0       0       0       0       0       0       0       0       0
       0       0       0       0       0       0       0       0       0       0
       0       0       0       0       0       0       0       0       0       0
       0       0       0       0       0       0       0       0       0       0
       0       0       0       0       0       0       0       0       0       0
       0       0       0       0       0       0       0       0       0       0
       0       0       0       0       0       0       0       0       0       0
       0       0       0       0       0       0       0       0       0       0
       0       0       0       0       0       0       0       0       0       0
       0       0       0       0       0       0       0       0       0       0
       0       0       0       0       0       0       0       0       0       0
       0       0       0       0       0       0       0       0       0       0
       0       0       0       0       0       0       0       0       0       0
       0       0       0       0       0       0       0       0       0       0
       0       0       0       0       0       0       0       0       0       0
       0       0       0       0       0       0       0       0       0       0
       0       0       0       0       0       0       0       0       0       0
       0       0       0       0       0       0       0       0       0       0
       0       0       0       0       0       0       0       0       0       0
       0       0       0       0       0       0       0       0       0       0
       0       0       0       0       0       0       0       0       0       0
       0       0       0       0       0       0       0       0       0       0
       0       0       0       0       0       0       0       0       0       0
       0       0       0       0       0       0       0       0       0       0
       0       0       0       0       0       0       0       0       0       0
       0       0       0       0       0       0       0       0       0       0
       0       0       0       0       0       0       0       0       0       0
       0       0       0       0       0       0       0       0       0       0
       0       0       0       0       0       0       0       0       0       0
       0       0       0       0       0       0       0       0       0       0
       0       0       0       0       0       0       0       0       0       0
       0       0       0       0       0       0       0       0       0       0
       0       0       0       0       0       0       0       0       0       0
       0       0       0       0       0       0       0       0       0       0
       0       0       0       0       0       0       0       0       0       0
       0       0       0       0       0       0       0       0       0       0
       0       0       0       0       0       0       0       0       0       0
       0       0       0       0       0       0       0       0       0       0
       0       0       0       0       0       0       0       0       0       0
       0       0       0       0       0       0       0       0       0       0
       0       0       0       0       0       0       0       0       0       0
       0       0       0       0       0       0       0       0       0       0
       0       0       0       0       0       0       0       0       0       0
       0       0       0       0       0       0       0       0       0       0
       0       0       0       0       0       0       0       0       0       0
       0       0       0       0       0       0       0       0       0       0
       0       0       0       0       0       0       0       0       0       0
       0       0       0       0       0       0       0       0       0       0
       0       0       0       0       0       0       0       0       0       0
       0       0       0       0       0       0       0       0       0       0
       0       0       0       0       0       0       0       0       0       0
       0       0       0       0       0       0       0       0       0       0
       0       0       0       0       0       0       0       0       0       0
       0       0       0       0       0       0       0       0       0       0
       0       0       0       0       0       0       0       0       0       0
       0       0       0       0       0       0       0       0       0       0
       0       0       0       0       0       0       0       0       0       0
       0       0       0       0       0       0       0       0       0       0
       0       0       0       0       0       0       0       0       0       0
       0       0       0       0       0       0       0       0       0       0
       0       0       0       0       0       0       0       0       0       0
       0       0       0       0       0       0       0       0       0       0
       0       0       0       0       0       0       0       0       0       0
       0       0       0       0       0       0       0       0       0       0
       0       0       0       0       0       0       0       0       0       0
       0       0       0       0       0       0       0       0       0       0
       0       0       0       0       0       0       0       0       0       0
       0       0       0       0       0       0       0       0       0       0
       0       0       0       0       0       0       0       0       0       0
       0       0       0       0       0       0       0       0       0       0
       0       0       0       0       0       0       0       0       0       0
       0       0       0       0       0       0       0       0       0       0
       0       0       0       0       0       0       0       0       0       0
       0       0       0       0       0       0       0       0       0       0
       0       0       0       0       0       0       0       0       0       0
       0       0       0       0       0       0       0       0       0       0
       0       0       0       0       0       0       0       0       0       0
       0       0       0       0       0       0       0       0       0       0
       0       0       0       0       0       0       0       0       0       0
       0       0       0       0       0       0       0       0       0       0
       0       0       0       0       0       0       0       0       0       0
       0       0       0       0       0       0       0       0       0       0
       0       0       0       0       0       0       0       0       0       0
       0       0       0       0       0       0       0       0       0       0
       0       0       0       0       0       0       0       0       0       0
       0       0       0       0       0       0       0       0       0       0
       0       0       0       0       0       0       0       0       0       0
       0       0       0       0       0       0       0       0       0       0
       0       0       0       0       0       0       0       0       0       0
       0       0       0       0       0       0       0       0       0       0
       0       0       0       0       0       0       0       0       0       0
       0       0       0       0       0       0       0       0       0       0
       0       0       0       0       0       0       0       0       0       0
       0       0       0       0       0       0       0       0       0       0
       0       0       0       0       0       0       0       0       0       0
       0       0       0       0       0       0       0       0       0       0
       0       0       0       0       0       0       0       0       0       0
       0       0       0       0       0       0       0       0       0       0
       0       0       0       0       0       0       0       0       0       0
       0       0       0       0       0       0       0       0       0       0
       0       0       0       0       0       0       0       0       0       0
       0       0       0       0       0       0       0       0       0       0
       0       0       0       0       0       0       0       0       0       0
       0       0       0       0       0       0       0       0       0       0
       0       0       0       0       0       0       0       0       0       0
       0       0       0       0       0       0       0       0       0       0
       0       0       0       0       0       0       0       0       0       0
       0       0       0       0       0       0       0       0       0       0
       0       0       0       0       0       0       0       0       0       0
       0       0       0       0       0       0       0       0       0       0
       0       0       0       0       0       0       0       0       0       0
       0       0       0       0       0       0       0       0       0       0
       0       0       0       0       0       0       0       0       0       0
       0       0       0       0       0       0       0       0       0       0
       0       0       0       0       0       0       0       0       0       0
       0       0       0       0       0       0       0       0       0       0
       0       0       0       0       0       0       0       0       0       0
       0       0       0       0       0       0       0       0       0       0
       0       0       0       0       0       0       0       0       0       0
       0       0       0       0       0       0       0       0       0       0
       0       0       0       0       0       0       0       0       0       0
       0       0       0       0       0       0       0       0       0       0
       0       0       0       0       0       0       0       0       0       0
       0       0       0       0       0       0       0       0       0       0
       0       0       0       0       0       0       0       0       0       0
       0       0       0       0       0       0       0       0       0       0
       0       0       0       0       0       0       0       0       0       0
       0       0       0       0       0       0       0       0       0       0
       0       0       0       0       0       0       0       0       0       0
       0       0       0       0       0       0       0       0       0       0
       0       0       0       0       0       0       0       0       0       0
       0       0       0       0       0       0       0       0       0       0
       0       0       0       0       0       0       0       0       0       0
       0       0       0       0       0       0       0       0       0       0
       0       0       0       0       0       0       0       0       0       0
       0       0       0       0       0       0       0       0       0       0
       0       0       0       0       0       0       0       0       0       0
       0       0       0       0       0       0       0       0       0       0
       0       0       0       0       0       0       0       0       0       0
       0       0       0       0       0       0       0       0       0       0
       0       0       0       0       0       0       0       0       0       0
       0       0       0       0       0       0       0       0       0       0
       0       0       0       0       0       0       0       0       0       0
       0       0       0       0       0       0       0       0       0       0
       0       0       0       0       0       0       0       0       0       0
       0       0       0       0       0       0       0       0       0       0
       0       0       0       0       0       0       0       0       0       0
       0       0       0       0       0       0       0       0       0       0
       0       0       0       0       0       0       0       0       0       0
       0       0       0       0       0       0       0       0       0       0
       0       0       0       0       0       0       0       0       0       0
       0       0       0       0       0       0       0       0       0       0
       0       0       0       0       0       0       0       0       0       0
       0       0       0       0       0       0       0       0       0       0
       0       0       0       0       0       0       0       0       0       0
       0       0       0       0       0       0       0       0       0       0
       0       0       0       0       0       0       0       0       0       0
       0       0       0       0       0       0       0       0       0       0
       0       0       0       0       0       0       0       0       0       0
       0       0       0       0       0       0       0       0       0       0
       0       0       0       0       0       0       0       0       0       0
       0       0       0       0       0       0       0       0       0       0
       0       0       0       0       0       0       0       0       0       0
       0       0       0       0       0       0       0       0       0       0
       0       0       0       0       0       0       0       0       0       0
       0       0       0       0       0       0       0       0       0       0
       0       0       0       0       0       0       0       0       0       0
       0       0       0       0       0       0       0       0       0       0
       0       0       0       0       0       0       0       0       0       0
       0       0       0       0       0       0       0       0       0       0
       0       0       0       0       0       0       0       0       0       0
       0       0       0       0       0       0       0       0       0       0
       0       0       0       0       0       0       0       0       0       0
       0       0       0       0       0       0       0       0       0       0
       0       0       0       0       0       0       0       0       0       0
       0       0       0       0       0       0       0       0       0       0
       0       0       0       0       0       0       0       0       0       0
       0       0       0       0       0       0       0       0       0       0
       0       0       0       0       0       0       0       0       0       0
       0       0       0       0       0       0       0       0       0       0
       0       0       0       0       0       0       0       0       0       0
       0       0       0       0       0       0       0       0       0       0
       0       0       0       0       0       0       0       0       0       0
       0       0       0       0       0       0       0       0       0       0
       0       0       0       0       0       0       0       0       0       0
       0       0       0       0       0       0       0       0       0       0
       0       0       0       0       0       0       0       0       0       0
       0       0       0       0       0       0       0       0       0       0
       0       0       0       0       0       0       0       0       0       0
       0       0       0       0       0       0       0       0       0       0
       0       0       0       0       0       0       0       0       0       0
       0       0       0       0       0       0       0       0       0       0
       0       0       0       0       0       0       0       0       0       0
       0       0       0       0       0       0       0       0       0       0
       0       0       0       0       0       0       0       0       0       0
       0       0       0       0       0       0       0       0       0       0
       0       0       0       0       0       0       0       0       0       0
       0       0       0       0       0       0       0       0       0       0
       0       0       0       0       0       0       0       0       0       0
       0       0       0       0       0       0       0       0       0       0
       0       0       0       0       0       0       0       0       0       0
       0       0       0       0       0       0       0       0       0       0
       0       0       0       0       0       0       0       0       0       0
       0       0       0       0       0       0       0       0       0       0
       0       0       0       0       0       0       0       0       0       0
       0       0       0       0       0       0       0       0       0       0
       0       0       0       0       0       0       0       0       0       0
       0       0       0       0       0       0       0       0       0       0
       0       0       0       0       0       0       0       0       0       0
       0       0       0       0       0       0       0       0       0       0
       0       0       0       0       0       0       0       0       0       0
       0       0       0       0       0       0       0       0       0       0
       0       0       0       0       0       0       0       0       0       0
       0       0       0       0       0       0       0       0       0       0
       0       0       0       0       0       0       0       0       0       0
       0       0       0       0       0       0       0       0       0       0
       0       0       0       0       0       0       0       0       0       0
       0       0       0       0       0       0       0       0       0       0
       0       0       0       0       0       0       0       0       0       0
       0       0       0       0       0       0       0       0       0       0
       0       0       0       0       0       0       0       0       0       0
       0       0       0       0       0       0       0       0       0       0
       0       0       0       0       0       0       0       0       0       0
       0       0       0       0       0       0       0       0       0       0
       0       0       0       0       0       0       0       0       0       0
       0       0       0       0       0       0       0       0       0       0
       0       0       0       0       0       0       0       0       0       0
       0       0       0       0       0       0       0       0       0       0
       0       0       0       0       0       0       0       0       0       0
       0       0       0       0       0       0       0       0       0       0
       0       0       0       0       0       0       0       0       0       0
       0       0       0       0       0       0       0       0       0       0
       0       0       0       0       0       0       0       0       0       0
       0       0       0       0       0       0       0       0       0       0
       0       0       0       0       0       0       0       0       0       0
       0       0       0       0       0       0       0       0       0       0
       0       0       0       0       0       0       0       0       0       0
       0       0       0       0       0       0       0       0       0       0
       0       0       0       0       0       0       0       0       0       0
       0       0       0       0       0       0       0       0       0       0
       0       0       0       0       0       0       0       0       0       0
       0       0       0       0       0       0       0       0       0       0
       0       0       0       0       0       0       0       0       0       0
       0       0       0       0       0       0       0       0       0       0
       0       0       0       0       0       0       0       0       0       0
       0       0       0       0       0       0       0       0       0       0
       0       0       0       0       0       0       0       0       0       0
       0       0       0       0       0       0       0       0       0       0
       0       0       0       0       0       0       0       0       0       0
       0       0       0       0       0       0       0       0       0       0
       0       0       0       0       0       0       0       0       0       0
       0       0       0       0       0       0       0       0       0       0
       0       0       0       0       0       0       0       0       0       0
       0       0       0       0       0       0       0       0       0       0
       0       0       0       0       0       0       0       0       0       0
       0       0       0       0       0       0       0       0       0       0
       0       0       0       0       0       0       0       0       0       0
       0       0       0       0       0       0       0       0       0       0
       0       0       0       0       0       0       0       0       0       0
       0       0       0       0       0       0       0       0       0       0
       0       0       0       0       0       0       0       0       0       0
       0       0       0       0       0       0       0       0       0       0
       0       0       0       0       0       0       0       0       0       0
       0       0       0       0       0       0       0       0       0       0
       0       0       0       0       0       0       0       0       0       0
       0       0       0       0       0       0       0       0       0       0
       0       0       0       0       0       0       0       0       0       0
       0       0       0       0       0       0       0       0       0       0
       0       0       0       0       0       0       0       0       0       0
       0       0       0       0       0       0       0       0       0       0
       0       0       0       0       0       0       0       0       0       0
       0       0       0       0       0       0       0       0       0       0
       0       0       0       0       0       0       0       0       0       0
       0       0       0       0       0       0       0       0       0       0
       0       0       0       0       0       0       0       0       0       0
       0       0       0       0       0       0       0       0       0       0
       0       0       0       0       0       0       0       0       0       0
       0       0       0       0       0       0       0       0       0       0
       0       0       0       0       0       0       0       0       0       0
       0       0       0       0       0       0       0       0       0       0
       0       0       0       0       0       0       0       0       0       0
       0       0       0       0       0       0       0       0       0       0
       0       0       0       0       0       0       0       0       0       0
       0       0       0       0       0       0       0       0       0       0
       0       0       0       0       0       0       0       0       0       0
       0       0       0       0       0       0       0       0       0       0
       0       0       0       0       0       0       0       0       0       0
       0       0       0       0       0       0       0       0       0       0
       0       0       0       0       0       0       0       0       0       0
       0       0       0       0       0       0       0       0       0       0
       0       0       0       0       0       0       0       0       0       0
       0       0       0       0       0       0       0       0       0       0
       0       0       0       0       0       0       0       0       0       0
       0       0       0       0       0       0       0       0       0       0
       0       0       0       0       0       0       0       0       0       0
       0       0       0       0       0       0       0       0       0       0
       0       0       0       0       0       0       0       0       0       0
       0       0       0       0       0       0       0       0       0       0
       0       0       0       0       0       0       0       0       0       0
       0       0       0       0       0       0       0       0       0       0
       0       0       0       0       0       0       0       0       0       0
       0       0       0       0       0       0       0       0       0       0
       0       0       0       0       0       0       0       0       0       0
       0       0       0       0       0       0       0       0       0       0
       0       0       0       0       0       0       0       0       0       0
       0       0       0       0       0       0       0       0       0       0
       0       0       0       0       0       0       0       0       0       0
       0       0       0       0       0       0       0       0       0       0
       0       0       0       0       0       0       0       0       0       0
       0       0       0       0       0       0       0       0       0       0
       0       0       0       0       0       0       0       0       0       0
       0       0       0       0       0       0       0       0       0       0
       0       0       0       0       0       0       0       0       0       0
       0       0       0       0       0       0       0       0       0       0
       0       0       0       0       0       0       0       0       0       0
       0       0       0       0       0       0       0       0       0       0
       0       0       0       0       0       0       0       0       0       0
       0       0       0       0       0       0       0       0       0       0
       0       0       0       0       0       0       0       0       0       0
       0       0       0       0       0       0       0       0       0       0
       0       0       0       0       0       0       0       0       0       0
       0       0       0       0       0       0       0       0       0       0
       0       0       0       0       0       0       0       0       0       0
       0       0       0       0       0       0       0       0       0       0
       0       0       0       0       0       0       0       0       0       0
       0       0       0       0       0       0       0       0       0       0
       0       0       0       0       0       0       0       0       0       0
       0       0       0       0       0       0       0       0       0       0
       0       0       0       0       0       0       0       0       0       0
       0       0       0       0       0       0       0       0       0       0
       0       0       0       0       0       0       0       0       0       0
       0       0       0       0       0       0       0       0       0       0
       0       0       0       0       0       0       0       0       0       0
       0       0       0       0       0       0       0       0       0       0
       0       0       0       0       0       0       0       0       0       0
       0       0       0       0       0       0       0       0       0       0
       0       0       0       0       0       0       0       0       0       0
       0       0       0       0       0       0       0       0       0       0
       0       0       0       0       0       0       0       0       0       0
       0       0       0       0       0       0       0       0       0       0
       0       0       0       0       0       0       0       0       0       0
       0       0       0       0       0       0       0       0       0       0
       0       0       0       0       0       0       0       0       0       0
       0       0       0       0       0       0       0       0       0       0
       0       0       0       0       0       0       0       0       0       0
       0       0       0       0       0       0       0       0       0       0
       0       0       0       0       0       0       0       0       0       0
       0       0       0       0       0       0       0       0       0       0
       0       0       0       0       0       0       0       0       0       0
       0       0       0       0       0       0       0       0       0       0
       0       0       0       0       0       0       0       0       0       0
       0       0       0       0       0       0       0       0       0       0
       0       0       0       0       0       0       0       0       0       0
       0       0       0       0       0       0       0       0       0       0
       0       0       0       0       0       0       0       0       0       0
       0       0       0       0       0       0       0       0       0       0
       0       0       0       0       0       0       0       0       0       0
       0       0       0       0       0       0       0       0       0       0
       0       0       0       0       0       0       0       0       0       0
       0       0       0       0       0       0       0       0       0       0
       0       0       0       0       0       0       0       0       0       0
       0       0       0       0       0       0       0       0       0       0
       0       0       0       0       0       0       0       0       0       0
       0       0       0       0       0       0       0       0       0       0
       0       0       0       0       0       0       0       0       0       0
       0       0       0       0       0       0       0       0       0       0
       0       0       0       0       0       0       0       0       0       0
       0       0       0       0       0       0       0       0       0       0
       0       0       0       0       0       0       0       0       0       0
       0       0       0       0       0       0       0       0       0       0
       0       0       0       0       0       0       0       0       0       0
       0       0       0       0       0       0       0       0       0       0
       0       0       0       0       0       0       0       0       0       0
       0       0       0       0       0       0       0       0       0       0
       0       0       0       0       0       0       0       0       0       0
       0       0       0       0       0       0       0       0       0       0
       0       0       0       0       0       0       0       0       0       0
       0       0       0       0       0       0       0       0       0       0
       0       0       0       0       0       0       0       0       0       0
       0       0       0       0       0       0       0       0       0       0
       0       0       0       0       0       0       0       0       0       0
       0       0       0       0       0       0       0       0       0       0
       0       0       0       0       0       0       0       0       0       0
       0       0       0       0       0       0       0       0       0       0
       0       0       0       0       0       0       0       0       0       0
       0       0       0       0       0       0       0       0       0       0
       0       0       0       0       0       0       0       0       0       0
       0       0       0       0       0       0       0       0       0       0
       0       0       0       0       0       0       0       0       0       0
       0       0       0       0       0       0       0       0       0       0
       0       0       0       0       0       0       0       0       0       0
       0       0       0       0       0       0       0       0       0       0
       0       0       0       0       0       0       0       0       0       0
       0       0       0       0       0       0       0       0       0       0
       0       0       0       0       0       0       0       0       0       0
       0       0       0       0       0       0       0       0       0       0
       0       0       0       0       0       0       0       0       0       0
       0       0       0       0       0       0       0       0       0       0
       0       0       0       0       0       0       0       0       0       0
       0       0       0       0       0       0       0       0       0       0
       0       0       0       0       0       0       0       0       0       0
       0       0       0       0       0       0       0       0       0       0
       0       0       0       0       0       0       0       0       0       0
       0       0       0       0       0       0       0       0       0       0
       0       0       0       0       0       0       0       0       0       0
       0       0       0       0       0       0       0       0       0       0
       0       0       0       0       0       0       0       0       0       0
       0       0       0       0       0       0       0       0       0       0
       0       0       0       0       0       0       0       0       0       0
       0       0       0       0       0       0       0       0       0       0
       0       0       0       0       0       0       0       0       0       0
       0       0       0       0       0       0       0       0       0       0
       0       0       0       0       0       0       0       0       0       0
       0       0       0       0       0       0       0       0       0       0
       0       0       0       0       0       0       0       0       0       0
       0       0       0       0       0       0       0       0       0       0
       0       0       0       0       0       0       0       0       0       0
       0       0       0       0       0       0       0       0       0       0
       0       0       0       0       0       0       0       0       0       0
       0       0       0       0       0       0       0       0       0       0
       0       0       0       0       0       0       0       0       0       0
       0       0       0       0       0       0       0       0       0       0
       0       0       0       0       0       0       0       0       0       0
       0       0       0       0       0       0       0       0       0       0
       0       0       0       0       0       0       0       0       0       0
       0       0       0       0       0       0       0       0       0       0
       0       0       0       0       0       0       0       0       0       0
       0       0       0       0       0       0       0       0       0       0
       0       0       0       0       0       0       0       0       0       0
       0       0       0       0       0       0       0       0       0       0
       0       0       0       0       0       0       0       0       0       0
       0       0       0       0       0       0       0       0       0       0
       0       0       0       0       0       0       0       0       0       0
       0       0       0       0       0       0       0       0       0       0
       0       0       0       0       0       0       0       0       0       0
       0       0       0       0       0       0       0       0       0       0
       0       0       0       0       0       0       0       0       0       0
       0       0       0       0       0       0       0       0       0       0
       0       0       0       0       0       0       0       0       0       0
       0       0       0       0       0       0       0       0       0       0
       0       0       0       0       0       0       0       0       0       0
       0       0       0       0       0       0       0       0       0       0
       0       0       0       0       0       0       0       0       0       0
       0       0       0       0       0       0       0       0       0       0
       0       0       0       0       0       0       0       0       0       0
       0       0       0       0       0       0       0       0       0       0
       0       0       0       0       0       0       0       0       0       0
       0       0       0       0       0       0       0       0       0       0
       0       0       0       0       0       0       0       0       0       0
       0       0       0       0       0       0       0       0       0       0
       0       0       0       0       0       0       0       0       0       0
       0       0       0       0       0       0       0       0       0       0
       0       0       0       0       0       0       0       0       0       0
       0       0       0       0       0       0       0       0       0       0
       0       0       0       0       0       0       0       0       0       0
       0       0       0       0       0       0       0       0       0       0
       0       0       0       0       0       0       0       0       0       0
       0       0       0       0       0       0       0       0       0       0
       0       0       0       0       0       0       0       0       0       0
       0       0       0       0       0       0       0       0       0       0
       0       0       0       0       0       0       0       0       0       0
       0       0       0       0       0       0       0       0       0       0
       0       0       0       0       0       0       0       0       0       0
       0       0       0       0       0       0       0       0       0       0
       0       0       0       0       0       0       0       0       0       0
       0       0       0       0       0       0       0       0       0       0
       0       0       0       0       0       0       0       0       0       0
       0       0       0       0       0       0       0       0       0       0
       0       0       0       0       0       0       0       0       0       0
       0       0       0       0       0       0       0       0       0       0
       0       0       0       0       0       0       0       0       0       0
       0       0       0       0       0       0       0       0       0       0
       0       0       0       0       0       0       0       0       0       0
       0       0       0       0       0       0       0       0       0       0
       0       0       0       0       0       0       0       0       0       0
       0       0       0       0       0       0       0       0       0       0
       0       0       0       0       0       0       0       0       0       0
       0       0       0       0       0       0       0       0       0       0
       0       0       0       0       0       0       0       0       0       0
       0       0       0       0       0       0       0       0       0       0
       0       0       0       0       0       0       0       0       0       0
       0       0       0       0       0       0       0       0       0       0
       0       0       0       0       0       0       0       0       0       0
       0       0       0       0       0       0       0       0       0       0
       0       0       0       0       0       0       0       0       0       0
       0       0       0       0       0       0       0       0       0       0
       0       0       0       0       0       0       0       0       0       0
       0       0       0       0       0       0       0       0       0       0
       0       0       0       0       0       0       0       0       0       0
       0       0       0       0       0       0       0       0       0       0
       0       0       0       0       0       0       0       0       0       0
       0       0       0       0       0       0       0       0       0       0
       0       0       0       0       0       0       0       0       0       0
       0       0       0       0       0       0       0       0       0       0
       0       0       0       0       0       0       0       0       0       0
       0       0       0       0       0       0       0       0       0       0
       0       0       0       0       0       0       0       0       0       0
       0       0       0       0       0       0       0       0       0       0
       0       0       0       0       0       0       0       0       0       0
       0       0       0       0       0       0       0       0       0       0
       0       0       0       0       0       0       0       0       0       0
       0       0       0       0       0       0       0       0       0       0
       0       0       0       0       0       0       0       0       0       0
       0       0       0       0       0       0       0       0       0       0
       0       0       0       0       0       0       0       0       0       0
       0       0       0       0       0       0       0       0       0       0
       0       0       0       0       0       0       0       0       0       0
       0       0       0       0       0       0       0       0       0       0
       0       0       0       0       0       0       0       0       0       0
       0       0       0       0       0       0       0       0       0       0
       0       0       0       0       0       0       0       0       0       0
       0       0       0       0       0       0       0       0       0       0
       0       0       0       0       0       0       0       0       0       0
       0       0       0       0       0       0       0       0       0       0
       0       0       0       0       0       0       0       0       0       0
       0       0       0       0       0       0       0       0       0       0
       0       0       0       0       0       0       0       0       0       0
       0       0       0       0       0       0       0       0       0       0
       0       0       0       0       0       0       0       0       0       0
       0       0       0       0       0       0       0       0       0       0
       0       0       0       0       0       0       0       0       0       0
       0       0       0       0       0       0       0       0       0       0
       0       0       0       0       0       0       0       0       0       0
       0       0       0       0       0       0       0       0       0       0
       0       0       0       0       0       0       0       0       0       0
       0       0       0       0       0       0       0       0       0       0
       0       0       0       0       0       0       0       0       0       0
       0       0       0       0       0       0       0       0       0       0
       0       0       0       0       0       0       0       0       0       0
       0       0       0       0       0       0       0       0       0       0
       0       0       0       0       0       0       0       0       0       0
       0       0       0       0       0       0       0       0       0       0
       0       0       0       0       0       0       0       0       0       0
       0       0       0       0       0       0       0       0       0       0
       0       0       0       0       0       0       0       0       0       0
       0       0       0       0       0       0       0       0       0       0
       0       0       0       0       0       0       0       0       0       0
       0       0       0       0       0       0       0       0       0       0
       0       0       0       0       0       0       0       0       0       0
       0       0       0       0       0       0       0       0       0       0
       0       0       0       0       0       0       0       0       0       0
       0       0       0       0       0       0       0       0       0       0
       0       0       0       0       0       0       0       0       0       0
       0       0       0       0       0       0       0       0       0       0
       0       0       0       0       0       0       0       0       0       0
       0       0       0       0       0       0       0       0       0       0
       0       0       0       0       0       0       0       0       0       0
       0       0       0       0       0       0       0       0       0       0
       0       0       0       0       0       0       0       0       0       0
       0       0       0       0       0       0       0       0       0       0
       0       0       0       0       0       0       0       0       0       0
       0       0       0       0       0       0       0       0       0       0
       0       0       0       0       0       0       0       0       0       0
       0       0       0       0       0       0       0       0       0       0
       0       0       0       0       0       0       0       0       0       0
       0       0       0       0       0       0       0       0       0       0
       0       0       0       0       0       0       0       0       0       0
       0       0       0       0       0       0       0       0       0       0
       0       0       0       0       0       0       0       0       0       0
       0       0       0       0       0       0       0       0       0       0
       0       0       0       0       0       0       0       0       0       0
       0       0       0       0       0       0       0       0       0       0
       0       0       0       0       0       0       0       0       0       0
       0       0       0       0       0       0       0       0       0       0
       0       0       0       0       0       0       0       0       0       0
       0       0       0       0       0       0       0       0       0       0
       0       0       0       0       0       0       0       0       0       0
       0       0       0       0       0       0       0       0       0       0
       0       0       0       0       0       0       0       0       0       0
       0       0       0       0       0       0       0       0       0       0
       0       0       0       0       0       0       0       0       0       0
       0       0       0       0       0       0       0       0       0       0
       0       0       0       0       0       0       0       0       0       0
       0       0       0       0       0       0       0       0       0       0
       0       0       0       0       0       0       0       0       0       0
       0       0       0       0       0       0       0       0       0       0
       0       0       0       0       0       0       0       0       0       0
       0       0       0       0       0       0       0       0       0       0
       0       0       0       0       0       0       0       0       0       0
       0       0       0       0       0       0       0       0       0       0
       0       0       0       0       0       0       0       0       0       0
       0       0       0       0       0       0       0       0       0       0
       0       0       0       0       0       0       0       0       0       0
       0       0       0       0       0       0       0       0       0       0
       0       0       0       0       0       0       0       0       0       0
       0       0       0       0       0       0       0       0       0       0
       0       0       0       0       0       0       0       0       0       0
       0       0       0       0       0       0       0       0       0       0
       0       0       0       0       0       0       0       0       0       0
       0       0       0       0       0       0       0       0       0       0
       0       0       0       0       0       0       0       0       0       0
       0       0       0       0       0       0       0       0       0       0
       0       0       0       0       0       0       0       0       0       0
       0       0       0       0       0       0       0       0       0       0
       0       0       0       0       0       0       0       0       0       0
       0       0       0       0       0       0       0       0       0       0
       0       0       0       0       0       0       0       0       0       0
       0       0       0       0       0       0       0       0       0       0
       0       0       0       0       0       0       0       0       0       0
       0       0       0       0       0       0       0       0       0       0
       0       0       0       0       0       0       0       0       0       0
       0       0       0       0       0       0       0       0       0       0
       0       0       0       0       0       0       0       0       0       0
       0       0       0       0       0       0       0       0       0       0
       0       0       0       0       0       0       0       0       0       0
       0       0       0       0       0       0       0       0       0       0
       0       0       0       0       0       0       0       0       0       0
       0       0       0       0       0       0       0       0       0       0
       0       0       0       0       0       0       0       0       0       0
       0       0       0       0       0       0       0       0       0       0
       0       0       0       0       0       0       0       0       0       0
       0       0       0       0       0       0       0       0       0       0
       0       0       0       0       0       0       0       0       0       0
       0       0       0       0       0       0       0       0       0       0
       0       0       0       0       0       0       0       0       0       0
       0       0       0       0       0       0       0       0       0       0
       0       0       0       0       0       0       0       0       0       0
       0       0       0       0       0       0       0       0       0       0
       0       0       0       0       0       0       0       0       0       0
       0       0       0       0       0       0       0       0       0       0
       0       0       0       0       0       0       0       0       0       0
       0       0       0       0       0       0       0       0       0       0
       0       0       0       0       0       0       0       0       0       0
       0       0       0       0       0       0       0       0       0       0
       0       0       0       0       0       0       0       0       0       0
       0       0       0       0       0       0       0       0       0       0
       0       0       0       0       0       0       0       0       0       0
       0       0       0       0       0       0       0       0       0       0
       0       0       0       0       0       0       0       0       0       0
       0       0       0       0       0       0       0       0       0       0
       0       0       0       0       0       0       0       0       0       0
       0       0       0       0       0       0       0       0       0       0
       0       0       0       0       0       0       0       0       0       0
       0       0       0       0       0       0       0       0       0       0
       0       0       0       0       0       0       0       0       0       0
       0       0       0       0       0       0       0       0       0       0
       0       0       0       0       0       0       0       0       0       0
       0       0       0       0       0       0       0       0       0       0
       0       0       0       0       0       0       0       0       0       0
       0       0       0       0       0       0       0       0       0       0
       0       0       0       0       0       0       0       0       0       0
       0       0       0       0       0       0       0       0       0       0
       0       0       0       0       0       0       0       0       0       0
       0       0       0       0       0       0       0       0       0       0
       0       0       0       0       0       0       0       0       0       0
       0       0       0       0       0       0       0       0       0       0
       0       0       0       0       0       0       0       0       0       0
       0       0       0       0       0       0       0       0       0       0
       0       0       0       0       0       0       0       0       0       0
       0       0       0       0       0       0       0       0       0       0
       0       0       0       0       0       0       0       0       0       0
       0       0       0       0       0       0       0       0       0       0
       0       0       0       0       0       0       0       0       0       0
       0       0       0       0       0       0       0       0       0       0
       0       0       0       0       0       0       0       0       0       0
       0       0       0       0       0       0       0       0       0       0
       0       0       0       0       0       0       0       0       0       0
       0       0       0       0       0       0       0       0       0       0
       0       0       0       0       0       0       0       0       0       0
       0       0       0       0       0       0       0       0       0       0
       0       0       0       0       0       0       0       0       0       0
       0       0       0       0       0       0       0       0       0       0
       0       0       0       0       0       0       0       0       0       0
       0       0       0       0       0       0       0       0       0       0
       0       0       0       0       0       0       0       0       0       0
       0       0       0       0       0       0       0       0       0       0
       0       0       0       0       0       0       0       0       0       0
       0       0       0       0       0       0       0       0       0       0
       0       0       0       0       0       0       0       0       0       0
       0       0       0       0       0       0       0       0       0       0
       0       0       0       0       0       0       0       0       0       0
       0       0       0       0       0       0       0       0       0       0
       0       0       0       0       0       0       0       0       0       0
       0       0       0       0       0       0       0       0       0       0
       0       0       0       0       0       0       0       0       0       0
       0       0       0       0       0       0       0       0       0       0
       0       0       0       0       0       0       0       0       0       0
       0       0       0       0       0       0       0       0       0       0
       0       0       0       0       0       0       0       0       0       0
       0       0       0       0       0       0       0       0       0       0
       0       0       0       0       0       0       0       0       0       0
       0       0       0       0       0       0       0       0       0       0
       0       0       0       0       0       0       0       0       0       0
       0       0       0       0       0       0       0       0       0       0
       0       0       0       0       0       0       0       0       0       0
       0       0       0       0       0       0       0       0       0       0
       0       0       0       0       0       0       0       0       0       0
       0       0       0       0       0       0       0       0       0       0
       0       0       0       0       0       0       0       0       0       0
       0       0       0       0       0       0       0       0       0       0
       0       0       0       0       0       0       0       0       0       0
       0       0       0       0       0       0       0       0       0       0
       0       0       0       0       0       0       0       0       0       0
       0       0       0       0       0       0       0       0       0       0
       0       0       0       0       0       0       0       0       0       0
       0       0       0       0       0       0       0       0       0       0
       0       0       0       0       0       0       0       0       0       0
       0       0       0       0       0       0       0       0       0       0
       0       0       0       0       0       0       0       0       0       0
       0       0       0       0       0       0       0       0       0       0
       0       0       0       0       0       0       0       0       0       0
       0       0       0       0       0       0       0       0       0       0
       0       0       0       0       0       0       0       0       0       0
       0       0       0       0       0       0       0       0       0       0
       0       0       0       0       0       0       0       0       0       0
       0       0       0       0       0       0       0       0       0       0
       0       0       0       0       0       0       0       0       0       0
       0       0       0       0       0       0       0       0       0       0
       0       0       0       0       0       0       0       0       0       0
       0       0       0       0       0       0       0       0       0       0
       0       0       0       0       0       0       0       0       0       0
       0       0       0       0       0       0       0       0       0       0
       0       0       0       0       0       0       0       0       0       0
       0       0       0       0       0       0       0       0       0       0
       0       0       0       0       0       0       0       0       0       0
       0       0       0       0       0       0       0       0       0       0
       0       0       0       0       0       0       0       0       0       0
       0       0       0       0       0       0       0       0       0       0
       0       0       0       0       0       0       0       0       0       0
       0       0       0       0       0       0       0       0       0       0
       0       0       0       0       0       0       0       0       0       0
       0       0       0       0       0       0       0       0       0       0
       0       0       0       0       0       0       0       0       0       0
       0       0       0       0       0       0       0       0       0       0
       0       0       0       0       0       0       0       0       0       0
       0       0       0       0       0       0       0       0       0       0
       0       0       0       0       0       0       0       0       0       0
       0       0       0       0       0       0       0       0       0       0
       0       0       0       0       0       0       0       0       0       0
       0       0       0       0       0       0       0       0       0       0
       0       0       0       0       0       0       0       0       0       0
       0       0       0       0       0       0       0       0       0       0
       0       0       0       0       0       0       0       0       0       0
       0       0       0       0       0       0       0       0       0       0
       0       0       0       0       0       0       0       0       0       0
       0       0       0       0       0       0       0       0       0       0
       0       0       0       0       0       0       0       0       0       0
       0       0       0       0       0       0       0       0       0       0
       0       0       0       0       0       0       0       0       0       0
       0       0       0       0       0       0       0       0       0       0
       0       0       0       0       0       0       0       0       0       0
       0       0       0       0       0       0       0       0       0       0
       0       0       0       0       0       0       0       0       0       0
       0       0       0       0       0       0       0       0       0       0
       0       0       0       0       0       0       0       0       0       0
       0       0       0       0       0       0       0       0       0       0
       0       0       0       0       0       0       0       0       0       0
       0       0       0       0       0       0       0       0       0       0
       0       0       0       0       0       0       0       0       0       0
       0       0       0       0       0       0       0       0       0       0
       0       0       0       0       0       0       0       0       0       0
       0       0       0       0       0       0       0       0       0       0
       0       0       0       0       0       0       0       0       0       0
       0       0       0       0       0       0       0       0       0       0
       0       0       0       0       0       0       0       0       0       0
       0       0       0       0       0       0       0       0       0       0
       0       0       0       0       0       0       0       0       0       0
       0       0       0       0       0       0       0       0       0       0
       0       0       0       0       0       0       0       0       0       0
       0       0       0       0       0       0       0       0       0       0
       0       0       0       0       0       0       0       0       0       0
       0       0       0       0       0       0       0       0       0       0
       0       0       0       0       0       0       0       0       0       0
       0       0       0       0       0       0       0       0       0       0
       0       0       0       0       0       0       0       0       0       0
       0       0       0       0       0       0       0       0       0       0
       0       0       0       0       0       0       0       0       0       0
       0       0       0       0       0       0       0       0       0       0
       0       0       0       0       0       0       0       0       0       0
       0       0       0       0       0       0       0       0       0       0
       0       0       0       0       0       0       0       0       0       0
       0       0       0       0       0       0       0       0       0       0
       0       0       0       0       0       0       0       0       0       0
       0       0       0       0       0       0       0       0       0       0
       0       0       0       0       0       0       0       0       0       0
       0       0       0       0       0       0       0       0       0       0
       0       0       0       0       0       0       0       0       0       0
       0       0       0       0       0       0       0       0       0       0
       0       0       0       0       0       0       0       0       0       0
       0       0       0       0       0       0       0       0       0       0
       0       0       0       0       0       0       0       0       0       0
       0       0       0       0       0       0       0       0       0       0
       0       0       0       0       0       0       0       0       0       0
       0       0       0       0       0       0       0       0       0       0
       0       0       0       0       0       0       0       0       0       0
       0       0       0       0       0       0       0       0       0       0
       0       0       0       0       0       0       0       0       0       0
       0       0       0       0       0       0       0       0       0       0
       0       0       0       0       0       0       0       0       0       0
       0       0       0       0       0       0       0       0       0       0
       0       0       0       0       0       0       0       0       0       0
       0       0       0       0       0       0       0       0       0       0
       0       0       0       0       0       0       0       0       0       0
       0       0       0       0       0       0       0       0       0       0
       0       0       0       0       0       0       0       0       0       0
       0       0       0       0       0       0       0       0       0       0
       0       0       0       0       0       0       0       0       0       0
       0       0       0       0       0       0       0       0       0       0
       0       0       0       0       0       0       0       0       0       0
       0       0       0       0       0       0       0       0       0       0
       0       0       0       0       0       0       0       0       0       0
       0       0       0       0       0       0       0       0       0       0
       0       0       0       0       0       0       0       0       0       0
       0       0       0       0       0       0       0       0       0       0
       0       0       0       0       0       0       0       0       0       0
       0       0       0       0       0       0       0       0       0       0
       0       0       0       0       0       0       0       0       0       0
       0       0       0       0       0       0       0       0       0       0
       0       0       0       0       0       0       0       0       0       0
       0       0       0       0       0       0       0       0       0       0
       0       0       0       0       0       0       0       0       0       0
       0       0       0       0       0       0       0       0       0       0
       0       0       0       0       0       0       0       0       0       0
       0       0       0       0       0       0       0       0       0       0
       0       0       0       0       0       0       0       0       0       0
       0       0       0       0       0       0       0       0       0       0
       0       0       0       0       0       0       0       0       0       0
       0       0       0       0       0       0       0       0       0       0
       0       0       0       0       0       0       0       0       0       0
       0       0       0       0       0       0       0       0       0       0
       0       0       0       0       0       0       0       0       0       0
       0       0       0       0       0       0       0       0       0       0
       0       0       0       0       0       0       0       0       0       0
       0       0       0       0       0       0       0       0       0       0
       0       0       0       0       0       0       0       0       0       0
       0       0       0       0       0       0       0       0       0       0
       0       0       0       0       0       0       0       0       0       0
       0       0       0       0       0       0       0       0       0       0
       0       0       0       0       0       0       0       0       0       0
       0       0       0       0       0       0       0       0       0       0
       0       0       0       0       0       0       0       0       0       0
       0       0       0       0       0       0       0       0       0       0
       0       0       0       0       0       0       0       0       0       0
       0       0       0       0       0       0       0       0       0       0
       0       0       0       0       0       0       0       0       0       0
       0       0       0       0       0       0       0       0       0       0
       0       0       0       0       0       0       0       0       0       0
       0       0       0       0       0       0       0       0       0       0
       0       0       0       0       0       0       0       0       0       0
       0       0       0       0       0       0       0       0       0       0
       0       0       0       0       0       0       0       0       0       0
       0       0       0       0       0       0       0       0       0       0
       0       0       0       0       0       0       0       0       0       0
       0       0       0       0       0       0       0       0       0       0
       0       0       0       0       0       0       0       0       0       0
       0       0       0       0       0       0       0       0       0       0
       0       0       0       0       0       0       0       0       0       0
       0       0       0       0       0       0       0       0       0       0
       0       0       0       0       0       0       0       0       0       0
       0       0       0       0       0       0       0       0       0       0
       0       0       0       0       0       0       0       0       0       0
       0       0       0       0       0       0       0       0       0       0
       0       0       0       0       0       0       0       0       0       0
       0       0       0       0       0       0       0       0       0       0
       0       0       0       0       0       0       0       0       0       0
       0       0       0       0       0       0       0       0       0       0
       0       0       0       0       0       0       0       0       0       0
       0       0       0       0       0       0       0       0       0       0
       0       0       0       0       0       0       0       0       0       0
       0       0       0       0       0       0       0       0       0       0
       0       0       0       0       0       0       0       0       0       0
       0       0       0       0       0       0       0       0       0       0
       0       0       0       0       0       0       0       0       0       0
       0       0       0       0       0       0       0       0       0       0
       0       0       0       0       0       0       0       0       0       0
       0       0       0       0       0       0       0       0       0       0
       0       0       0       0       0       0       0       0       0       0
       0       0       0       0       0       0       0       0       0       0
       0       0       0       0       0       0       0       0       0       0
       0       0       0       0       0       0       0       0       0       0
       0       0       0       0       0       0       0       0       0       0
       0       0       0       0       0       0       0       0       0       0
       0       0       0       0       0       0       0       0       0       0
       0       0       0       0       0       0       0       0       0       0
       0       0       0       0       0       0       0       0       0       0
       0       0       0       0       0       0       0       0       0       0
       0       0       0       0       0       0       0       0       0       0
       0       0       0       0       0       0       0       0       0       0
       0       0       0       0       0       0       0       0       0       0
       0       0       0       0       0       0       0       0       0       0
       0       0       0       0       0       0       0       0       0       0
       0       0       0       0       0       0       0       0       0       0
       0       0       0       0       0       0       0       0       0       0
       0       0       0       0       0       0       0       0       0       0
       0       0       0       0       0       0       0       0       0       0
       0       0       0       0       0       0       0       0       0       0
       0       0       0       0       0       0       0       0       0       0
       0       0       0       0       0       0       0       0       0       0
       0       0       0       0       0       0       0       0       0       0
       0       0       0       0       0       0       0       0       0       0
       0       0       0       0       0       0       0       0       0       0
       0       0       0       0       0       0       0       0       0       0
       0       0       0       0       0       0       0       0       0       0
       0       0       0       0       0       0       0       0       0       0
       0       0       0       0       0       0       0       0       0       0
       0       0       0       0       0       0       0       0       0       0
       0       0       0       0       0       0       0       0       0       0
       0       0       0       0       0       0       0       0       0       0
       0       0       0       0       0       0       0       0       0       0
       0       0       0       0       0       0       0       0       0       0
       0       0       0       0       0       0       0       0       0       0
       0       0       0       0       0       0       0       0       0       0
       0       0       0       0       0       0       0       0       0       0
       0       0       0       0       0       0       0       0       0       0
       0       0       0       0       0       0       0       0       0       0
       0       0       0       0       0       0       0       0       0       0
       0       0       0       0       0       0       0       0       0       0
       0       0       0       0       0       0       0       0       0       0
       0       0       0       0       0       0       0       0       0       0
       0       0       0       0       0       0       0       0       0       0
       0       0       0       0       0       0       0       0       0       0
       0       0       0       0       0       0       0       0       0       0
       0       0       0       0       0       0       0       0       0       0
       0       0       0       0       0       0       0       0       0       0
       0       0       0       0       0       0       0       0       0       0
       0       0       0       0       0       0       0       0       0       0
       0       0       0       0       0       0       0       0       0       0
       0       0       0       0       0       0       0       0       0       0
       0       0       0       0       0       0       0       0       0       0
       0       0       0       0       0       0       0       0       0       0
       0       0       0       0       0       0       0       0       0       0
       0       0       0       0       0       0       0       0       0       0
       0       0       0       0       0       0       0       0       0       0
       0       0       0       0       0       0       0       0       0       0
       0       0       0       0       0       0       0       0       0       0
       0       0       0       0       0       0       0       0       0       0
       0       0       0       0       0       0       0       0       0       0
       0       0       0       0       0       0       0       0       0       0
       0       0       0       0       0       0       0       0       0       0
       0       0       0       0       0       0       0       0       0       0
       0       0       0       0       0       0       0       0       0       0
       0       0       0       0       0       0       0       0       0       0
       0       0       0       0       0       0       0       0       0       0
       0       0       0       0       0       0       0       0       0       0
       0       0       0       0       0       0       0       0       0       0
       0       0       0       0       0       0       0       0       0       0
       0       0       0       0       0       0       0       0       0       0
       0       0       0       0       0       0       0       0       0       0
       0       0       0       0       0       0       0       0       0       0
       0       0       0       0       0       0       0       0       0       0
       0       0       0       0       0       0       0       0       0       0
       0       0       0       0       0       0       0       0       0       0
       0       0       0       0       0       0       0       0       0       0
       0       0       0       0       0       0       0       0       0       0
       0       0       0       0       0       0       0       0       0       0
       0       0       0       0       0       0       0       0       0       0
       0       0       0       0       0       0       0       0       0       0
       0       0       0       0       0       0       0       0       0       0
       0       0       0       0       0       0       0       0       0       0
       0       0       0       0       0       0       0       0       0       0
       0       0       0       0       0       0       0       0       0       0
       0       0       0       0       0       0       0       0       0       0
       0       0       0       0       0       0       0       0       0       0
       0       0       0       0       0       0       0       0       0       0
       0       0       0       0       0       0       0       0       0       0
       0       0       0       0       0       0       0       0       0       0
       0       0       0       0       0       0       0       0       0       0
       0       0       0       0       0       0       0       0       0       0
       0       0       0       0       0       0       0       0       0       0
       0       0       0       0       0       0       0       0       0       0
       0       0       0       0       0       0       0       0       0       0
       0       0       0       0       0       0       0       0       0       0
       0       0       0       0       0       0       0       0       0       0
       0       0       0       0       0       0       0       0       0       0
       0       0       0       0       0       0       0       0       0       0
       0       0       0       0       0       0       0       0       0       0
       0       0       0       0       0       0       0       0       0       0
       0       0       0       0       0       0       0       0       0       0
       0       0       0       0       0       0       0       0       0       0
       0       0       0       0       0       0       0       0       0       0
       0       0       0       0       0       0       0       0       0       0
       0       0       0       0       0       0       0       0       0       0
       0       0       0       0       0       0       0       0       0       0
       0       0       0       0       0       0       0       0       0       0
       0       0       0       0       0       0       0       0       0       0
       0       0       0       0       0       0       0       0       0       0
       0       0       0       0       0       0       0       0       0       0
       0       0       0       0       0       0       0       0       0       0
       0       0       0       0       0       0       0       0       0       0
       0       0       0       0       0       0       0       0       0       0
       0       0       0       0       0       0       0       0       0       0
       0       0       0       0       0       0       0       0       0       0
       0       0       0       0       0       0       0       0       0       0
       0       0       0       0       0       0       0       0       0       0
       0       0       0       0       0       0       0       0       0       0
       0       0       0       0       0       0       0       0       0       0
       0       0       0       0       0       0       0       0       0       0
       0       0       0       0       0       0       0       0       0       0
       0       0       0       0       0       0       0       0       0       0
       0       0       0       0       0       0       0       0       0       0
       0       0       0       0       0       0       0       0       0       0
       0       0       0       0       0       0       0       0       0       0
       0       0       0       0       0       0       0       0       0       0
       0       0       0       0       0       0       0       0       0       0
       0       0       0       0       0       0       0       0       0       0
       0       0       0       0       0       0       0       0       0       0
       0       0       0       0       0       0       0       0       0       0
       0       0       0       0       0       0       0       0       0       0
       0       0       0       0       0       0       0       0       0       0
       0       0       0       0       0       0       0       0       0       0
       0       0       0       0       0       0       0       0       0       0
       0       0       0       0       0       0       0       0       0       0
       0       0       0       0       0       0       0       0       0       0
       0       0       0       0       0       0       0       0       0       0
       0       0       0       0       0       0       0       0       0       0
       0       0       0       0       0       0       0       0       0       0
       0       0       0       0       0       0       0       0       0       0
       0       0       0       0       0       0       0       0       0       0
       0       0       0       0       0       0       0       0       0       0
       0       0       0       0       0       0       0       0       0       0
       0       0       0       0       0       0       0       0       0       0
       0       0       0       0       0       0       0       0       0       0
       0       0       0       0       0       0       0       0       0       0
       0       0       0       0       0       0       0       0       0       0
       0       0       0       0       0       0       0       0       0       0
       0       0       0       0       0       0       0       0       0       0
       0       0       0       0       0       0       0       0       0       0
       0       0       0       0       0       0       0       0       0       0
       0       0       0       0       0       0       0       0       0       0
       0       0       0       0       0       0       0       0       0       0
       0       0       0       0       0       0       0       0       0       0
       0       0       0       0       0       0       0       0       0       0
       0       0       0       0       0       0       0       0       0       0
       0       0       0       0       0       0       0       0       0       0
       0       0       0       0       0       0       0       0       0       0
       0       0       0       0       0       0       0       0       0       0
       0       0       0       0       0       0       0       0       0       0
       0       0       0       0       0       0       0       0       0       0
       0       0       0       0       0       0       0       0       0       0
       0       0       0       0       0       0       0       0       0       0
       0       0       0       0       0       0       0       0       0       0
       0       0       0       0       0       0       0       0       0       0
       0       0       0       0       0       0       0       0       0       0
       0       0       0       0       0       0       0       0       0       0
       0       0       0       0       0       0       0       0       0       0
       0       0       0       0       0       0       0       0       0       0
       0       0       0       0       0       0       0       0       0       0
       0       0       0       0       0       0       0       0       0       0
       0       0       0       0       0       0       0       0       0       0
       0       0       0       0       0       0       0       0       0       0
       0       0       0       0       0       0       0       0       0       0
       0       0       0       0       0       0       0       0       0       0
       0       0       0       0       0       0       0       0       0       0
       0       0       0       0       0       0       0       0       0       0
       0       0       0       0       0       0       0       0       0       0
       0       0       0       0       0       0       0       0       0       0
       0       0       0       0       0       0       0       0       0       0
       0       0       0       0       0       0       0       0       0       0
       0       0       0       0       0       0       0       0       0       0
       0       0       0       0       0       0       0       0       0       0
       0       0       0       0       0       0       0       0       0       0
       0       0       0       0       0       0       0       0       0       0
       0       0       0       0       0       0       0       0       0       0
       0       0       0       0       0       0       0       0       0       0
       0       0       0       0       0       0       0       0       0       0
       0       0       0       0       0       0       0       0       0       0
       0       0       0       0       0       0       0       0       0       0
       0       0       0       0       0       0       0       0       0       0
       0       0       0       0       0       0       0       0       0       0
       0       0       0       0       0       0       0       0       0       0
       0       0       0       0       0       0       0       0       0       0
       0       0       0       0       0       0       0       0       0       0
       0       0       0       0       0       0       0       0       0       0
       0       0       0       0       0       0       0       0       0       0
       0       0       0       0       0       0       0       0       0       0
       0       0       0       0       0       0       0       0       0       0
       0       0       0       0       0       0       0       0       0       0
       0       0       0       0       0       0       0       0       0       0
       0       0       0       0       0       0       0       0       0       0
       0       0       0       0       0       0       0       0       0       0
       0       0       0       0       0       0       0       0       0       0
       0       0       0       0       0       0       0       0       0       0
       0       0       0       0       0       0       0       0       0       0
       0       0       0       0       0       0       0       0       0       0
       0       0       0       0       0       0       0       0       0       0
       0       0       0       0       0       0       0       0       0       0
       0       0       0       0       0       0       0       0       0       0
       0       0       0       0       0       0       0       0       0       0
       0       0       0       0       0       0       0       0       0       0
       0       0       0       0       0       0       0       0       0       0
       0       0       0       0       0       0       0       0       0       0
       0       0       0       0       0       0       0       0       0       0
       0       0       0       0       0       0       0       0       0       0
       0       0       0       0       0       0       0       0       0       0
       0       0       0       0       0       0       0       0       0       0
       0       0       0       0       0       0       0       0       0       0
       0       0       0       0       0       0       0       0       0       0
       0       0       0       0       0       0       0       0       0       0
       0       0       0       0       0       0       0       0       0       0
       0       0       0       0       0       0       0       0       0       0
       0       0       0       0       0       0       0       0       0       0
       0       0       0       0       0       0       0       0       0       0
       0       0       0       0       0       0       0       0       0       0
       0       0       0       0       0       0       0       0       0       0
       0       0       0       0       0       0       0       0       0       0
       0       0       0       0       0       0       0       0       0       0
       0       0       0       0       0       0       0       0       0       0
       0       0       0       0       0       0       0       0       0       0
       0       0       0       0       0       0       0       0       0       0
       0       0       0       0       0       0       0       0       0       0
       0       0       0       0       0       0       0       0       0       0
       0       0       0       0       0       0       0       0       0       0
       0       0       0       0       0       0       0       0       0       0
       0       0       0       0       0       0       0       0       0       0
       0       0       0       0       0       0       0       0       0       0
       0       0       0       0       0       0       0       0       0       0
       0       0       0       0       0       0       0       0       0       0
       0       0       0       0       0       0       0       0       0       0
       0       0       0       0       0       0       0       0       0       0
       0       0       0       0       0       0       0       0       0       0
       0       0       0       0       0       0       0       0       0       0
       0       0       0       0       0       0       0       0       0       0
       0       0       0       0       0       0       0       0       0       0
       0       0       0       0       0       0       0       0       0       0
       0       0       0       0       0       0       0       0       0       0
       0       0       0       0       0       0       0       0       0       0
       0       0       0       0       0       0       0       0       0       0
       0       0       0       0       0       0       0       0       0       0
       0       0       0       0       0       0       0       0       0       0
       0       0       0       0       0       0       0       0       0       0
       0       0       0       0       0       0       0       0       0       0
       0       0       0       0       0       0       0       0       0       0
       0       0       0       0       0       0       0       0       0       0
       0       0       0       0       0       0       0       0       0       0
       0       0       0       0       0       0       0       0       0       0
       0       0       0       0       0       0       0       0       0       0
       0       0       0       0       0       0       0       0       0       0
       0       0       0       0       0       0       0       0       0       0
       0       0       0       0       0       0       0       0       0       0
       0       0       0       0       0       0       0       0       0       0
       0       0       0       0       0       0       0       0       0       0
       0       0       0       0       0       0       0       0       0       0
       0       0       0       0       0       0       0       0       0       0
       0       0       0       0       0       0       0       0       0       0
       0       0       0       0       0       0       0       0       0       0
       0       0       0       0       0       0       0       0       0       0
       0       0       0       0       0       0       0       0       0       0
       0       0       0       0       0       0       0       0       0       0
       0       0       0       0       0       0       0       0       0       0
       0       0       0       0       0       0       0       0       0       0
       0       0       0       0       0       0       0       0       0       0
       0       0       0       0       0       0       0       0       0       0
       0       0       0       0       0       0       0       0       0       0
       0       0       0       0       0       0       0       0       0       0
       0       0       0       0       0       0       0       0       0       0
       0       0       0       0       0       0       0       0       0       0
       0       0       0       0       0       0       0       0       0       0
       0       0       0       0       0       0       0       0       0       0
       0       0       0       0       0       0       0       0       0       0
       0       0       0       0       0       0       0       0       0       0
       0       0       0       0       0       0       0       0       0       0
       0       0       0       0       0       0       0       0       0       0
       0       0       0       0       0       0       0       0       0       0
       0       0       0       0       0       0       0       0       0       0
       0       0       0       0       0       0       0       0       0       0
       0       0       0       0       0       0       0       0       0       0
       0       0       0       0       0       0       0       0       0       0
       0       0       0       0       0       0       0       0       0       0
       0       0       0       0       0       0       0       0       0       0
       0       0       0       0       0       0       0       0       0       0
       0       0       0       0       0       0       0       0       0       0
       0       0       0       0       0       0       0       0       0       0
       0       0       0       0       0       0       0       0       0       0
       0       0       0       0       0       0       0       0       0       0
       0       0       0       0       0       0       0       0       0       0
       0       0       0       0       0       0       0       0       0       0
       0       0       0       0       0       0       0       0       0       0
       0       0       0       0       0       0       0       0       0       0
       0       0       0       0       0       0       0       0       0       0
       0       0       0       0       0       0       0       0       0       0
       0       0       0       0       0       0       0       0       0       0
       0       0       0       0       0       0       0       0       0       0
       0       0       0       0       0       0       0       0       0       0
       0       0       0       0       0       0       0       0       0       0
       0       0       0       0       0       0       0       0       0       0
       0       0       0       0       0       0       0       0       0       0
       0       0       0       0       0       0       0       0       0       0
       0       0       0       0       0       0       0       0       0       0
       0       0       0       0       0       0       0       0       0       0
       0       0       0       0       0       0       0       0       0       0
       0       0       0       0       0       0       0       0       0       0
       0       0       0       0       0       0       0       0       0       0
       0       0       0       0       0       0       0       0       0       0
       0       0       0       0       0       0       0       0       0       0
       0       0       0       0       0       0       0       0       0       0
       0       0       0       0       0       0       0       0       0       0
       0       0       0       0       0       0       0       0       0       0
       0       0       0       0       0       0       0       0       0       0
       0       0       0       0       0       0       0       0       0       0
       0       0       0       0       0       0       0       0       0       0
       0       0       0       0       0       0       0       0       0       0
       0       0       0       0       0       0       0       0       0       0
       0       0       0       0       0       0       0       0       0       0
       0       0       0       0       0       0       0       0       0       0
       0       0       0       0       0       0       0       0       0       0
       0       0       0       0       0       0       0       0       0       0
       0       0       0       0       0       0       0       0       0       0
       0       0       0       0       0       0       0       0       0       0
       0       0       0       0       0       0       0       0       0       0
       0       0       0       0       0       0       0       0       0       0
       0       0       0       0       0       0       0       0       0       0
       0       0       0       0       0       0       0       0       0       0
       0       0       0       0       0       0       0       0       0       0
       0       0       0       0       0       0       0       0       0       0
       0       0       0       0       0       0       0       0       0       0
       0       0       0       0       0       0       0       0       0       0
       0       0       0       0       0       0       0       0       0       0
       0       0       0       0       0       0       0       0       0       0
       0       0       0       0       0       0       0       0       0       0
       0       0       0       0       0       0       0       0       0       0
       0       0       0       0       0       0       0       0       0       0
       0       0       0       0       0       0       0       0       0       0
       0       0       0       0       0       0       0       0       0       0
       0       0       0       0       0       0       0       0       0       0
       0       0       0       0       0       0       0       0       0       0
       0       0       0       0       0       0       0       0       0       0
       0       0       0       0       0       0       0       0       0       0
       0       0       0       0       0       0       0       0       0       0
       0       0       0       0       0       0       0       0       0       0
       0       0       0       0       0       0       0       0       0       0
       0       0       0       0       0       0       0       0       0       0
       0       0       0       0       0       0       0       0       0       0
       0       0       0       0       0       0       0       0       0       0
       0       0       0       0       0       0       0       0       0       0
       0       0       0       0       0       0       0       0       0       0
       0       0       0       0       0       0       0       0       0       0
       0       0       0       0       0       0       0       0       0       0
       0       0       0       0       0       0       0       0       0       0
       0       0       0       0       0       0       0       0       0       0
       0       0       0       0       0       0       0       0       0       0
       0       0       0       0       0       0       0       0       0       0
       0       0       0       0       0       0       0       0       0       0
       0       0       0       0       0       0       0       0       0       0
       0       0       0       0       0       0       0       0       0       0
       0       0       0       0       0       0       0       0       0       0
       0       0       0       0       0       0       0       0       0       0
       0       0       0       0       0       0       0       0       0       0
       0       0       0       0       0       0       0       0       0       0
       0       0       0       0       0       0       0       0       0       0
       0       0       0       0       0       0       0       0       0       0
       0       0       0       0       0       0       0       0       0       0
       0       0       0       0       0       0       0       0       0       0
       0       0       0       0       0       0       0       0       0       0
       0       0       0       0       0       0       0       0       0       0
       0       0       0       0       0       0       0       0       0       0
       0       0       0       0       0       0       0       0       0       0
       0       0       0       0       0       0       0       0       0       0
       0       0       0       0       0       0       0       0       0       0
       0       0       0       0       0       0       0       0       0       0
       0       0       0       0       0       0       0       0       0       0
       0       0       0       0       0       0       0       0       0       0
       0       0       0       0       0       0       0       0       0       0
       0       0       0       0       0       0       0       0       0       0
       0       0       0       0       0       0       0       0       0       0
       0       0       0       0       0       0       0       0       0       0
       0       0       0       0       0       0       0       0       0       0
       0       0       0       0       0       0       0       0       0       0
       0       0       0       0       0       0       0       0       0       0
       0       0       0       0       0       0       0       0       0       0
       0       0       0       0       0       0       0       0       0       0
       0       0       0       0       0       0       0       0       0       0
       0       0       0       0       0       0       0       0       0       0
       0       0       0       0       0       0       0       0       0       0
       0       0       0       0       0       0       0       0       0       0
       0       0       0       0       0       0       0       0       0       0
       0       0       0       0       0       0       0       0       0       0
       0       0       0       0       0       0       0       0       0       0
       0       0       0       0       0       0       0       0       0       0
       0       0       0       0       0       0       0       0       0       0
       0       0       0       0       0       0       0       0       0       0
       0       0       0       0       0       0       0       0       0       0
       0       0       0       0       0       0       0       0       0       0
       0       0       0       0       0       0       0       0       0       0
       0       0       0       0       0       0       0       0       0       0
       0       0       0       0       0       0       0       0       0       0
       0       0       0       0       0       0       0       0       0       0
       0       0       0       0       0       0       0       0       0       0
       0       0       0       0       0       0       0       0       0       0
       0       0       0       0       0       0       0       0       0       0
       0       0       0       0       0       0       0       0       0       0
       0       0       0       0       0       0       0       0       0       0
       0       0       0       0       0       0       0       0       0       0
       0       0       0       0       0       0       0       0       0       0
       0       0       0       0       0       0       0       0       0       0
       0       0       0       0       0       0       0       0       0       0
       0       0       0       0       0       0       0       0       0       0
       0       0       0       0       0       0       0       0       0       0
       0       0       0       0       0       0       0       0       0       0
       0       0       0       0       0       0       0       0       0       0
       0       0       0       0       0       0       0       0       0       0
       0       0       0       0       0       0       0       0       0       0
       0       0       0       0       0       0       0       0       0       0
       0       0       0       0       0       0       0       0       0       0
       0       0       0       0       0       0       0       0       0       0
       0       0       0       0       0       0       0       0       0       0
       0       0       0       0       0       0       0       0       0       0
       0       0       0       0       0       0       0       0       0       0
       0       0       0       0       0       0       0       0       0       0
       0       0       0       0       0       0       0       0       0       0
       0       0       0       0       0       0       0       0       0       0
       0       0       0       0       0       0       0       0       0       0
       0       0       0       0       0       0       0       0       0       0
       0       0       0       0       0       0       0       0       0       0
       0       0       0       0       0       0       0       0       0       0
       0       0       0       0       0       0       0       0       0       0
       0       0       0       0       0       0       0       0       0       0
       0       0       0       0       0       0       0       0       0       0
       0       0       0       0       0       0       0       0       0       0
       0       0       0       0       0       0       0       0       0       0
       0       0       0       0       0       0       0       0       0       0
       0       0       0       0       0       0       0       0       0       0
       0       0       0       0       0       0       0       0       0       0
       0       0       0       0       0       0       0       0       0       0
       0       0       0       0       0       0       0       0       0       0
       0       0       0       0       0       0       0       0       0       0
       0       0       0       0       0       0       0       0       0       0
       0       0       0       0       0       0       0       0       0       0
       0       0       0       0       0       0       0       0       0       0
       0       0       0       0       0       0       0       0       0       0
       0       0       0       0       0       0       0       0       0       0
       0       0       0       0       0       0       0       0       0       0
       0       0       0       0       0       0       0       0       0       0
       0       0       0       0       0       0       0       0       0       0
       0       0       0       0       0       0       0       0       0       0
       0       0       0       0       0       0       0       0       0       0
       0       0       0       0       0       0       0       0       0       0
       0       0       0       0       0       0       0       0       0       0
       0       0       0       0       0       0       0       0       0       0
       0       0       0       0       0       0       0       0       0       0
       0       0       0       0       0       0       0       0       0       0
       0       0       0       0       0       0       0       0       0       0
       0       0       0       0       0       0       0       0       0       0
       0       0       0       0       0       0       0       0       0       0
       0       0       0       0       0       0       0       0       0       0
       0       0       0       0       0       0       0       0       0       0
       0       0       0       0       0       0       0       0       0       0
       0       0       0       0       0       0       0       0       0       0
       0       0       0       0       0       0       0       0       0       0
       0       0       0       0       0       0       0       0       0       0
       0       0       0       0       0       0       0       0       0       0
       0       0       0       0       0       0       0       0       0       0
       0       0       0       0       0       0       0       0       0       0
       0       0       0       0       0       0       0       0       0       0
       0       0       0       0       0       0       0       0       0       0
       0       0       0       0       0       0       0       0       0       0
       0       0       0       0       0       0       0       0       0       0
       0       0       0       0       0       0       0       0       0       0
       0       0       0       0       0       0       0       0       0       0
       0       0       0       0       0       0       0       0       0       0
       0       0       0       0       0       0       0       0       0       0
       0       0       0       0       0       0       0       0       0       0
       0       0       0       0       0       0       0       0       0       0
       0       0       0       0       0       0       0       0       0       0
       0       0       0       0       0       0       0       0       0       0
       0       0       0       0       0       0       0       0       0       0
       0       0       0       0       0       0       0       0       0       0
       0       0       0       0       0       0       0       0       0       0
       0       0       0       0       0       0       0       0       0       0
       0       0       0       0       0       0       0       0       0       0
       0       0       0       0       0       0       0       0       0       0
       0       0       0       0       0       0       0       0       0       0
       0       0       0       0       0       0       0       0       0       0
       0       0       0       0       0       0       0       0       0       0
       0       0       0       0       0       0       0       0       0       0
       0       0       0       0       0       0       0       0       0       0
       0       0       0       0       0       0       0       0       0       0
       0       0       0       0       0       0       0       0       0       0
       0       0       0       0       0       0       0       0       0       0
       0       0       0       0       0       0       0       0       0       0
       0       0       0       0       0       0       0       0       0       0
       0       0       0       0       0       0       0       0       0       0
       0       0       0       0       0       0       0       0       0       0
       0       0       0       0       0       0       0       0       0       0
       0       0       0       0       0       0       0       0       0       0
       0       0       0       0       0       0       0       0       0       0
       0       0       0       0       0       0       0       0       0       0
       0       0       0       0       0       0       0       0       0       0
       0       0       0       0       0       0       0       0       0       0
       0       0       0       0       0       0       0       0       0       0
       0       0       0       0       0       0       0       0       0       0
       0       0       0       0       0       0       0       0       0       0
       0       0       0       0       0       0       0       0       0       0
       0       0       0       0       0       0       0       0       0       0
       0       0       0       0       0       0       0       0       0       0
       0       0       0       0       0       0       0       0       0       0
       0       0       0       0       0       0       0       0       0       0
       0       0       0       0       0       0       0       0       0       0
       0       0       0       0       0       0       0       0       0       0
       0       0       0       0       0       0       0       0       0       0
       0       0       0       0       0       0       0       0       0       0
       0       0       0       0       0       0       0       0       0       0
       0       0       0       0       0       0       0       0       0       0
       0       0       0       0       0       0       0       0       0       0
       0       0       0       0       0       0       0       0       0       0
       0       0       0       0       0       0       0       0       0       0
       0       0       0       0       0       0       0       0       0       0
       0       0       0       0       0       0       0       0       0       0
       0       0       0       0       0       0       0       0       0       0
       0       0       0       0       0       0       0       0       0       0
       0       0       0       0       0       0       0       0       0       0
       0       0       0       0       0       0       0       0       0       0
       0       0       0       0       0       0       0       0       0       0
       0       0       0       0       0       0       0       0       0       0
       0       0       0       0       0       0       0       0       0       0
       0       0       0       0       0       0       0       0       0       0
       0       0       0       0       0       0       0       0       0       0
       0       0       0       0       0       0       0       0       0       0
       0       0       0       0       0       0       0       0       0       0
       0       0       0       0       0       0       0       0       0       0
       0       0       0       0       0       0       0       0       0       0
       0       0       0       0       0       0       0       0       0       0
       0       0       0       0       0       0       0       0       0       0
       0       0       0       0       0       0       0       0       0       0
       0       0       0       0       0       0       0       0       0       0
       0       0       0       0       0       0       0       0       0       0
       0       0       0       0       0       0       0       0       0       0
       0       0       0       0       0       0       0       0       0       0
       0       0       0       0       0       0       0       0       0       0
       0       0       0       0       0       0       0       0       0       0
       0       0       0       0       0       0       0       0       0       0
       0       0       0       0       0       0       0       0       0       0
       0       0       0       0       0       0       0       0       0       0
       0       0       0       0       0       0       0       0       0       0
       0       0       0       0       0       0       0       0       0       0
       0       0       0       0       0       0       0       0       0       0
       0       0       0       0       0       0       0       0       0       0
       0       0       0       0       0       0       0       0       0       0
       0       0       0       0       0       0       0       0       0       0
       0       0       0       0       0       0       0       0       0       0
       0       0       0       0       0       0       0       0       0       0
       0       0       0       0       0       0       0       0       0       0
       0       0       0       0       0       0       0       0       0       0
       0       0       0       0       0       0       0       0       0       0
       0       0       0       0       0       0       0       0       0       0
       0       0       0       0       0       0       0       0       0       0
       0       0       0       0       0       0       0       0       0       0
       0       0       0       0       0       0       0       0       0       0
       0       0       0       0       0       0       0       0       0       0
       0       0       0       0       0       0       0       0       0       0
       0       0       0       0       0       0       0       0       0       0
       0       0       0       0       0       0       0       0       0       0
       0       0       0       0       0       0       0       0       0       0
       0       0       0       0       0       0       0       0       0       0
       0       0       0       0       0       0       0       0       0       0
       0       0       0       0       0       0       0       0       0       0
       0       0       0       0       0       0       0       0       0       0
       0       0       0       0       0       0       0       0       0       0
       0       0       0       0       0       0       0       0       0       0
       0       0       0       0       0       0       0       0       0       0
       0       0       0       0       0       0       0       0       0       0
       0       0       0       0       0       0       0       0       0       0
       0       0       0       0       0       0       0       0       0       0
       0       0       0       0       0       0       0       0       0       0
       0       0       0       0       0       0       0       0       0       0
       0       0       0       0       0       0       0       0       0       0
       0       0       0       0       0       0       0       0       0       0
       0       0       0       0       0       0       0       0       0       0
       0       0       0       0       0       0       0       0       0       0
       0       0       0       0       0       0       0       0       0       0
       0       0       0       0       0       0       0       0       0       0
       0       0       0       0       0       0       0       0       0       0
       0       0       0       0       0       0       0       0       0       0
       0       0       0       0       0       0       0       0       0       0
       0       0       0       0       0       0       0       0       0       0
       0       0       0       0       0       0       0       0       0       0
       0       0       0       0       0       0       0       0       0       0
       0       0       0       0       0       0       0       0       0       0
       0       0       0       0       0       0       0       0       0       0
       0       0       0       0       0       0       0       0       0       0
       0       0       0       0       0       0       0       0       0       0
       0       0       0       0       0       0       0       0       0       0
       0       0       0       0       0       0       0       0       0       0
       0       0       0       0       0       0       0       0       0       0
       0       0       0       0       0       0       0       0       0       0
       0       0       0       0       0       0       0       0       0       0
       0       0       0       0       0       0       0       0       0       0
       0       0       0       0       0       0       0       0       0       0
       0       0       0       0       0       0       0       0       0       0
       0       0       0       0       0       0       0       0       0       0
       0       0       0       0       0       0       0       0       0       0
       0       0       0       0       0       0       0       0       0       0
       0       0       0       0       0       0       0       0       0       0
       0       0       0       0       0       0       0       0       0       0
       0       0       0       0       0       0       0       0       0       0
       0       0       0       0       0       0       0       0       0       0
       0       0       0       0       0       0       0       0       0       0
       0       0       0       0       0       0       0       0       0       0
       0       0       0       0       0       0       0       0       0       0
       0       0       0       0       0       0       0       0       0       0
       0       0       0       0       0       0       0       0       0       0
       0       0       0       0       0       0       0       0       0       0
       0       0       0       0       0       0       0       0       0       0
       0       0       0       0       0       0       0       0       0       0
       0       0       0       0       0       0       0       0       0       0
       0       0       0       0       0       0       0       0       0       0
       0       0       0       0       0       0       0       0       0       0
       0       0       0       0       0       0       0       0       0       0
       0       0       0       0       0       0       0       0       0       0
       0       0       0       0       0       0       0       0       0       0
       0       0       0       0       0       0       0       0       0       0
       0       0       0       0       0       0       0       0       0       0
       0       0       0       0       0       0       0       0       0       0
       0       0       0       0       0       0       0       0       0       0
       0       0       0       0       0       0       0       0       0       0
       0       0       0       0       0       0       0       0       0       0
       0       0       0       0       0       0       0       0       0       0
       0       0       0       0       0       0       0       0       0       0
       0       0       0       0       0       0       0       0       0       0
       0       0       0       0       0       0       0       0       0       0
       0       0       0       0       0       0       0       0       0       0
       0       0       0       0       0       0       0       0       0       0
       0       0       0       0       0       0       0       0       0       0
       0       0       0       0       0       0       0       0       0       0
       0       0       0       0       0       0       0       0       0       0
       0       0       0       0       0       0       0       0       0       0
       0       0       0       0       0       0       0       0       0       0
       0       0       0       0       0       0       0       0       0       0
       0       0       0       0       0       0       0       0       0       0
       0       0       0       0       0       0       0       0       0       0
       0       0       0       0       0       0       0       0       0       0
       0       0       0       0       0       0       0       0       0       0
       0       0       0       0       0       0       0       0       0       0
       0       0       0       0       0       0       0       0       0       0
       0       0       0       0       0       0       0       0       0       0
       0       0       0       0       0       0       0       0       0       0
       0       0       0       0       0       0       0       0       0       0
       0       0       0       0       0       0       0       0       0       0
       0       0       0       0       0       0       0       0       0       0
       0       0       0       0       0       0       0       0       0       0
       0       0       0       0       0       0       0       0       0       0
       0       0       0       0       0       0       0       0       0       0
       0       0       0       0       0       0       0       0       0       0
       0       0       0       0       0       0       0       0       0       0
       0       0       0       0       0       0       0       0       0       0
       0       0       0       0       0       0       0       0       0       0
       0       0       0       0       0       0       0       0       0       0
       0       0       0       0       0       0       0       0       0       0
       0       0       0       0       0       0       0       0       0       0
       0       0       0       0       0       0       0       0       0       0
       0       0       0       0       0       0       0       0       0       0
       0       0       0       0       0       0       0       0       0       0
       0       0       0       0       0       0       0       0       0       0
       0       0       0       0       0       0       0       0       0       0
       0       0       0       0       0       0       0       0       0       0
       0       0       0       0       0       0       0       0       0       0
       0       0       0       0       0       0       0       0       0       0
       0       0       0       0       0       0       0       0       0       0
       0       0       0       0       0       0       0       0       0       0
       0       0       0       0       0       0       0       0       0       0
       0       0       0       0       0       0       0       0       0       0
       0       0       0       0       0       0       0       0       0       0
       0       0       0       0       0       0       0       0       0       0
       0       0       0       0       0       0       0       0       0       0
       0       0       0       0       0       0       0       0       0       0
       0       0       0       0       0       0       0       0       0       0
       0       0       0       0       0       0       0       0       0       0
       0       0       0       0       0       0       0       0       0       0
       0       0       0       0       0       0       0       0       0       0
       0       0       0       0       0       0       0       0       0       0
       0       0       0       0       0       0       0       0       0       0
       0       0       0       0       0       0       0       0       0       0
       0       0       0       0       0       0       0       0       0       0
       0       0       0       0       0       0       0       0       0       0
       0       0       0       0       0       0       0       0       0       0
       0       0       0       0       0       0       0       0       0       0
       0       0       0       0       0       0       0       0       0       0
       0       0       0       0       0       0       0       0       0       0
       0       0       0       0       0       0       0       0       0       0
       0       0       0       0       0       0       0       0       0       0
       0       0       0       0       0       0       0       0       0       0
       0       0       0       0       0       0       0       0       0       0
       0       0       0       0       0       0       0       0       0       0
       0       0       0       0       0       0       0       0       0       0
       0       0       0       0       0       0       0       0       0       0
       0       0       0       0       0       0       0       0       0       0
       0       0       0       0       0       0       0       0       0       0
       0       0       0       0       0       0       0       0       0       0
       0       0       0       0       0       0       0       0       0       0
       0       0       0       0       0       0       0       0       0       0
       0       0       0       0       0       0       0       0       0       0
       0       0       0       0       0       0       0       0       0       0
       0       0       0       0       0       0       0       0       0       0
       0       0       0       0       0       0       0       0       0       0
       0       0       0       0       0       0       0       0       0       0
       0       0       0       0       0       0       0       0       0       0
       0       0       0       0       0       0       0       0       0       0
       0       0       0       0       0       0       0       0       0       0
       0       0       0       0       0       0       0       0       0       0
       0       0       0       0       0       0       0       0       0       0
       0       0       0       0       0       0       0       0       0       0
       0       0       0       0       0       0       0       0       0       0
       0       0       0       0       0       0       0       0       0       0
       0       0       0       0       0       0       0       0       0       0
       0       0       0       0       0       0       0       0       0       0
       0       0       0       0       0       0       0       0       0       0
       0       0       0       0       0       0       0       0       0       0
       0       0       0       0       0       0       0       0       0       0
       0       0       0       0       0       0       0       0       0       0
       0       0       0       0       0       0       0       0       0       0
       0       0       0       0       0       0       0       0       0       0
       0       0       0       0       0       0       0       0       0       0
       0       0       0       0       0       0       0       0       0       0
       0       0       0       0       0       0       0       0       0       0
       0       0       0       0       0       0       0       0       0       0
       0       0       0       0       0       0       0       0       0       0
       0       0       0       0       0       0       0       0       0       0
       0       0       0       0       0       0       0       0       0       0
       0       0       0       0       0       0       0       0       0       0
       0       0       0       0       0       0       0       0       0       0
       0       0       0       0       0       0       0       0       0       0
       0       0       0       0       0       0       0       0       0       0
       0       0       0       0       0       0       0       0       0       0
       0       0       0       0       0       0       0       0       0       0
       0       0       0       0       0       0       0       0       0       0
       0       0       0       0       0       0       0       0       0       0
       0       0       0       0       0       0       0       0       0       0
       0       0       0       0       0       0       0       0       0       0
       0       0       0       0       0       0       0       0       0       0
       0       0       0       0       0       0       0       0       0       0
       0       0       0       0       0       0       0       0       0       0
       0       0       0       0       0       0       0       0       0       0
       0       0       0       0       0       0       0       0       0       0
       0       0       0       0       0       0       0       0       0       0
       0       0       0       0       0       0       0       0       0       0
       0       0       0       0       0       0       0       0       0       0
       0       0       0       0       0       0       0       0       0       0
       0       0       0       0       0       0       0       0       0       0
       0       0       0       0       0       0       0       0       0       0
       0       0       0       0       0       0       0       0       0       0
       0       0       0       0       0       0       0       0       0       0
       0       0       0       0       0       0       0       0       0       0
       0       0       0       0       0       0       0       0       0       0
       0       0       0       0       0       0       0       0       0       0
       0       0       0       0       0       0       0       0       0       0
       0       0       0       0       0       0       0       0       0       0
       0       0       0       0       0       0       0       0       0       0
       0       0       0       0       0       0       0       0       0       0
       0       0       0       0       0       0       0       0       0       0
       0       0       0       0       0       0       0       0       0       0
       0       0       0       0       0       0       0       0       0       0
       0       0       0       0       0       0       0       0       0       0
       0       0       0       0       0       0       0       0       0       0
       0       0       0       0       0       0       0       0       0       0
       0       0       0       0       0       0       0       0       0       0
       0       0       0       0       0       0       0       0       0       0
       0       0       0       0       0       0       0       0       0       0
       0       0       0       0       0       0       0       0       0       0
       0       0       0       0       0       0       0       0       0       0
       0       0       0       0       0       0       0       0       0       0
       0       0       0       0       0       0       0       0       0       0
       0       0       0       0       0       0       0       0       0       0
       0       0       0       0       0       0       0       0       0       0
       0       0       0       0       0       0       0       0       0       0
       0       0       0       0       0       0       0       0       0       0
       0       0       0       0       0       0       0       0       0       0
       0       0       0       0       0       0       0       0       0       0
       0       0       0       0       0       0       0       0       0       0
       0       0       0       0       0       0       0       0       0       0
       0       0       0       0       0       0       0       0       0       0
       0       0       0       0       0       0       0       0       0       0
       0       0       0       0       0       0       0       0       0       0
       0       0       0       0       0       0       0       0       0       0
       0       0       0       0       0       0       0       0       0       0
       0       0       0       0       0       0       0       0       0       0
       0       0       0       0       0       0       0       0       0       0
       0       0       0       0       0       0       0       0       0       0
       0       0       0       0       0       0       0       0       0       0
       0       0       0       0       0       0       0       0       0       0
       0       0       0       0       0       0       0       0       0       0
       0       0       0       0       0       0       0       0       0       0
       0       0       0       0       0       0       0       0       0       0
       0       0       0       0       0       0       0       0       0       0
       0       0       0       0       0       0       0       0       0       0
       0       0       0       0       0       0       0       0       0       0
       0       0       0       0       0       0       0       0       0       0
       0       0       0       0       0       0       0       0       0       0
       0       0       0       0       0       0       0       0       0       0
       0       0       0       0       0       0       0       0       0       0
       0       0       0       0       0       0       0       0       0       0
       0       0       0       0       0       0       0       0       0       0
       0       0       0       0       0       0       0       0       0       0
       0       0       0       0       0       0       0       0       0       0
       0       0       0       0       0       0       0       0       0       0
       0       0       0       0       0       0       0       0       0       0
       0       0       0       0       0       0       0       0       0       0
       0       0       0       0       0       0       0       0       0       0
       0       0       0       0       0       0       0       0       0       0
       0       0       0       0       0       0       0       0       0       0
       0       0       0       0       0       0       0       0       0       0
       0       0       0       0       0       0       0       0       0       0
       0       0       0       0       0       0       0       0       0       0
       0       0       0       0       0       0       0       0       0       0
       0       0       0       0       0       0       0       0       0       0
       0       0       0       0       0       0       0       0       0       0
       0       0       0       0       0       0       0       0       0       0
       0       0       0       0       0       0       0       0       0       0
       0       0       0       0       0       0       0       0       0       0
       0       0       0       0       0       0       0       0       0       0
       0       0       0       0       0       0       0       0       0       0
       0       0       0       0       0       0       0       0       0       0
       0       0       0       0       0       0       0       0       0       0
       0       0       0       0       0       0       0       0       0       0
       0       0       0       0       0       0       0       0       0       0
       0       0       0       0       0       0       0       0       0       0
       0       0       0       0       0       0       0       0       0       0
       0       0       0       0       0       0       0       0       0       0
       0       0       0       0       0       0       0       0       0       0
       0       0       0       0       0       0       0       0       0       0
       0       0       0       0       0       0       0       0       0       0
       0       0       0       0       0       0       0       0       0       0
       0       0       0       0       0       0       0       0       0       0
       0       0       0       0       0       0       0       0       0       0
       0       0       0       0       0       0       0       0       0       0
       0       0       0       0       0       0       0       0       0       0
       0       0       0       0       0       0       0       0       0       0
       0       0       0       0       0       0       0
%FLAG IROTAT                                                                    
%FORMAT(10I8)                                                                   
       0       0       0       0       0       0       0       0       0       0
       0       0       0       0       0       0       0       0       0       0
       0       0       0       0       0       0       0       0       0       0
       0       0       0       0       0       0       0       0       0       0
       0       0       0       0       0       0       0       0       0       0
       0       0       0       0       0       0       0       0       0       0
       0       0       0       0       0       0       0       0       0       0
       0       0       0       0       0       0       0       0       0       0
       0       0       0       0       0       0       0       0       0       0
       0       0       0       0       0       0       0       0       0       0
       0       0       0       0       0       0       0       0       0       0
       0       0       0       0       0       0       0       0       0       0
       0       0       0       0       0       0       0       0       0       0
       0       0       0       0       0       0       0       0       0       0
       0       0       0       0       0       0       0       0       0       0
       0       0       0       0       0       0       0       0       0       0
       0       0       0       0       0       0       0       0       0       0
       0       0       0       0       0       0       0       0       0       0
       0       0       0       0       0       0       0       0       0       0
       0       0       0       0       0       0       0       0       0       0
       0       0       0       0       0       0       0       0       0       0
       0       0       0       0       0       0       0       0       0       0
       0       0       0       0       0       0       0       0       0       0
       0       0       0       0       0       0       0       0       0       0
       0       0       0       0       0       0       0       0       0       0
       0       0       0       0       0       0       0       0       0       0
       0       0       0       0       0       0       0       0       0       0
       0       0       0       0       0       0       0       0       0       0
       0       0       0       0       0       0       0       0       0       0
       0       0       0       0       0       0       0       0       0       0
       0       0       0       0       0       0       0       0       0       0
       0       0       0       0       0       0       0       0       0       0
       0       0       0       0       0       0       0       0       0       0
       0       0       0       0       0       0       0       0       0       0
       0       0       0       0       0       0       0       0       0       0
       0       0       0       0       0       0       0       0       0       0
       0       0       0       0       0       0       0       0       0       0
       0       0       0       0       0       0       0       0       0       0
       0       0       0       0       0       0       0       0       0       0
       0       0       0       0       0       0       0       0       0       0
       0       0       0       0       0       0       0       0       0       0
       0       0       0       0       0       0       0       0       0       0
       0       0       0       0       0       0       0       0       0       0
       0       0       0       0       0       0       0       0       0       0
       0       0       0       0       0       0       0       0       0       0
       0       0       0       0       0       0       0       0       0       0
       0       0       0       0       0       0       0       0       0       0
       0       0       0       0       0       0       0       0       0       0
       0       0       0       0       0       0       0       0       0       0
       0       0       0       0       0       0       0       0       0       0
       0       0       0       0       0       0       0       0       0       0
       0       0       0       0       0       0       0       0       0       0
       0       0       0       0       0       0       0       0       0       0
       0       0       0       0       0       0       0       0       0       0
       0       0       0       0       0       0       0       0       0       0
       0       0       0       0       0       0       0       0       0       0
       0       0       0       0       0       0       0       0       0       0
       0       0       0       0       0       0       0       0       0       0
       0       0       0       0       0       0       0       0       0       0
       0       0       0       0       0       0       0       0       0       0
       0       0       0       0       0       0       0       0       0       0
       0       0       0       0       0       0       0       0       0       0
       0       0       0       0       0       0       0       0       0       0
       0       0       0       0       0       0       0       0       0       0
       0       0       0       0       0       0       0       0       0       0
       0       0       0       0       0       0       0       0       0       0
       0       0       0       0       0       0       0       0       0       0
       0       0       0       0       0       0       0       0       0       0
       0       0       0       0       0       0       0       0       0       0
       0       0       0       0       0       0       0       0       0       0
       0       0       0       0       0       0       0       0       0       0
       0       0       0       0       0       0       0       0       0       0
       0       0       0       0       0       0       0       0       0       0
       0       0       0       0       0       0       0       0       0       0
       0       0       0       0       0       0       0       0       0       0
       0       0       0       0       0       0       0       0       0       0
       0       0       0       0       0       0       0       0       0       0
       0       0       0       0       0       0       0       0       0       0
       0       0       0       0       0       0       0       0       0       0
       0       0       0       0       0       0       0       0       0       0
       0       0       0       0       0       0       0       0       0       0
       0       0       0       0       0       0       0       0       0       0
       0       0       0       0       0       0       0       0       0       0
       0       0       0       0       0       0       0       0       0       0
       0       0       0       0       0       0       0       0       0       0
       0       0       0       0       0       0       0       0       0       0
       0       0       0       0       0       0       0       0       0       0
       0       0       0       0       0       0       0       0       0       0
       0       0       0       0       0       0       0       0       0       0
       0       0       0       0       0       0       0       0       0       0
       0       0       0       0       0       0       0       0       0       0
       0       0       0       0       0       0       0       0       0       0
       0       0       0       0       0       0       0       0       0       0
       0       0       0       0       0       0       0       0       0       0
       0       0       0       0       0       0       0       0       0       0
       0       0       0       0       0       0       0       0       0       0
       0       0       0       0       0       0       0       0       0       0
       0       0       0       0       0       0       0       0       0       0
       0       0       0       0       0       0       0       0       0       0
       0       0       0       0       0       0       0       0       0       0
       0       0       0       0       0       0       0       0       0       0
       0       0       0       0       0       0       0       0       0       0
       0       0       0       0       0       0       0       0       0       0
       0       0       0       0       0       0       0       0       0       0
       0       0       0       0       0       0       0       0       0       0
       0       0       0       0       0       0       0       0       0       0
       0       0       0       0       0       0       0       0       0       0
       0       0       0       0       0       0       0       0       0       0
       0       0       0       0       0       0       0       0       0       0
       0       0       0       0       0       0       0       0       0       0
       0       0       0       0       0       0       0       0       0       0
       0       0       0       0       0       0       0       0       0       0
       0       0       0       0       0       0       0       0       0       0
       0       0       0       0       0       0       0       0       0       0
       0       0       0       0       0       0       0       0       0       0
       0       0       0       0       0       0       0       0       0       0
       0       0       0       0       0       0       0       0       0       0
       0       0       0       0       0       0       0       0       0       0
       0       0       0       0       0       0       0       0       0       0
       0       0       0       0       0       0       0       0       0       0
       0       0       0       0       0       0       0       0       0       0
       0       0       0       0       0       0       0       0       0       0
       0       0       0       0       0       0       0       0       0       0
       0       0       0       0       0       0       0       0       0       0
       0       0       0       0       0       0       0       0       0       0
       0       0       0       0       0       0       0       0       0       0
       0       0       0       0       0       0       0       0       0       0
       0       0       0       0       0       0       0       0       0       0
       0       0       0       0       0       0       0       0       0       0
       0       0       0       0       0       0       0       0       0       0
       0       0       0       0       0       0       0       0       0       0
       0       0       0       0       0       0       0       0       0       0
       0       0       0       0       0       0       0       0       0       0
       0       0       0       0       0       0       0       0       0       0
       0       0       0       0       0       0       0       0       0       0
       0       0       0       0       0       0       0       0       0       0
       0       0       0       0       0       0       0       0       0       0
       0       0       0       0       0       0       0       0       0       0
       0       0       0       0       0       0       0       0       0       0
       0       0       0       0       0       0       0       0       0       0
       0       0       0       0       0       0       0       0       0       0
       0       0       0       0       0       0       0       0       0       0
       0       0       0       0       0       0       0       0       0       0
       0       0       0       0       0       0       0       0       0       0
       0       0       0       0       0       0       0       0       0       0
       0       0       0       0       0       0       0       0       0       0
       0       0       0       0       0       0       0       0       0       0
       0       0       0       0       0       0       0       0       0       0
       0       0       0       0       0       0       0       0       0       0
       0       0       0       0       0       0       0       0       0       0
       0       0       0       0       0       0       0       0       0       0
       0       0       0       0       0       0       0       0       0       0
       0       0       0       0       0       0       0       0       0       0
       0       0       0       0       0       0       0       0       0       0
       0       0       0       0       0       0       0       0       0       0
       0       0       0       0       0       0       0       0       0       0
       0       0       0       0       0       0       0       0       0       0
       0       0       0       0       0       0       0       0       0       0
       0       0       0       0       0       0       0       0       0       0
       0       0       0       0       0       0       0       0       0       0
       0       0       0       0       0       0       0       0       0       0
       0       0       0       0       0       0       0       0       0       0
       0       0       0       0       0       0       0       0       0       0
       0       0       0       0       0       0       0       0       0       0
       0       0       0       0       0       0       0       0       0       0
       0       0       0       0       0       0       0       0       0       0
       0       0       0       0       0       0       0       0       0       0
       0       0       0       0       0       0       0       0       0       0
       0       0       0       0       0       0       0       0       0       0
       0       0       0       0       0       0       0       0       0       0
       0       0       0       0       0       0       0       0       0       0
       0       0       0       0       0       0       0       0       0       0
       0       0       0       0       0       0       0       0       0       0
       0       0       0       0       0       0       0       0       0       0
       0       0       0       0       0       0       0       0       0       0
       0       0       0       0       0       0       0       0       0       0
       0       0       0       0       0       0       0       0       0       0
       0       0       0       0       0       0       0       0       0       0
       0       0       0       0       0       0       0       0       0       0
       0       0       0       0       0       0       0       0       0       0
       0       0       0       0       0       0       0       0       0       0
       0       0       0       0       0       0       0       0       0       0
       0       0       0       0       0       0       0       0       0       0
       0       0       0       0       0       0       0       0       0       0
       0       0       0       0       0       0       0       0       0       0
       0       0       0       0       0       0       0       0       0       0
       0       0       0       0       0       0       0       0       0       0
       0       0       0       0       0       0       0       0       0       0
       0       0       0       0       0       0       0       0       0       0
       0       0       0       0       0       0       0       0       0       0
       0       0       0       0       0       0       0       0       0       0
       0       0       0       0       0       0       0       0       0       0
       0       0       0       0       0       0       0       0       0       0
       0       0       0       0       0       0       0       0       0       0
       0       0       0       0       0       0       0       0       0       0
       0       0       0       0       0       0       0       0       0       0
       0       0       0       0       0       0       0       0       0       0
       0       0       0       0       0       0       0       0       0       0
       0       0       0       0       0       0       0       0       0       0
       0       0       0       0       0       0       0       0       0       0
       0       0       0       0       0       0       0       0       0       0
       0       0       0       0       0       0       0       0       0       0
       0       0       0       0       0       0       0       0       0       0
       0       0       0       0       0       0       0       0       0       0
       0       0       0       0       0       0       0       0       0       0
       0       0       0       0       0       0       0       0       0       0
       0       0       0       0       0       0       0       0       0       0
       0       0       0       0       0       0       0       0       0       0
       0       0       0       0       0       0       0       0       0       0
       0       0       0       0       0       0       0       0       0       0
       0       0       0       0       0       0       0       0       0       0
       0       0       0       0       0       0       0       0       0       0
       0       0       0       0       0       0       0       0       0       0
       0       0       0       0       0       0       0       0       0       0
       0       0       0       0       0       0       0       0       0       0
       0       0       0       0       0       0       0       0       0       0
       0       0       0       0       0       0       0       0       0       0
       0       0       0       0       0       0       0       0       0       0
       0       0       0       0       0       0       0       0       0       0
       0       0       0       0       0       0       0       0       0       0
       0       0       0       0       0       0       0       0       0       0
       0       0       0       0       0       0       0       0       0       0
       0       0       0       0       0       0       0       0       0       0
       0       0       0       0       0       0       0       0       0       0
       0       0       0       0       0       0       0       0       0       0
       0       0       0       0       0       0       0       0       0       0
       0       0       0       0       0       0       0       0       0       0
       0       0       0       0       0       0       0       0       0       0
       0       0       0       0       0       0       0       0       0       0
       0       0       0       0       0       0       0       0       0       0
       0       0       0       0       0       0       0       0       0       0
       0       0       0       0       0       0       0       0       0       0
       0       0       0       0       0       0       0       0       0       0
       0       0       0       0       0       0       0       0       0       0
       0       0       0       0       0       0       0       0       0       0
       0       0       0       0       0       0       0       0       0       0
       0       0       0       0       0       0       0       0       0       0
       0       0       0       0       0       0       0       0       0       0
       0       0       0       0       0       0       0       0       0       0
       0       0       0       0       0       0       0       0       0       0
       0       0       0       0       0       0       0       0       0       0
       0       0       0       0       0       0       0       0       0       0
       0       0       0       0       0       0       0       0       0       0
       0       0       0       0       0       0       0       0       0       0
       0       0       0       0       0       0       0       0       0       0
       0       0       0       0       0       0       0       0       0       0
       0       0       0       0       0       0       0       0       0       0
       0       0       0       0       0       0       0       0       0       0
       0       0       0       0       0       0       0       0       0       0
       0       0       0       0       0       0       0       0       0       0
       0       0       0       0       0       0       0       0       0       0
       0       0       0       0       0       0       0       0       0       0
       0       0       0       0       0       0       0       0       0       0
       0       0       0       0       0       0       0       0       0       0
       0       0       0       0       0       0       0       0       0       0
       0       0       0       0       0       0       0       0       0       0
       0       0       0       0       0       0       0       0       0       0
       0       0       0       0       0       0       0       0       0       0
       0       0       0       0       0       0       0       0       0       0
       0       0       0       0       0       0       0       0       0       0
       0       0       0       0       0       0       0       0       0       0
       0       0       0       0       0       0       0       0       0       0
       0       0       0       0       0       0       0       0       0       0
       0       0       0       0       0       0       0       0       0       0
       0       0       0       0       0       0       0       0       0       0
       0       0       0       0       0       0       0       0       0       0
       0       0       0       0       0       0       0       0       0       0
       0       0       0       0       0       0       0       0       0       0
       0       0       0       0       0       0       0       0       0       0
       0       0       0       0       0       0       0       0       0       0
       0       0       0       0       0       0       0       0       0       0
       0       0       0       0       0       0       0       0       0       0
       0       0       0       0       0       0       0       0       0       0
       0       0       0       0       0       0       0       0       0       0
       0       0       0       0       0       0       0       0       0       0
       0       0       0       0       0       0       0       0       0       0
       0       0       0       0       0       0       0       0       0       0
       0       0       0       0       0       0       0       0       0       0
       0       0       0       0       0       0       0       0       0       0
       0       0       0       0       0       0       0       0       0       0
       0       0       0       0       0       0       0       0       0       0
       0       0       0       0       0       0       0       0       0       0
       0       0       0       0       0       0       0       0       0       0
       0       0       0       0       0       0       0       0       0       0
       0       0       0       0       0       0       0       0       0       0
       0       0       0       0       0       0       0       0       0       0
       0       0       0       0       0       0       0       0       0       0
       0       0       0       0       0       0       0       0       0       0
       0       0       0       0       0       0       0       0       0       0
       0       0       0       0       0       0       0       0       0       0
       0       0       0       0       0       0       0       0       0       0
       0       0       0       0       0       0       0       0       0       0
       0       0       0       0       0       0       0       0       0       0
       0       0       0       0       0       0       0       0       0       0
       0       0       0       0       0       0       0       0       0       0
       0       0       0       0       0       0       0       0       0       0
       0       0       0       0       0       0       0       0       0       0
       0       0       0       0       0       0       0       0       0       0
       0       0       0       0       0       0       0       0       0       0
       0       0       0       0       0       0       0       0       0       0
       0       0       0       0       0       0       0       0       0       0
       0       0       0       0       0       0       0       0       0       0
       0       0       0       0       0       0       0       0       0       0
       0       0       0       0       0       0       0       0       0       0
       0       0       0       0       0       0       0       0       0       0
       0       0       0       0       0       0       0       0       0       0
       0       0       0       0       0       0       0       0       0       0
       0       0       0       0       0       0       0       0       0       0
       0       0       0       0       0       0       0       0       0       0
       0       0       0       0       0       0       0       0       0       0
       0       0       0       0       0       0       0       0       0       0
       0       0       0       0       0       0       0       0       0       0
       0       0       0       0       0       0       0       0       0       0
       0       0       0       0       0       0       0       0       0       0
       0       0       0       0       0       0       0       0       0       0
       0       0       0       0       0       0       0       0       0       0
       0       0       0       0       0       0       0       0       0       0
       0       0       0       0       0       0       0       0       0       0
       0       0       0       0       0       0       0       0       0       0
       0       0       0       0       0       0       0       0       0       0
       0       0       0       0       0       0       0       0       0       0
       0       0       0       0       0       0       0       0       0       0
       0       0       0       0       0       0       0       0       0       0
       0       0       0       0       0       0       0       0       0       0
       0       0       0       0       0       0       0       0       0       0
       0       0       0       0       0       0       0       0       0       0
       0       0       0       0       0       0       0       0       0       0
       0       0       0       0       0       0       0       0       0       0
       0       0       0       0       0       0       0       0       0       0
       0       0       0       0       0       0       0       0       0       0
       0       0       0       0       0       0       0       0       0       0
       0       0       0       0       0       0       0       0       0       0
       0       0       0       0       0       0       0       0       0       0
       0       0       0       0       0       0       0       0       0       0
       0       0       0       0       0       0       0       0       0       0
       0       0       0       0       0       0       0       0       0       0
       0       0       0       0       0       0       0       0       0       0
       0       0       0       0       0       0       0       0       0       0
       0       0       0       0       0       0       0       0       0       0
       0       0       0       0       0       0       0       0       0       0
       0       0       0       0       0       0       0       0       0       0
       0       0       0       0       0       0       0       0       0       0
       0       0       0       0       0       0       0       0       0       0
       0       0       0       0       0       0       0       0       0       0
       0       0       0       0       0       0       0       0       0       0
       0       0       0       0       0       0       0       0       0       0
       0       0       0       0       0       0       0       0       0       0
       0       0       0       0       0       0       0       0       0       0
       0       0       0       0       0       0       0       0       0       0
       0       0       0       0       0       0       0       0       0       0
       0       0       0       0       0       0       0       0       0       0
       0       0       0       0       0       0       0       0       0       0
       0       0       0       0       0       0       0       0       0       0
       0       0       0       0       0       0       0       0       0       0
       0       0       0       0       0       0       0       0       0       0
       0       0       0       0       0       0       0       0       0       0
       0       0       0       0       0       0       0       0       0       0
       0       0       0       0       0       0       0       0       0       0
       0       0       0       0       0       0       0       0       0       0
       0       0       0       0       0       0       0       0       0       0
       0       0       0       0       0       0       0       0       0       0
       0       0       0       0       0       0       0       0       0       0
       0       0       0       0       0       0       0       0       0       0
       0       0       0       0       0       0       0       0       0       0
       0       0       0       0       0       0       0       0       0       0
       0       0       0       0       0       0       0       0       0       0
       0       0       0       0       0       0       0       0       0       0
       0       0       0       0       0       0       0       0       0       0
       0       0       0       0       0       0       0       0       0       0
       0       0       0       0       0       0       0       0       0       0
       0       0       0       0       0       0       0       0       0       0
       0       0       0       0       0       0       0       0       0       0
       0       0       0       0       0       0       0       0       0       0
       0       0       0       0       0       0       0       0       0       0
       0       0       0       0       0       0       0       0       0       0
       0       0       0       0       0       0       0       0       0       0
       0       0       0       0       0       0       0       0       0       0
       0       0       0       0       0       0       0       0       0       0
       0       0       0       0       0       0       0       0       0       0
       0       0       0       0       0       0       0       0       0       0
       0       0       0       0       0       0       0       0       0       0
       0       0       0       0       0       0       0       0       0       0
       0       0       0       0       0       0       0       0       0       0
       0       0       0       0       0       0       0       0       0       0
       0       0       0       0       0       0       0       0       0       0
       0       0       0       0       0       0       0       0       0       0
       0       0       0       0       0       0       0       0       0       0
       0       0       0       0       0       0       0       0       0       0
       0       0       0       0       0       0       0       0       0       0
       0       0       0       0       0       0       0       0       0       0
       0       0       0       0       0       0       0       0       0       0
       0       0       0       0       0       0       0       0       0       0
       0       0       0       0       0       0       0       0       0       0
       0       0       0       0       0       0       0       0       0       0
       0       0       0       0       0       0       0       0       0       0
       0       0       0       0       0       0       0       0       0       0
       0       0       0       0       0       0       0       0       0       0
       0       0       0       0       0       0       0       0       0       0
       0       0       0       0       0       0       0       0       0       0
       0       0       0       0       0       0       0       0       0       0
       0       0       0       0       0       0       0       0       0       0
       0       0       0       0       0       0       0       0       0       0
       0       0       0       0       0       0       0       0       0       0
       0       0       0       0       0       0       0       0       0       0
       0       0       0       0       0       0       0       0       0       0
       0       0       0       0       0       0       0       0       0       0
       0       0       0       0       0       0       0       0       0       0
       0       0       0       0       0       0       0       0       0       0
       0       0       0       0       0       0       0       0       0       0
       0       0       0       0       0       0       0       0       0       0
       0       0       0       0       0       0       0       0       0       0
       0       0       0       0       0       0       0       0       0       0
       0       0       0       0       0       0       0       0       0       0
       0       0       0       0       0       0       0       0       0       0
       0       0       0       0       0       0       0       0       0       0
       0       0       0       0       0       0       0       0       0       0
       0       0       0       0       0       0       0       0       0       0
       0       0       0       0       0       0       0       0       0       0
       0       0       0       0       0       0       0       0       0       0
       0       0       0       0       0       0       0       0       0       0
       0       0       0       0       0       0       0       0       0       0
       0       0       0       0       0       0       0       0       0       0
       0       0       0       0       0       0       0       0       0       0
       0       0       0       0       0       0       0       0       0       0
       0       0       0       0       0       0       0       0       0       0
       0       0       0       0       0       0       0       0       0       0
       0       0       0       0       0       0       0       0       0       0
       0       0       0       0       0       0       0       0       0       0
       0       0       0       0       0       0       0       0       0       0
       0       0       0       0       0       0       0       0       0       0
       0       0       0       0       0       0       0       0       0       0
       0       0       0       0       0       0       0       0       0       0
       0       0       0       0       0       0       0       0       0       0
       0       0       0       0       0       0       0       0       0       0
       0       0       0       0       0       0       0       0       0       0
       0       0       0       0       0       0       0       0       0       0
       0       0       0       0       0       0       0       0       0       0
       0       0       0       0       0       0       0       0       0       0
       0       0       0       0       0       0       0       0       0       0
       0       0       0       0       0       0       0       0       0       0
       0       0       0       0       0       0       0       0       0       0
       0       0       0       0       0       0       0       0       0       0
       0       0       0       0       0       0       0       0       0       0
       0       0       0       0       0       0       0       0       0       0
       0       0       0       0       0       0       0       0       0       0
       0       0       0       0       0       0       0       0       0       0
       0       0       0       0       0       0       0       0       0       0
       0       0       0       0       0       0       0       0       0       0
       0       0       0       0       0       0       0       0       0       0
       0       0       0       0       0       0       0       0       0       0
       0       0       0       0       0       0       0       0       0       0
       0       0       0       0       0       0       0       0       0       0
       0       0       0       0       0       0       0       0       0       0
       0       0       0       0       0       0       0       0       0       0
       0       0       0       0       0       0       0       0       0       0
       0       0       0       0       0       0       0       0       0       0
       0       0       0       0       0       0       0       0       0       0
       0       0       0       0       0       0       0       0       0       0
       0       0       0       0       0       0       0       0       0       0
       0       0       0       0       0       0       0       0       0       0
       0       0       0       0       0       0       0       0       0       0
       0       0       0       0       0       0       0       0       0       0
       0       0       0       0       0       0       0       0       0       0
       0       0       0       0       0       0       0       0       0       0
       0       0       0       0       0       0       0       0       0       0
       0       0       0       0       0       0       0       0       0       0
       0       0       0       0       0       0       0       0       0       0
       0       0       0       0       0       0       0       0       0       0
       0       0       0       0       0       0       0       0       0       0
       0       0       0       0       0       0       0       0       0       0
       0       0       0       0       0       0       0       0       0       0
       0       0       0       0       0       0       0       0       0       0
       0       0       0       0       0       0       0       0       0       0
       0       0       0       0       0       0       0       0       0       0
       0       0       0       0       0       0       0       0       0       0
       0       0       0       0       0       0       0       0       0       0
       0       0       0       0       0       0       0       0       0       0
       0       0       0       0       0       0       0       0       0       0
       0       0       0       0       0       0       0       0       0       0
       0       0       0       0       0       0       0       0       0       0
       0       0       0       0       0       0       0       0       0       0
       0       0       0       0       0       0       0       0       0       0
       0       0       0       0       0       0       0       0       0       0
       0       0       0       0       0       0       0       0       0       0
       0       0       0       0       0       0       0       0       0       0
       0       0       0       0       0       0       0       0       0       0
       0       0       0       0       0       0       0       0       0       0
       0       0       0       0       0       0       0       0       0       0
       0       0       0       0       0       0       0       0       0       0
       0       0       0       0       0       0       0       0       0       0
       0       0       0       0       0       0       0       0       0       0
       0       0       0       0       0       0       0       0       0       0
       0       0       0       0       0       0       0       0       0       0
       0       0       0       0       0       0       0       0       0       0
       0       0       0       0       0       0       0       0       0       0
       0       0       0       0       0       0       0       0       0       0
       0       0       0       0       0       0       0       0       0       0
       0       0       0       0       0       0       0       0       0       0
       0       0       0       0       0       0       0       0       0       0
       0       0       0       0       0       0       0       0       0       0
       0       0       0       0       0       0       0       0       0       0
       0       0       0       0       0       0       0       0       0       0
       0       0       0       0       0       0       0       0       0       0
       0       0       0       0       0       0       0       0       0       0
       0       0       0       0       0       0       0       0       0       0
       0       0       0       0       0       0       0       0       0       0
       0       0       0       0       0       0       0       0       0       0
       0       0       0       0       0       0       0       0       0       0
       0       0       0       0       0       0       0       0       0       0
       0       0       0       0       0       0       0       0       0       0
       0       0       0       0       0       0       0       0       0       0
       0       0       0       0       0       0       0       0       0       0
       0       0       0       0       0       0       0       0       0       0
       0       0       0       0       0       0       0       0       0       0
       0       0       0       0       0       0       0       0       0       0
       0       0       0       0       0       0       0       0       0       0
       0       0       0       0       0       0       0       0       0       0
       0       0       0       0       0       0       0       0       0       0
       0       0       0       0       0       0       0       0       0       0
       0       0       0       0       0       0       0       0       0       0
       0       0       0       0       0       0       0       0       0       0
       0       0       0       0       0       0       0       0       0       0
       0       0       0       0       0       0       0       0       0       0
       0       0       0       0       0       0       0       0       0       0
       0       0       0       0       0       0       0       0       0       0
       0       0       0       0       0       0       0       0       0       0
       0       0       0       0       0       0       0       0       0       0
       0       0       0       0       0       0       0       0       0       0
       0       0       0       0       0       0       0       0       0       0
       0       0       0       0       0       0       0       0       0       0
       0       0       0       0       0       0       0       0       0       0
       0       0       0       0       0       0       0       0       0       0
       0       0       0       0       0       0       0       0       0       0
       0       0       0       0       0       0       0       0       0       0
       0       0       0       0       0       0       0       0       0       0
       0       0       0       0       0       0       0       0       0       0
       0       0       0       0       0       0       0       0       0       0
       0       0       0       0       0       0       0       0       0       0
       0       0       0       0       0       0       0       0       0       0
       0       0       0       0       0       0       0       0       0       0
       0       0       0       0       0       0       0       0       0       0
       0       0       0       0       0       0       0       0       0       0
       0       0       0       0       0       0       0       0       0       0
       0       0       0       0       0       0       0       0       0       0
       0       0       0       0       0       0       0       0       0       0
       0       0       0       0       0       0       0       0       0       0
       0       0       0       0       0       0       0       0       0       0
       0       0       0       0       0       0       0       0       0       0
       0       0       0       0       0       0       0       0       0       0
       0       0       0       0       0       0       0       0       0       0
       0       0       0       0       0       0       0       0       0       0
       0       0       0       0       0       0       0       0       0       0
       0       0       0       0       0       0       0       0       0       0
       0       0       0       0       0       0       0       0       0       0
       0       0       0       0       0       0       0       0       0       0
       0       0       0       0       0       0       0       0       0       0
       0       0       0       0       0       0       0       0       0       0
       0       0       0       0       0       0       0       0       0       0
       0       0       0       0       0       0       0       0       0       0
       0       0       0       0       0       0       0       0       0       0
       0       0       0       0       0       0       0       0       0       0
       0       0       0       0       0       0       0       0       0       0
       0       0       0       0       0       0       0       0       0       0
       0       0       0       0       0       0       0       0       0       0
       0       0       0       0       0       0       0       0       0       0
       0       0       0       0       0       0       0       0       0       0
       0       0       0       0       0       0       0       0       0       0
       0       0       0       0       0       0       0       0       0       0
       0       0       0       0       0       0       0       0       0       0
       0       0       0       0       0       0       0       0       0       0
       0       0       0       0       0       0       0       0       0       0
       0       0       0       0       0       0       0       0       0       0
       0       0       0       0       0       0       0       0       0       0
       0       0       0       0       0       0       0       0       0       0
       0       0       0       0       0       0       0       0       0       0
       0       0       0       0       0       0       0       0       0       0
       0       0       0       0       0       0       0       0       0       0
       0       0       0       0       0       0       0       0       0       0
       0       0       0       0       0       0       0       0       0       0
       0       0       0       0       0       0       0       0       0       0
       0       0       0       0       0       0       0       0       0       0
       0       0       0       0       0       0       0       0       0       0
       0       0       0       0       0       0       0       0       0       0
       0       0       0       0       0       0       0       0       0       0
       0       0       0       0       0       0       0       0       0       0
       0       0       0       0       0       0       0       0       0       0
       0       0       0       0       0       0       0       0       0       0
       0       0       0       0       0       0       0       0       0       0
       0       0       0       0       0       0       0       0       0       0
       0       0       0       0       0       0       0       0       0       0
       0       0       0       0       0       0       0       0       0       0
       0       0       0       0       0       0       0       0       0       0
       0       0       0       0       0       0       0       0       0       0
       0       0       0       0       0       0       0       0       0       0
       0       0       0       0       0       0       0       0       0       0
       0       0       0       0       0       0       0       0       0       0
       0       0       0       0       0       0       0       0       0       0
       0       0       0       0       0       0       0       0       0       0
       0       0       0       0       0       0       0       0       0       0
       0       0       0       0       0       0       0       0       0       0
       0       0       0       0       0       0       0       0       0       0
       0       0       0       0       0       0       0       0       0       0
       0       0       0       0       0       0       0       0       0       0
       0       0       0       0       0       0       0       0       0       0
       0       0       0       0       0       0       0       0       0       0
       0       0       0       0       0       0       0       0       0       0
       0       0       0       0       0       0       0       0       0       0
       0       0       0       0       0       0       0       0       0       0
       0       0       0       0       0       0       0       0       0       0
       0       0       0       0       0       0       0       0       0       0
       0       0       0       0       0       0       0       0       0       0
       0       0       0       0       0       0       0       0       0       0
       0       0       0       0       0       0       0       0       0       0
       0       0       0       0       0       0       0       0       0       0
       0       0       0       0       0       0       0       0       0       0
       0       0       0       0       0       0       0       0       0       0
       0       0       0       0       0       0       0       0       0       0
       0       0       0       0       0       0       0       0       0       0
       0       0       0       0       0       0       0       0       0       0
       0       0       0       0       0       0       0       0       0       0
       0       0       0       0       0       0       0       0       0       0
       0       0       0       0       0       0       0       0       0       0
       0       0       0       0       0       0       0       0       0       0
       0       0       0       0       0       0       0       0       0       0
       0       0       0       0       0       0       0       0       0       0
       0       0       0       0       0       0       0       0       0       0
       0       0       0       0       0       0       0       0       0       0
       0       0       0       0       0       0       0       0       0       0
       0       0       0       0       0       0       0       0       0       0
       0       0       0       0       0       0       0       0       0       0
       0       0       0       0       0       0       0       0       0       0
       0       0       0       0       0       0       0       0       0       0
       0       0       0       0       0       0       0       0       0       0
       0       0       0       0       0       0       0       0       0       0
       0       0       0       0       0       0       0       0       0       0
       0       0       0       0       0       0       0       0       0       0
       0       0       0       0       0       0       0       0       0       0
       0       0       0       0       0       0       0       0       0       0
       0       0       0       0       0       0       0       0       0       0
       0       0       0       0       0       0       0       0       0       0
       0       0       0       0       0       0       0       0       0       0
       0       0       0       0       0       0       0       0       0       0
       0       0       0       0       0       0       0       0       0       0
       0       0       0       0       0       0       0       0       0       0
       0       0       0       0       0       0       0       0       0       0
       0       0       0       0       0       0       0       0       0       0
       0       0       0       0       0       0       0       0       0       0
       0       0       0       0       0       0       0       0       0       0
       0       0       0       0       0       0       0       0       0       0
       0       0       0       0       0       0       0       0       0       0
       0       0       0       0       0       0       0       0       0       0
       0       0       0       0       0       0       0       0       0       0
       0       0       0       0       0       0       0       0       0       0
       0       0       0       0       0       0       0       0       0       0
       0       0       0       0       0       0       0       0       0       0
       0       0       0       0       0       0       0       0       0       0
       0       0       0       0       0       0       0       0       0       0
       0       0       0       0       0       0       0       0       0       0
       0       0       0       0       0       0       0       0       0       0
       0       0       0       0       0       0       0       0       0       0
       0       0       0       0       0       0       0       0       0       0
       0       0       0       0       0       0       0       0       0       0
       0       0       0       0       0       0       0       0       0       0
       0       0       0       0       0       0       0       0       0       0
       0       0       0       0       0       0       0       0       0       0
       0       0       0       0       0       0       0       0       0       0
       0       0       0       0       0       0       0       0       0       0
       0       0       0       0       0       0       0       0       0       0
       0       0       0       0       0       0       0       0       0       0
       0       0       0       0       0       0       0       0       0       0
       0       0       0       0       0       0       0       0       0       0
       0       0       0       0       0       0       0       0       0       0
       0       0       0       0       0       0       0       0       0       0
       0       0       0       0       0       0       0       0       0       0
       0       0       0       0       0       0       0       0       0       0
       0       0       0       0       0       0       0       0       0       0
       0       0       0       0       0       0       0       0       0       0
       0       0       0       0       0       0       0       0       0       0
       0       0       0       0       0       0       0       0       0       0
       0       0       0       0       0       0       0       0       0       0
       0       0       0       0       0       0       0       0       0       0
       0       0       0       0       0       0       0       0       0       0
       0       0       0       0       0       0       0       0       0       0
       0       0       0       0       0       0       0       0       0       0
       0       0       0       0       0       0       0       0       0       0
       0       0       0       0       0       0       0       0       0       0
       0       0       0       0       0       0       0       0       0       0
       0       0       0       0       0       0       0       0       0       0
       0       0       0       0       0       0       0       0       0       0
       0       0       0       0       0       0       0       0       0       0
       0       0       0       0       0       0       0       0       0       0
       0       0       0       0       0       0       0       0       0       0
       0       0       0       0       0       0       0       0       0       0
       0       0       0       0       0       0       0       0       0       0
       0       0       0       0       0       0       0       0       0       0
       0       0       0       0       0       0       0       0       0       0
       0       0       0       0       0       0       0       0       0       0
       0       0       0       0       0       0       0       0       0       0
       0       0       0       0       0       0       0       0       0       0
       0       0       0       0       0       0       0       0       0       0
       0       0       0       0       0       0       0       0       0       0
       0       0       0       0       0       0       0       0       0       0
       0       0       0       0       0       0       0       0       0       0
       0       0       0       0       0       0       0       0       0       0
       0       0       0       0       0       0       0       0       0       0
       0       0       0       0       0       0       0       0       0       0
       0       0       0       0       0       0       0       0       0       0
       0       0       0       0       0       0       0       0       0       0
       0       0       0       0       0       0       0       0       0       0
       0       0       0       0       0       0       0       0       0       0
       0       0       0       0       0       0       0       0       0       0
       0       0       0       0       0       0       0       0       0       0
       0       0       0       0       0       0       0       0       0       0
       0       0       0       0       0       0       0       0       0       0
       0       0       0       0       0       0       0       0       0       0
       0       0       0       0       0       0       0       0       0       0
       0       0       0       0       0       0       0       0       0       0
       0       0       0       0       0       0       0       0       0       0
       0       0       0       0       0       0       0       0       0       0
       0       0       0       0       0       0       0       0       0       0
       0       0       0       0       0       0       0       0       0       0
       0       0       0       0       0       0       0       0       0       0
       0       0       0       0       0       0       0       0       0       0
       0       0       0       0       0       0       0       0       0       0
       0       0       0       0       0       0       0       0       0       0
       0       0       0       0       0       0       0       0       0       0
       0       0       0       0       0       0       0       0       0       0
       0       0       0       0       0       0       0       0       0       0
       0       0       0       0       0       0       0       0       0       0
       0       0       0       0       0       0       0       0       0       0
       0       0       0       0       0       0       0       0       0       0
       0       0       0       0       0       0       0       0       0       0
       0       0       0       0       0       0       0       0       0       0
       0       0       0       0       0       0       0       0       0       0
       0       0       0       0       0       0       0       0       0       0
       0       0       0       0       0       0       0       0       0       0
       0       0       0       0       0       0       0       0       0       0
       0       0       0       0       0       0       0       0       0       0
       0       0       0       0       0       0       0       0       0       0
       0       0       0       0       0       0       0       0       0       0
       0       0       0       0       0       0       0       0       0       0
       0       0       0       0       0       0       0       0       0       0
       0       0       0       0       0       0       0       0       0       0
       0       0       0       0       0       0       0       0       0       0
       0       0       0       0       0       0       0       0       0       0
       0       0       0       0       0       0       0       0       0       0
       0       0       0       0       0       0       0       0       0       0
       0       0       0       0       0       0       0       0       0       0
       0       0       0       0       0       0       0       0       0       0
       0       0       0       0       0       0       0       0       0       0
       0       0       0       0       0       0       0       0       0       0
       0       0       0       0       0       0       0       0       0       0
       0       0       0       0       0       0       0       0       0       0
       0       0       0       0       0       0       0       0       0       0
       0       0       0       0       0       0       0       0       0       0
       0       0       0       0       0       0       0       0       0       0
       0       0       0       0       0       0       0       0       0       0
       0       0       0       0       0       0       0       0       0       0
       0       0       0       0       0       0       0       0       0       0
       0       0       0       0       0       0       0       0       0       0
       0       0       0       0       0       0       0       0       0       0
       0       0       0       0       0       0       0       0       0       0
       0       0       0       0       0       0       0       0       0       0
       0       0       0       0       0       0       0       0       0       0
       0       0       0       0       0       0       0       0       0       0
       0       0       0       0       0       0       0       0       0       0
       0       0       0       0       0       0       0       0       0       0
       0       0       0       0       0       0       0       0       0       0
       0       0       0       0       0       0       0       0       0       0
       0       0       0       0       0       0       0       0       0       0
       0       0       0       0       0       0       0       0       0       0
       0       0       0       0       0       0       0       0       0       0
       0       0       0       0       0       0       0       0       0       0
       0       0       0       0       0       0       0       0       0       0
       0       0       0       0       0       0       0       0       0       0
       0       0       0       0       0       0       0       0       0       0
       0       0       0       0       0       0       0       0       0       0
       0       0       0       0       0       0       0       0       0       0
       0       0       0       0       0       0       0       0       0       0
       0       0       0       0       0       0       0       0       0       0
       0       0       0       0       0       0       0       0       0       0
       0       0       0       0       0       0       0       0       0       0
       0       0       0       0       0       0       0       0       0       0
       0       0       0       0       0       0       0       0       0       0
       0       0       0       0       0       0       0       0       0       0
       0       0       0       0       0       0       0       0       0       0
       0       0       0       0       0       0       0       0       0       0
       0       0       0       0       0       0       0       0       0       0
       0       0       0       0       0       0       0       0       0       0
       0       0       0       0       0       0       0       0       0       0
       0       0       0       0       0       0       0       0       0       0
       0       0       0       0       0       0       0       0       0       0
       0       0       0       0       0       0       0       0       0       0
       0       0       0       0       0       0       0       0       0       0
       0       0       0       0       0       0       0       0       0       0
       0       0       0       0       0       0       0       0       0       0
       0       0       0       0       0       0       0       0       0       0
       0       0       0       0       0       0       0       0       0       0
       0       0       0       0       0       0       0       0       0       0
       0       0       0       0       0       0       0       0       0       0
       0       0       0       0       0       0       0       0       0       0
       0       0       0       0       0       0       0       0       0       0
       0       0       0       0       0       0       0       0       0       0
       0       0       0       0       0       0       0       0       0       0
       0       0       0       0       0       0       0       0       0       0
       0       0       0       0       0       0       0       0       0       0
       0       0       0       0       0       0       0       0       0       0
       0       0       0       0       0       0       0       0       0       0
       0       0       0       0       0       0       0       0       0       0
       0       0       0       0       0       0       0       0       0       0
       0       0       0       0       0       0       0       0       0       0
       0       0       0       0       0       0       0       0       0       0
       0       0       0       0       0       0       0       0       0       0
       0       0       0       0       0       0       0       0       0       0
       0       0       0       0       0       0       0       0       0       0
       0       0       0       0       0       0       0       0       0       0
       0       0       0       0       0       0       0       0       0       0
       0       0       0       0       0       0       0       0       0       0
       0       0       0       0       0       0       0       0       0       0
       0       0       0       0       0       0       0       0       0       0
       0       0       0       0       0       0       0       0       0       0
       0       0       0       0       0       0       0       0       0       0
       0       0       0       0       0       0       0       0       0       0
       0       0       0       0       0       0       0       0       0       0
       0       0       0       0       0       0       0       0       0       0
       0       0       0       0       0       0       0       0       0       0
       0       0       0       0       0       0       0       0       0       0
       0       0       0       0       0       0       0       0       0       0
       0       0       0       0       0       0       0       0       0       0
       0       0       0       0       0       0       0       0       0       0
       0       0       0       0       0       0       0       0       0       0
       0       0       0       0       0       0       0       0       0       0
       0       0       0       0       0       0       0       0       0       0
       0       0       0       0       0       0       0       0       0       0
       0       0       0       0       0       0       0       0       0       0
       0       0       0       0       0       0       0       0       0       0
       0       0       0       0       0       0       0       0       0       0
       0       0       0       0       0       0       0       0       0       0
       0       0       0       0       0       0       0       0       0       0
       0       0       0       0       0       0       0       0       0       0
       0       0       0       0       0       0       0       0       0       0
       0       0       0       0       0       0       0       0       0       0
       0       0       0       0       0       0       0       0       0       0
       0       0       0       0       0       0       0       0       0       0
       0       0       0       0       0       0       0       0       0       0
       0       0       0       0       0       0       0       0       0       0
       0       0       0       0       0       0       0       0       0       0
       0       0       0       0       0       0       0       0       0       0
       0       0       0       0       0       0       0       0       0       0
       0       0       0       0       0       0       0       0       0       0
       0       0       0       0       0       0       0       0       0       0
       0       0       0       0       0       0       0       0       0       0
       0       0       0       0       0       0       0       0       0       0
       0       0       0       0       0       0       0       0       0       0
       0       0       0       0       0       0       0       0       0       0
       0       0       0       0       0       0       0       0       0       0
       0       0       0       0       0       0       0       0       0       0
       0       0       0       0       0       0       0       0       0       0
       0       0       0       0       0       0       0       0       0       0
       0       0       0       0       0       0       0       0       0       0
       0       0       0       0       0       0       0       0       0       0
       0       0       0       0       0       0       0       0       0       0
       0       0       0       0       0       0       0       0       0       0
       0       0       0       0       0       0       0       0       0       0
       0       0       0       0       0       0       0       0       0       0
       0       0       0       0       0       0       0       0       0       0
       0       0       0       0       0       0       0       0       0       0
       0       0       0       0       0       0       0       0       0       0
       0       0       0       0       0       0       0       0       0       0
       0       0       0       0       0       0       0       0       0       0
       0       0       0       0       0       0       0       0       0       0
       0       0       0       0       0       0       0       0       0       0
       0       0       0       0       0       0       0       0       0       0
       0       0       0       0       0       0       0       0       0       0
       0       0       0       0       0       0       0       0       0       0
       0       0       0       0       0       0       0       0       0       0
       0       0       0       0       0       0       0       0       0       0
       0       0       0       0       0       0       0       0       0       0
       0       0       0       0       0       0       0       0       0       0
       0       0       0       0       0       0       0       0       0       0
       0       0       0       0       0       0       0       0       0       0
       0       0       0       0       0       0       0       0       0       0
       0       0       0       0       0       0       0       0       0       0
       0       0       0       0       0       0       0       0       0       0
       0       0       0       0       0       0       0       0       0       0
       0       0       0       0       0       0       0       0       0       0
       0       0       0       0       0       0       0       0       0       0
       0       0       0       0       0       0       0       0       0       0
       0       0       0       0       0       0       0       0       0       0
       0       0       0       0       0       0       0       0       0       0
       0       0       0       0       0       0       0       0       0       0
       0       0       0       0       0       0       0       0       0       0
       0       0       0       0       0       0       0       0       0       0
       0       0       0       0       0       0       0       0       0       0
       0       0       0       0       0       0       0       0       0       0
       0       0       0       0       0       0       0       0       0       0
       0       0       0       0       0       0       0       0       0       0
       0       0       0       0       0       0       0       0       0       0
       0       0       0       0       0       0       0       0       0       0
       0       0       0       0       0       0       0       0       0       0
       0       0       0       0       0       0       0       0       0       0
       0       0       0       0       0       0       0       0       0       0
       0       0       0       0       0       0       0       0       0       0
       0       0       0       0       0       0       0       0       0       0
       0       0       0       0       0       0       0       0       0       0
       0       0       0       0       0       0       0       0       0       0
       0       0       0       0       0       0       0       0       0       0
       0       0       0       0       0       0       0       0       0       0
       0       0       0       0       0       0       0       0       0       0
       0       0       0       0       0       0       0       0       0       0
       0       0       0       0       0       0       0       0       0       0
       0       0       0       0       0       0       0       0       0       0
       0       0       0       0       0       0       0       0       0       0
       0       0       0       0       0       0       0       0       0       0
       0       0       0       0       0       0       0       0       0       0
       0       0       0       0       0       0       0       0       0       0
       0       0       0       0       0       0       0       0       0       0
       0       0       0       0       0       0       0       0       0       0
       0       0       0       0       0       0       0       0       0       0
       0       0       0       0       0       0       0       0       0       0
       0       0       0       0       0       0       0       0       0       0
       0       0       0       0       0       0       0       0       0       0
       0       0       0       0       0       0       0       0       0       0
       0       0       0       0       0       0       0       0       0       0
       0       0       0       0       0       0       0       0       0       0
       0       0       0       0       0       0       0       0       0       0
       0       0       0       0       0       0       0       0       0       0
       0       0       0       0       0       0       0       0       0       0
       0       0       0       0       0       0       0       0       0       0
       0       0       0       0       0       0       0       0       0       0
       0       0       0       0       0       0       0       0       0       0
       0       0       0       0       0       0       0       0       0       0
       0       0       0       0       0       0       0       0       0       0
       0       0       0       0       0       0       0       0       0       0
       0       0       0       0       0       0       0       0       0       0
       0       0       0       0       0       0       0       0       0       0
       0       0       0       0       0       0       0       0       0       0
       0       0       0       0       0       0       0       0       0       0
       0       0       0       0       0       0       0       0       0       0
       0       0       0       0       0       0       0       0       0       0
       0       0       0       0       0       0       0       0       0       0
       0       0       0       0       0       0       0       0       0       0
       0       0       0       0       0       0       0       0       0       0
       0       0       0       0       0       0       0       0       0       0
       0       0       0       0       0       0       0       0       0       0
       0       0       0       0       0       0       0       0       0       0
       0       0       0       0       0       0       0       0       0       0
       0       0       0       0       0       0       0       0       0       0
       0       0       0       0       0       0       0       0       0       0
       0       0       0       0       0       0       0       0       0       0
       0       0       0       0       0       0       0       0       0       0
       0       0       0       0       0       0       0       0       0       0
       0       0       0       0       0       0       0       0       0       0
       0       0       0       0       0       0       0       0       0       0
       0       0       0       0       0       0       0       0       0       0
       0       0       0       0       0       0       0       0       0       0
       0       0       0       0       0       0       0       0       0       0
       0       0       0       0       0       0       0       0       0       0
       0       0       0       0       0       0       0       0       0       0
       0       0       0       0       0       0       0       0       0       0
       0       0       0       0       0       0       0       0       0       0
       0       0       0       0       0       0       0       0       0       0
       0       0       0       0       0       0       0       0       0       0
       0       0       0       0       0       0       0       0       0       0
       0       0       0       0       0       0       0       0       0       0
       0       0       0       0       0       0       0       0       0       0
       0       0       0       0       0       0       0       0       0       0
       0       0       0       0       0       0       0       0       0       0
       0       0       0       0       0       0       0       0       0       0
       0       0       0       0       0       0       0       0       0       0
       0       0       0       0       0       0       0       0       0       0
       0       0       0       0       0       0       0       0       0       0
       0       0       0       0       0       0       0       0       0       0
       0       0       0       0       0       0       0       0       0       0
       0       0       0       0       0       0       0       0       0       0
       0       0       0       0       0       0       0       0       0       0
       0       0       0       0       0       0       0       0       0       0
       0       0       0       0       0       0       0       0       0       0
       0       0       0       0       0       0       0       0       0       0
       0       0       0       0       0       0       0       0       0       0
       0       0       0       0       0       0       0       0       0       0
       0       0       0       0       0       0       0       0       0       0
       0       0       0       0       0       0       0       0       0       0
       0       0       0       0       0       0       0       0       0       0
       0       0       0       0       0       0       0       0       0       0
       0       0       0       0       0       0       0       0       0       0
       0       0       0       0       0       0       0       0       0       0
       0       0       0       0       0       0       0       0       0       0
       0       0       0       0       0       0       0       0       0       0
       0       0       0       0       0       0       0       0       0       0
       0       0       0       0       0       0       0       0       0       0
       0       0       0       0       0       0       0       0       0       0
       0       0       0       0       0       0       0       0       0       0
       0       0       0       0       0       0       0       0       0       0
       0       0       0       0       0       0       0       0       0       0
       0       0       0       0       0       0       0       0       0       0
       0       0       0       0       0       0       0       0       0       0
       0       0       0       0       0       0       0       0       0       0
       0       0       0       0       0       0       0       0       0       0
       0       0       0       0       0       0       0       0       0       0
       0       0       0       0       0       0       0       0       0       0
       0       0       0       0       0       0       0       0       0       0
       0       0       0       0       0       0       0       0       0       0
       0       0       0       0       0       0       0       0       0       0
       0       0       0       0       0       0       0       0       0       0
       0       0       0       0       0       0       0       0       0       0
       0       0       0       0       0       0       0       0       0       0
       0       0       0       0       0       0       0       0       0       0
       0       0       0       0       0       0       0       0       0       0
       0       0       0       0       0       0       0       0       0       0
       0       0       0       0       0       0       0       0       0       0
       0       0       0       0       0       0       0       0       0       0
       0       0       0       0       0       0       0       0       0       0
       0       0       0       0       0       0       0       0       0       0
       0       0       0       0       0       0       0       0       0       0
       0       0       0       0       0       0       0       0       0       0
       0       0       0       0       0       0       0       0       0       0
       0       0       0       0       0       0       0       0       0       0
       0       0       0       0       0       0       0       0       0       0
       0       0       0       0       0       0       0       0       0       0
       0       0       0       0       0       0       0       0       0       0
       0       0       0       0       0       0       0       0       0       0
       0       0       0       0       0       0       0       0       0       0
       0       0       0       0       0       0       0       0       0       0
       0       0       0       0       0       0       0       0       0       0
       0       0       0       0       0       0       0       0       0       0
       0       0       0       0       0       0       0       0       0       0
       0       0       0       0       0       0       0       0       0       0
       0       0       0       0       0       0       0       0       0       0
       0       0       0       0       0       0       0       0       0       0
       0       0       0       0       0       0       0       0       0       0
       0       0       0       0       0       0       0       0       0       0
       0       0       0       0       0       0       0       0       0       0
       0       0       0       0       0       0       0       0       0       0
       0       0       0       0       0       0       0       0       0       0
       0       0       0       0       0       0       0       0       0       0
       0       0       0       0       0       0       0       0       0       0
       0       0       0       0       0       0       0       0       0       0
       0       0       0       0       0       0       0       0       0       0
       0       0       0       0       0       0       0       0       0       0
       0       0       0       0       0       0       0       0       0       0
       0       0       0       0       0       0       0       0       0       0
       0       0       0       0       0       0       0       0       0       0
       0       0       0       0       0       0       0       0       0       0
       0       0       0       0       0       0       0       0       0       0
       0       0       0       0       0       0       0       0       0       0
       0       0       0       0       0       0       0       0       0       0
       0       0       0       0       0       0       0       0       0       0
       0       0       0       0       0       0       0       0       0       0
       0       0       0       0       0       0       0       0       0       0
       0       0       0       0       0       0       0       0       0       0
       0       0       0       0       0       0       0       0       0       0
       0       0       0       0       0       0       0       0       0       0
       0       0       0       0       0       0       0       0       0       0
       0       0       0       0       0       0       0       0       0       0
       0       0       0       0       0       0       0       0       0       0
       0       0       0       0       0       0       0       0       0       0
       0       0       0       0       0       0       0       0       0       0
       0       0       0       0       0       0       0       0       0       0
       0       0       0       0       0       0       0       0       0       0
       0       0       0       0       0       0       0       0       0       0
       0       0       0       0       0       0       0       0       0       0
       0       0       0       0       0       0       0       0       0       0
       0       0       0       0       0       0       0       0       0       0
       0       0       0       0       0       0       0       0       0       0
       0       0       0       0       0       0       0       0       0       0
       0       0       0       0       0       0       0       0       0       0
       0       0       0       0       0       0       0       0       0       0
       0       0       0       0       0       0       0       0       0       0
       0       0       0       0       0       0       0       0       0       0
       0       0       0       0       0       0       0       0       0       0
       0       0       0       0       0       0       0       0       0       0
       0       0       0       0       0       0       0       0       0       0
       0       0       0       0       0       0       0       0       0       0
       0       0       0       0       0       0       0       0       0       0
       0       0       0       0       0       0       0       0       0       0
       0       0       0       0       0       0       0       0       0       0
       0       0       0       0       0       0       0       0       0       0
       0       0       0       0       0       0       0       0       0       0
       0       0       0       0       0       0       0       0       0       0
       0       0       0       0       0       0       0       0       0       0
       0       0       0       0       0       0       0       0       0       0
       0       0       0       0       0       0       0       0       0       0
       0       0       0       0       0       0       0       0       0       0
       0       0       0       0       0       0       0       0       0       0
       0       0       0       0       0       0       0       0       0       0
       0       0       0       0       0       0       0       0       0       0
       0       0       0       0       0       0       0       0       0       0
       0       0       0       0       0       0       0       0       0       0
       0       0       0       0       0       0       0       0       0       0
       0       0       0       0       0       0       0       0       0       0
       0       0       0       0       0       0       0       0       0       0
       0       0       0       0       0       0       0       0       0       0
       0       0       0       0       0       0       0       0       0       0
       0       0       0       0       0       0       0       0       0       0
       0       0       0       0       0       0       0       0       0       0
       0       0       0       0       0       0       0       0       0       0
       0       0       0       0       0       0       0       0       0       0
       0       0       0       0       0       0       0       0       0       0
       0       0       0       0       0       0       0       0       0       0
       0       0       0       0       0       0       0       0       0       0
       0       0       0       0       0       0       0       0       0       0
       0       0       0       0       0       0       0       0       0       0
       0       0       0       0       0       0       0       0       0       0
       0       0       0       0       0       0       0       0       0       0
       0       0       0       0       0       0       0       0       0       0
       0       0       0       0       0       0       0       0       0       0
       0       0       0       0       0       0       0       0       0       0
       0       0       0       0       0       0       0       0       0       0
       0       0       0       0       0       0       0       0       0       0
       0       0       0       0       0       0       0       0       0       0
       0       0       0       0       0       0       0       0       0       0
       0       0       0       0       0       0       0       0       0       0
       0       0       0       0       0       0       0       0       0       0
       0       0       0       0       0       0       0       0       0       0
       0       0       0       0       0       0       0       0       0       0
       0       0       0       0       0       0       0       0       0       0
       0       0       0       0       0       0       0       0       0       0
       0       0       0       0       0       0       0       0       0       0
       0       0       0       0       0       0       0       0       0       0
       0       0       0       0       0       0       0       0       0       0
       0       0       0       0       0       0       0       0       0       0
       0       0       0       0       0       0       0       0       0       0
       0       0       0       0       0       0       0       0       0       0
       0       0       0       0       0       0       0       0       0       0
       0       0       0       0       0       0       0       0       0       0
       0       0       0       0       0       0       0       0       0       0
       0       0       0       0       0       0       0       0       0       0
       0       0       0       0       0       0       0       0       0       0
       0       0       0       0       0       0       0       0       0       0
       0       0       0       0       0       0       0       0       0       0
       0       0       0       0       0       0       0       0       0       0
       0       0       0       0       0       0       0       0       0       0
       0       0       0       0       0       0       0       0       0       0
       0       0       0       0       0       0       0       0       0       0
       0       0       0       0       0       0       0       0       0       0
       0       0       0       0       0       0       0       0       0       0
       0       0       0       0       0       0       0       0       0       0
       0       0       0       0       0       0       0       0       0       0
       0       0       0       0       0       0       0       0       0       0
       0       0       0       0       0       0       0       0       0       0
       0       0       0       0       0       0       0       0       0       0
       0       0       0       0       0       0       0       0       0       0
       0       0       0       0       0       0       0       0       0       0
       0       0       0       0       0       0       0       0       0       0
       0       0       0       0       0       0       0       0       0       0
       0       0       0       0       0       0       0       0       0       0
       0       0       0       0       0       0       0       0       0       0
       0       0       0       0       0       0       0       0       0       0
       0       0       0       0       0       0       0       0       0       0
       0       0       0       0       0       0       0       0       0       0
       0       0       0       0       0       0       0       0       0       0
       0       0       0       0       0       0       0       0       0       0
       0       0       0       0       0       0       0       0       0       0
       0       0       0       0       0       0       0       0       0       0
       0       0       0       0       0       0       0       0       0       0
       0       0       0       0       0       0       0       0       0       0
       0       0       0       0       0       0       0       0       0       0
       0       0       0       0       0       0       0       0       0       0
       0       0       0       0       0       0       0       0       0       0
       0       0       0       0       0       0       0       0       0       0
       0       0       0       0       0       0       0       0       0       0
       0       0       0       0       0       0       0       0       0       0
       0       0       0       0       0       0       0       0       0       0
       0       0       0       0       0       0       0       0       0       0
       0       0       0       0       0       0       0       0       0       0
       0       0       0       0       0       0       0       0       0       0
       0       0       0       0       0       0       0       0       0       0
       0       0       0       0       0       0       0       0       0       0
       0       0       0       0       0       0       0       0       0       0
       0       0       0       0       0       0       0       0       0       0
       0       0       0       0       0       0       0       0       0       0
       0       0       0       0       0       0       0       0       0       0
       0       0       0       0       0       0       0       0       0       0
       0       0       0       0       0       0       0       0       0       0
       0       0       0       0       0       0       0       0       0       0
       0       0       0       0       0       0       0       0       0       0
       0       0       0       0       0       0       0       0       0       0
       0       0       0       0       0       0       0       0       0       0
       0       0       0       0       0       0       0       0       0       0
       0       0       0       0       0       0       0       0       0       0
       0       0       0       0       0       0       0       0       0       0
       0       0       0       0       0       0       0       0       0       0
       0       0       0       0       0       0       0       0       0       0
       0       0       0       0       0       0       0       0       0       0
       0       0       0       0       0       0       0       0       0       0
       0       0       0       0       0       0       0       0       0       0
       0       0       0       0       0       0       0       0       0       0
       0       0       0       0       0       0       0       0       0       0
       0       0       0       0       0       0       0       0       0       0
       0       0       0       0       0       0       0       0       0       0
       0       0       0       0       0       0       0       0       0       0
       0       0       0       0       0       0       0       0       0       0
       0       0       0       0       0       0       0       0       0       0
       0       0       0       0       0       0       0       0       0       0
       0       0       0       0       0       0       0       0       0       0
       0       0       0       0       0       0       0       0       0       0
       0       0       0       0       0       0       0       0       0       0
       0       0       0       0       0       0       0       0       0       0
       0       0       0       0       0       0       0       0       0       0
       0       0       0       0       0       0       0       0       0       0
       0       0       0       0       0       0       0       0       0       0
       0       0       0       0       0       0       0       0       0       0
       0       0       0       0       0       0       0       0       0       0
       0       0       0       0       0       0       0       0       0       0
       0       0       0       0       0       0       0       0       0       0
       0       0       0       0       0       0       0       0       0       0
       0       0       0       0       0       0       0       0       0       0
       0       0       0       0       0       0       0       0       0       0
       0       0       0       0       0       0       0       0       0       0
       0       0       0       0       0       0       0       0       0       0
       0       0       0       0       0       0       0       0       0       0
       0       0       0       0       0       0       0       0       0       0
       0       0       0       0       0       0       0       0       0       0
       0       0       0       0       0       0       0       0       0       0
       0       0       0       0       0       0       0       0       0       0
       0       0       0       0       0       0       0       0       0       0
       0       0       0       0       0       0       0       0       0       0
       0       0       0       0       0       0       0       0       0       0
       0       0       0       0       0       0       0       0       0       0
       0       0       0       0       0       0       0       0       0       0
       0       0       0       0       0       0       0       0       0       0
       0       0       0       0       0       0       0       0       0       0
       0       0       0       0       0       0       0       0       0       0
       0       0       0       0       0       0       0       0       0       0
       0       0       0       0       0       0       0       0       0       0
       0       0       0       0       0       0       0       0       0       0
       0       0       0       0       0       0       0       0       0       0
       0       0       0       0       0       0       0       0       0       0
       0       0       0       0       0       0       0       0       0       0
       0       0       0       0       0       0       0       0       0       0
       0       0       0       0       0       0       0       0       0       0
       0       0       0       0       0       0       0       0       0       0
       0       0       0       0       0       0       0       0       0       0
       0       0       0       0       0       0       0       0       0       0
       0       0       0       0       0       0       0       0       0       0
       0       0       0       0       0       0       0       0       0       0
       0       0       0       0       0       0       0       0       0       0
       0       0       0       0       0       0       0       0       0       0
       0       0       0       0       0       0       0       0       0       0
       0       0       0       0       0       0       0       0       0       0
       0       0       0       0       0       0       0       0       0       0
       0       0       0       0       0       0       0       0       0       0
       0       0       0       0       0       0       0       0       0       0
       0       0       0       0       0       0       0       0       0       0
       0       0       0       0       0       0       0       0       0       0
       0       0       0       0       0       0       0       0       0       0
       0       0       0       0       0       0       0       0       0       0
       0       0       0       0       0       0       0       0       0       0
       0       0       0       0       0       0       0       0       0       0
       0       0       0       0       0       0       0       0       0       0
       0       0       0       0       0       0       0       0       0       0
       0       0       0       0       0       0       0       0       0       0
       0       0       0       0       0       0       0       0       0       0
       0       0       0       0       0       0       0       0       0       0
       0       0       0       0       0       0       0       0       0       0
       0       0       0       0       0       0       0       0       0       0
       0       0       0       0       0       0       0       0       0       0
       0       0       0       0       0       0       0       0       0       0
       0       0       0       0       0       0       0       0       0       0
       0       0       0       0       0       0       0       0       0       0
       0       0       0       0       0       0       0       0       0       0
       0       0       0       0       0       0       0       0       0       0
       0       0       0       0       0       0       0       0       0       0
       0       0       0       0       0       0       0       0       0       0
       0       0       0       0       0       0       0       0       0       0
       0       0       0       0       0       0       0       0       0       0
       0       0       0       0       0       0       0       0       0       0
       0       0       0       0       0       0       0       0       0       0
       0       0       0       0       0       0       0       0       0       0
       0       0       0       0       0       0       0       0       0       0
       0       0       0       0       0       0       0       0       0       0
       0       0       0       0       0       0       0       0       0       0
       0       0       0       0       0       0       0       0       0       0
       0       0       0       0       0       0       0       0       0       0
       0       0       0       0       0       0       0       0       0       0
       0       0       0       0       0       0       0       0       0       0
       0       0       0       0       0       0       0       0       0       0
       0       0       0       0       0       0       0       0       0       0
       0       0       0       0       0       0       0       0       0       0
       0       0       0       0       0       0       0       0       0       0
       0       0       0       0       0       0       0       0       0       0
       0       0       0       0       0       0       0       0       0       0
       0       0       0       0       0       0       0       0       0       0
       0       0       0       0       0       0       0       0       0       0
       0       0       0       0       0       0       0       0       0       0
       0       0       0       0       0       0       0       0       0       0
       0       0       0       0       0       0       0       0       0       0
       0       0       0       0       0       0       0       0       0       0
       0       0       0       0       0       0       0       0       0       0
       0       0       0       0       0       0       0       0       0       0
       0       0       0       0       0       0       0       0       0       0
       0       0       0       0       0       0       0       0       0       0
       0       0       0       0       0       0       0       0       0       0
       0       0       0       0       0       0       0       0       0       0
       0       0       0       0       0       0       0       0       0       0
       0       0       0       0       0       0       0       0       0       0
       0       0       0       0       0       0       0       0       0       0
       0       0       0       0       0       0       0       0       0       0
       0       0       0       0       0       0       0       0       0       0
       0       0       0       0       0       0       0       0       0       0
       0       0       0       0       0       0       0       0       0       0
       0       0       0       0       0       0       0       0       0       0
       0       0       0       0       0       0       0       0       0       0
       0       0       0       0       0       0       0       0       0       0
       0       0       0       0       0       0       0       0       0       0
       0       0       0       0       0       0       0       0       0       0
       0       0       0       0       0       0       0       0       0       0
       0       0       0       0       0       0       0       0       0       0
       0       0       0       0       0       0       0       0       0       0
       0       0       0       0       0       0       0       0       0       0
       0       0       0       0       0       0       0       0       0       0
       0       0       0       0       0       0       0       0       0       0
       0       0       0       0       0       0       0       0       0       0
       0       0       0       0       0       0       0       0       0       0
       0       0       0       0       0       0       0       0       0       0
       0       0       0       0       0       0       0       0       0       0
       0       0       0       0       0       0       0       0       0       0
       0       0       0       0       0       0       0       0       0       0
       0       0       0       0       0       0       0       0       0       0
       0       0       0       0       0       0       0       0       0       0
       0       0       0       0       0       0       0       0       0       0
       0       0       0       0       0       0       0       0       0       0
       0       0       0       0       0       0       0       0       0       0
       0       0       0       0       0       0       0       0       0       0
       0       0       0       0       0       0       0       0       0       0
       0       0       0       0       0       0       0       0       0       0
       0       0       0       0       0       0       0       0       0       0
       0       0       0       0       0       0       0       0       0       0
       0       0       0       0       0       0       0       0       0       0
       0       0       0       0       0       0       0       0       0       0
       0       0       0       0       0       0       0       0       0       0
       0       0       0       0       0       0       0       0       0       0
       0       0       0       0       0       0       0       0       0       0
       0       0       0       0       0       0       0       0       0       0
       0       0       0       0       0       0       0       0       0       0
       0       0       0       0       0       0       0       0       0       0
       0       0       0       0       0       0       0       0       0       0
       0       0       0       0       0       0       0       0       0       0
       0       0       0       0       0       0       0       0       0       0
       0       0       0       0       0       0       0       0       0       0
       0       0       0       0       0       0       0       0       0       0
       0       0       0       0       0       0       0       0       0       0
       0       0       0       0       0       0       0       0       0       0
       0       0       0       0       0       0       0       0       0       0
       0       0       0       0       0       0       0       0       0       0
       0       0       0       0       0       0       0       0       0       0
       0       0       0       0       0       0       0       0       0       0
       0       0       0       0       0       0       0       0       0       0
       0       0       0       0       0       0       0       0       0       0
       0       0       0       0       0       0       0       0       0       0
       0       0       0       0       0       0       0       0       0       0
       0       0       0       0       0       0       0       0       0       0
       0       0       0       0       0       0       0       0       0       0
       0       0       0       0       0       0       0       0       0       0
       0       0       0       0       0       0       0       0       0       0
       0       0       0       0       0       0       0       0       0       0
       0       0       0       0       0       0       0       0       0       0
       0       0       0       0       0       0       0       0       0       0
       0       0       0       0       0       0       0       0       0       0
       0       0       0       0       0       0       0       0       0       0
       0       0       0       0       0       0       0       0       0       0
       0       0       0       0       0       0       0       0       0       0
       0       0       0       0       0       0       0       0       0       0
       0       0       0       0       0       0       0       0       0       0
       0       0       0       0       0       0       0       0       0       0
       0       0       0       0       0       0       0       0       0       0
       0       0       0       0       0       0       0       0       0       0
       0       0       0       0       0       0       0       0       0       0
       0       0       0       0       0       0       0       0       0       0
       0       0       0       0       0       0       0       0       0       0
       0       0       0       0       0       0       0       0       0       0
       0       0       0       0       0       0       0       0       0       0
       0       0       0       0       0       0       0       0       0       0
       0       0       0       0       0       0       0       0       0       0
       0       0       0       0       0       0       0       0       0       0
       0       0       0       0       0       0       0       0       0       0
       0       0       0       0       0       0       0       0       0       0
       0       0       0       0       0       0       0       0       0       0
       0       0       0       0       0       0       0       0       0       0
       0       0       0       0       0       0       0       0       0       0
       0       0       0       0       0       0       0       0       0       0
       0       0       0       0       0       0       0       0       0       0
       0       0       0       0       0       0       0       0       0       0
       0       0       0       0       0       0       0       0       0       0
       0       0       0       0       0       0       0       0       0       0
       0       0       0       0       0       0       0       0       0       0
       0       0       0       0       0       0       0       0       0       0
       0       0       0       0       0       0       0       0       0       0
       0       0       0       0       0       0       0       0       0       0
       0       0       0       0       0       0       0       0       0       0
       0       0       0       0       0       0       0       0       0       0
       0       0       0       0       0       0       0       0       0       0
       0       0       0       0       0       0       0       0       0       0
       0       0       0       0       0       0       0       0       0       0
       0       0       0       0       0       0       0       0       0       0
       0       0       0       0       0       0       0       0       0       0
       0       0       0       0       0       0       0       0       0       0
       0       0       0       0       0       0       0       0       0       0
       0       0       0       0       0       0       0       0       0       0
       0       0       0       0       0       0       0       0       0       0
       0       0       0       0       0       0       0       0       0       0
       0       0       0       0       0       0       0       0       0       0
       0       0       0       0       0       0       0       0       0       0
       0       0       0       0       0       0       0       0       0       0
       0       0       0       0       0       0       0       0       0       0
       0       0       0       0       0       0       0       0       0       0
       0       0       0       0       0       0       0       0       0       0
       0       0       0       0       0       0       0       0       0       0
       0       0       0       0       0       0       0       0       0       0
       0       0       0       0       0       0       0       0       0       0
       0       0       0       0       0       0       0       0       0       0
       0       0       0       0       0       0       0       0       0       0
       0       0       0       0       0       0       0       0       0       0
       0       0       0       0       0       0       0       0       0       0
       0       0       0       0       0       0       0       0       0       0
       0       0       0       0       0       0       0       0       0       0
       0       0       0       0       0       0       0       0       0       0
       0       0       0       0       0       0       0       0       0       0
       0       0       0       0       0       0       0       0       0       0
       0       0       0       0       0       0       0       0       0       0
       0       0       0       0       0       0       0       0       0       0
       0       0       0       0       0       0       0       0       0       0
       0       0       0       0       0       0       0       0       0       0
       0       0       0       0       0       0       0       0       0       0
       0       0       0       0       0       0       0       0       0       0
       0       0       0       0       0       0       0       0       0       0
       0       0       0       0       0       0       0       0       0       0
       0       0       0       0       0       0       0       0       0       0
       0       0       0       0       0       0       0       0       0       0
       0       0       0       0       0       0       0       0       0       0
       0       0       0       0       0       0       0       0       0       0
       0       0       0       0       0       0       0       0       0       0
       0       0       0       0       0       0       0       0       0       0
       0       0       0       0       0       0       0       0       0       0
       0       0       0       0       0       0       0       0       0       0
       0       0       0       0       0       0       0       0       0       0
       0       0       0       0       0       0       0       0       0       0
       0       0       0       0       0       0       0       0       0       0
       0       0       0       0       0       0       0       0       0       0
       0       0       0       0       0       0       0       0       0       0
       0       0       0       0       0       0       0       0       0       0
       0       0       0       0       0       0       0       0       0       0
       0       0       0       0       0       0       0       0       0       0
       0       0       0       0       0       0       0       0       0       0
       0       0       0       0       0       0       0       0       0       0
       0       0       0       0       0       0       0       0       0       0
       0       0       0       0       0       0       0       0       0       0
       0       0       0       0       0       0       0       0       0       0
       0       0       0       0       0       0       0       0       0       0
       0       0       0       0       0       0       0       0       0       0
       0       0       0       0       0       0       0       0       0       0
       0       0       0       0       0       0       0       0       0       0
       0       0       0       0       0       0       0       0       0       0
       0       0       0       0       0       0       0       0       0       0
       0       0       0       0       0       0       0       0       0       0
       0       0       0       0       0       0       0       0       0       0
       0       0       0       0       0       0       0       0       0       0
       0       0       0       0       0       0       0       0       0       0
       0       0       0       0       0       0       0       0       0       0
       0       0       0       0       0       0       0       0       0       0
       0       0       0       0       0       0       0       0       0       0
       0       0       0       0       0       0       0       0       0       0
       0       0       0       0       0       0       0       0       0       0
       0       0       0       0       0       0       0       0       0       0
       0       0       0       0       0       0       0       0       0       0
       0       0       0       0       0       0       0       0       0       0
       0       0       0       0       0       0       0       0       0       0
       0       0       0       0       0       0       0       0       0       0
       0       0       0       0       0       0       0       0       0       0
       0       0       0       0       0       0       0       0       0       0
       0       0       0       0       0       0       0       0       0       0
       0       0       0       0       0       0       0       0       0       0
       0       0       0       0       0       0       0       0       0       0
       0       0       0       0       0       0       0       0       0       0
       0       0       0       0       0       0       0       0       0       0
       0       0       0       0       0       0       0       0       0       0
       0       0       0       0       0       0       0       0       0       0
       0       0       0       0       0       0       0       0       0       0
       0       0       0       0       0       0       0       0       0       0
       0       0       0       0       0       0       0       0       0       0
       0       0       0       0       0       0       0       0       0       0
       0       0       0       0       0       0       0       0       0       0
       0       0       0       0       0       0       0       0       0       0
       0       0       0       0       0       0       0       0       0       0
       0       0       0       0       0       0       0       0       0       0
       0       0       0       0       0       0       0       0       0       0
       0       0       0       0       0       0       0       0       0       0
       0       0       0       0       0       0       0       0       0       0
       0       0       0       0       0       0       0       0       0       0
       0       0       0       0       0       0       0       0       0       0
       0       0       0       0       0       0       0       0       0       0
       0       0       0       0       0       0       0       0       0       0
       0       0       0       0       0       0       0       0       0       0
       0       0       0       0       0       0       0       0       0       0
       0       0       0       0       0       0       0       0       0       0
       0       0       0       0       0       0       0       0       0       0
       0       0       0       0       0       0       0       0       0       0
       0       0       0       0       0       0       0       0       0       0
       0       0       0       0       0       0       0       0       0       0
       0       0       0       0       0       0       0       0       0       0
       0       0       0       0       0       0       0       0       0       0
       0       0       0       0       0       0       0       0       0       0
       0       0       0       0       0       0       0       0       0       0
       0       0       0       0       0       0       0       0       0       0
       0       0       0       0       0       0       0       0       0       0
       0       0       0       0       0       0       0       0       0       0
       0       0       0       0       0       0       0       0       0       0
       0       0       0       0       0       0       0       0       0       0
       0       0       0       0       0       0       0       0       0       0
       0       0       0       0       0       0       0       0       0       0
       0       0       0       0       0       0       0       0       0       0
       0       0       0       0       0       0       0       0       0       0
       0       0       0       0       0       0       0       0       0       0
       0       0       0       0       0       0       0       0       0       0
       0       0       0       0       0       0       0       0       0       0
       0       0       0       0       0       0       0       0       0       0
       0       0       0       0       0       0       0       0       0       0
       0       0       0       0       0       0       0       0       0       0
       0       0       0       0       0       0       0       0       0       0
       0       0       0       0       0       0       0       0       0       0
       0       0       0       0       0       0       0       0       0       0
       0       0       0       0       0       0       0       0       0       0
       0       0       0       0       0       0       0       0       0       0
       0       0       0       0       0       0       0       0       0       0
       0       0       0       0       0       0       0       0       0       0
       0       0       0       0       0       0       0       0       0       0
       0       0       0       0       0       0       0       0       0       0
       0       0       0       0       0       0       0       0       0       0
       0       0       0       0       0       0       0       0       0       0
       0       0       0       0       0       0       0       0       0       0
       0       0       0       0       0       0       0       0       0       0
       0       0       0       0       0       0       0       0       0       0
       0       0       0       0       0       0       0       0       0       0
       0       0       0       0       0       0       0       0       0       0
       0       0       0       0       0       0       0       0       0       0
       0       0       0       0       0       0       0       0       0       0
       0       0       0       0       0       0       0       0       0       0
       0       0       0       0       0       0       0       0       0       0
       0       0       0       0       0       0       0       0       0       0
       0       0       0       0       0       0       0       0       0       0
       0       0       0       0       0       0       0       0       0       0
       0       0       0       0       0       0       0       0       0       0
       0       0       0       0       0       0       0       0       0       0
       0       0       0       0       0       0       0       0       0       0
       0       0       0       0       0       0       0       0       0       0
       0       0       0       0       0       0       0       0       0       0
       0       0       0       0       0       0       0       0       0       0
       0       0       0       0       0       0       0       0       0       0
       0       0       0       0       0       0       0       0       0       0
       0       0       0       0       0       0       0       0       0       0
       0       0       0       0       0       0       0       0       0       0
       0       0       0       0       0       0       0       0       0       0
       0       0       0       0       0       0       0       0       0       0
       0       0       0       0       0       0       0       0       0       0
       0       0       0       0       0       0       0       0       0       0
       0       0       0       0       0       0       0       0       0       0
       0       0       0       0       0       0       0       0       0       0
       0       0       0       0       0       0       0       0       0       0
       0       0       0       0       0       0       0       0       0       0
       0       0       0       0       0       0       0       0       0       0
       0       0       0       0       0       0       0       0       0       0
       0       0       0       0       0       0       0       0       0       0
       0       0       0       0       0       0       0       0       0       0
       0       0       0       0       0       0       0       0       0       0
       0       0       0       0       0       0       0       0       0       0
       0       0       0       0       0       0       0       0       0       0
       0       0       0       0       0       0       0       0       0       0
       0       0       0       0       0       0       0       0       0       0
       0       0       0       0       0       0       0       0       0       0
       0       0       0       0       0       0       0       0       0       0
       0       0       0       0       0       0       0       0       0       0
       0       0       0       0       0       0       0       0       0       0
       0       0       0       0       0       0       0       0       0       0
       0       0       0       0       0       0       0       0       0       0
       0       0       0       0       0       0       0       0       0       0
       0       0       0       0       0       0       0       0       0       0
       0       0       0       0       0       0       0       0       0       0
       0       0       0       0       0       0       0       0       0       0
       0       0       0       0       0       0       0       0       0       0
       0       0       0       0       0       0       0       0       0       0
       0       0       0       0       0       0       0       0       0       0
       0       0       0       0       0       0       0       0       0       0
       0       0       0       0       0       0       0       0       0       0
       0       0       0       0       0       0       0       0       0       0
       0       0       0       0       0       0       0       0       0       0
       0       0       0       0       0       0       0       0       0       0
       0       0       0       0       0       0       0       0       0       0
       0       0       0       0       0       0       0       0       0       0
       0       0       0       0       0       0       0       0       0       0
       0       0       0       0       0       0       0       0       0       0
       0       0       0       0       0       0       0       0       0       0
       0       0       0       0       0       0       0       0       0       0
       0       0       0       0       0       0       0       0       0       0
       0       0       0       0       0       0       0       0       0       0
       0       0       0       0       0       0       0       0       0       0
       0       0       0       0       0       0       0       0       0       0
       0       0       0       0       0       0       0       0       0       0
       0       0       0       0       0       0       0       0       0       0
       0       0       0       0       0       0       0       0       0       0
       0       0       0       0       0       0       0       0       0       0
       0       0       0       0       0       0       0       0       0       0
       0       0       0       0       0       0       0       0       0       0
       0       0       0       0       0       0       0       0       0       0
       0       0       0       0       0       0       0       0       0       0
       0       0       0       0       0       0       0       0       0       0
       0       0       0       0       0       0       0       0       0       0
       0       0       0       0       0       0       0       0       0       0
       0       0       0       0       0       0       0       0       0       0
       0       0       0       0       0       0       0       0       0       0
       0       0       0       0       0       0       0       0       0       0
       0       0       0       0       0       0       0       0       0       0
       0       0       0       0       0       0       0       0       0       0
       0       0       0       0       0       0       0       0       0       0
       0       0       0       0       0       0       0       0       0       0
       0       0       0       0       0       0       0       0       0       0
       0       0       0       0       0       0       0       0       0       0
       0       0       0       0       0       0       0       0       0       0
       0       0       0       0       0       0       0       0       0       0
       0       0       0       0       0       0       0       0       0       0
       0       0       0       0       0       0       0       0       0       0
       0       0       0       0       0       0       0       0       0       0
       0       0       0       0       0       0       0       0       0       0
       0       0       0       0       0       0       0       0       0       0
       0       0       0       0       0       0       0       0       0       0
       0       0       0       0       0       0       0       0       0       0
       0       0       0       0       0       0       0       0       0       0
       0       0       0       0       0       0       0       0       0       0
       0       0       0       0       0       0       0       0       0       0
       0       0       0       0       0       0       0       0       0       0
       0       0       0       0       0       0       0       0       0       0
       0       0       0       0       0       0       0       0       0       0
       0       0       0       0       0       0       0       0       0       0
       0       0       0       0       0       0       0       0       0       0
       0       0       0       0       0       0       0       0       0       0
       0       0       0       0       0       0       0       0       0       0
       0       0       0       0       0       0       0       0       0       0
       0       0       0       0       0       0       0       0       0       0
       0       0       0       0       0       0       0       0       0       0
       0       0       0       0       0       0       0       0       0       0
       0       0       0       0       0       0       0       0       0       0
       0       0       0       0       0       0       0       0       0       0
       0       0       0       0       0       0       0       0       0       0
       0       0       0       0       0       0       0       0       0       0
       0       0       0       0       0       0       0       0       0       0
       0       0       0       0       0       0       0       0       0       0
       0       0       0       0       0       0       0       0       0       0
       0       0       0       0       0       0       0       0       0       0
       0       0       0       0       0       0       0       0       0       0
       0       0       0       0       0       0       0       0       0       0
       0       0       0       0       0       0       0       0       0       0
       0       0       0       0       0       0       0       0       0       0
       0       0       0       0       0       0       0       0       0       0
       0       0       0       0       0       0       0       0       0       0
       0       0       0       0       0       0       0       0       0       0
       0       0       0       0       0       0       0       0       0       0
       0       0       0       0       0       0       0       0       0       0
       0       0       0       0       0       0       0       0       0       0
       0       0       0       0       0       0       0       0       0       0
       0       0       0       0       0       0       0       0       0       0
       0       0       0       0       0       0       0       0       0       0
       0       0       0       0       0       0       0       0       0       0
       0       0       0       0       0       0       0       0       0       0
       0       0       0       0       0       0       0       0       0       0
       0       0       0       0       0       0       0       0       0       0
       0       0       0       0       0       0       0       0       0       0
       0       0       0       0       0       0       0       0       0       0
       0       0       0       0       0       0       0       0       0       0
       0       0       0       0       0       0       0       0       0       0
       0       0       0       0       0       0       0       0       0       0
       0       0       0       0       0       0       0       0       0       0
       0       0       0       0       0       0       0       0       0       0
       0       0       0       0       0       0       0       0       0       0
       0       0       0       0       0       0       0       0       0       0
       0       0       0       0       0       0       0       0       0       0
       0       0       0       0       0       0       0       0       0       0
       0       0       0       0       0       0       0       0       0       0
       0       0       0       0       0       0       0       0       0       0
       0       0       0       0       0       0       0       0       0       0
       0       0       0       0       0       0       0       0       0       0
       0       0       0       0       0       0       0       0       0       0
       0       0       0       0       0       0       0       0       0       0
       0       0       0       0       0       0       0       0       0       0
       0       0       0       0       0       0       0       0       0       0
       0       0       0       0       0       0       0       0       0       0
       0       0       0       0       0       0       0       0       0       0
       0       0       0       0       0       0       0       0       0       0
       0       0       0       0       0       0       0       0       0       0
       0       0       0       0       0       0       0       0       0       0
       0       0       0       0       0       0       0       0       0       0
       0       0       0       0       0       0       0       0       0       0
       0       0       0       0       0       0       0       0       0       0
       0       0       0       0       0       0       0       0       0       0
       0       0       0       0       0       0       0       0       0       0
       0       0       0       0       0       0       0       0       0       0
       0       0       0       0       0       0       0       0       0       0
       0       0       0       0       0       0       0       0       0       0
       0       0       0       0       0       0       0       0       0       0
       0       0       0       0       0       0       0       0       0       0
       0       0       0       0       0       0       0       0       0       0
       0       0       0       0       0       0       0       0       0       0
       0       0       0       0       0       0       0       0       0       0
       0       0       0       0       0       0       0       0       0       0
       0       0       0       0       0       0       0       0       0       0
       0       0       0       0       0       0       0       0       0       0
       0       0       0       0       0       0       0       0       0       0
       0       0       0       0       0       0       0       0       0       0
       0       0       0       0       0       0       0       0       0       0
       0       0       0       0       0       0       0       0       0       0
       0       0       0       0       0       0       0       0       0       0
       0       0       0       0       0       0       0       0       0       0
       0       0       0       0       0       0       0       0       0       0
       0       0       0       0       0       0       0       0       0       0
       0       0       0       0       0       0       0       0       0       0
       0       0       0       0       0       0       0       0       0       0
       0       0       0       0       0       0       0       0       0       0
       0       0       0       0       0       0       0       0       0       0
       0       0       0       0       0       0       0       0       0       0
       0       0       0       0       0       0       0       0       0       0
       0       0       0       0       0       0       0       0       0       0
       0       0       0       0       0       0       0       0       0       0
       0       0       0       0       0       0       0       0       0       0
       0       0       0       0       0       0       0       0       0       0
       0       0       0       0       0       0       0       0       0       0
       0       0       0       0       0       0       0       0       0       0
       0       0       0       0       0       0       0       0       0       0
       0       0       0       0       0       0       0       0       0       0
       0       0       0       0       0       0       0       0       0       0
       0       0       0       0       0       0       0       0       0       0
       0       0       0       0       0       0       0       0       0       0
       0       0       0       0       0       0       0       0       0       0
       0       0       0       0       0       0       0       0       0       0
       0       0       0       0       0       0       0       0       0       0
       0       0       0       0       0       0       0       0       0       0
       0       0       0       0       0       0       0       0       0       0
       0       0       0       0       0       0       0       0       0       0
       0       0       0       0       0       0       0       0       0       0
       0       0       0       0       0       0       0       0       0       0
       0       0       0       0       0       0       0       0       0       0
       0       0       0       0       0       0       0       0       0       0
       0       0       0       0       0       0       0       0       0       0
       0       0       0       0       0       0       0       0       0       0
       0       0       0       0       0       0       0       0       0       0
       0       0       0       0       0       0       0       0       0       0
       0       0       0       0       0       0       0       0       0       0
       0       0       0       0       0       0       0       0       0       0
       0       0       0       0       0       0       0       0       0       0
       0       0       0       0       0       0       0       0       0       0
       0       0       0       0       0       0       0       0       0       0
       0       0       0       0       0       0       0       0       0       0
       0       0       0       0       0       0       0       0       0       0
       0       0       0       0       0       0       0       0       0       0
       0       0       0       0       0       0       0       0       0       0
       0       0       0       0       0       0       0       0       0       0
       0       0       0       0       0       0       0       0       0       0
       0       0       0       0       0       0       0       0       0       0
       0       0       0       0       0       0       0       0       0       0
       0       0       0       0       0       0       0       0       0       0
       0       0       0       0       0       0       0       0       0       0
       0       0       0       0       0       0       0       0       0       0
       0       0       0       0       0       0       0       0       0       0
       0       0       0       0       0       0       0       0       0       0
       0       0       0       0       0       0       0       0       0       0
       0       0       0       0       0       0       0       0       0       0
       0       0       0       0       0       0       0       0       0       0
       0       0       0       0       0       0       0       0       0       0
       0       0       0       0       0       0       0       0       0       0
       0       0       0       0       0       0       0       0       0       0
       0       0       0       0       0       0       0       0       0       0
       0       0       0       0       0       0       0       0       0       0
       0       0       0       0       0       0       0       0       0       0
       0       0       0       0       0       0       0       0       0       0
       0       0       0       0       0       0       0       0       0       0
       0       0       0       0       0       0       0       0       0       0
       0       0       0       0       0       0       0       0       0       0
       0       0       0       0       0       0       0       0       0       0
       0       0       0       0       0       0       0       0       0       0
       0       0       0       0       0       0       0       0       0       0
       0       0       0       0       0       0       0       0       0       0
       0       0       0       0       0       0       0       0       0       0
       0       0       0       0       0       0       0       0       0       0
       0       0       0       0       0       0       0       0       0       0
       0       0       0       0       0       0       0       0       0       0
       0       0       0       0       0       0       0       0       0       0
       0       0       0       0       0       0       0       0       0       0
       0       0       0       0       0       0       0       0       0       0
       0       0       0       0       0       0       0       0       0       0
       0       0       0       0       0       0       0       0       0       0
       0       0       0       0       0       0       0       0       0       0
       0       0       0       0       0       0       0       0       0       0
       0       0       0       0       0       0       0       0       0       0
       0       0       0       0       0       0       0       0       0       0
       0       0       0       0       0       0       0       0       0       0
       0       0       0       0       0       0       0       0       0       0
       0       0       0       0       0       0       0       0       0       0
       0       0       0       0       0       0       0       0       0       0
       0       0       0       0       0       0       0       0       0       0
       0       0       0       0       0       0       0       0       0       0
       0       0       0       0       0       0       0       0       0       0
       0       0       0       0       0       0       0       0       0       0
       0       0       0       0       0       0       0       0       0       0
       0       0       0       0       0       0       0       0       0       0
       0       0       0       0       0       0       0       0       0       0
       0       0       0       0       0       0       0       0       0       0
       0       0       0       0       0       0       0       0       0       0
       0       0       0       0       0       0       0       0       0       0
       0       0       0       0       0       0       0       0       0       0
       0       0       0       0       0       0       0       0       0       0
       0       0       0       0       0       0       0       0       0       0
       0       0       0       0       0       0       0       0       0       0
       0       0       0       0       0       0       0       0       0       0
       0       0       0       0       0       0       0       0       0       0
       0       0       0       0       0       0       0       0       0       0
       0       0       0       0       0       0       0       0       0       0
       0       0       0       0       0       0       0       0       0       0
       0       0       0       0       0       0       0       0       0       0
       0       0       0       0       0       0       0       0       0       0
       0       0       0       0       0       0       0       0       0       0
       0       0       0       0       0       0       0       0       0       0
       0       0       0       0       0       0       0       0       0       0
       0       0       0       0       0       0       0       0       0       0
       0       0       0       0       0       0       0       0       0       0
       0       0       0       0       0       0       0       0       0       0
       0       0       0       0       0       0       0       0       0       0
       0       0       0       0       0       0       0       0       0       0
       0       0       0       0       0       0       0       0       0       0
       0       0       0       0       0       0       0       0       0       0
       0       0       0       0       0       0       0       0       0       0
       0       0       0       0       0       0       0       0       0       0
       0       0       0       0       0       0       0       0       0       0
       0       0       0       0       0       0       0       0       0       0
       0       0       0       0       0       0       0       0       0       0
       0       0       0       0       0       0       0       0       0       0
       0       0       0       0       0       0       0       0       0       0
       0       0       0       0       0       0       0       0       0       0
       0       0       0       0       0       0       0       0       0       0
       0       0       0       0       0       0       0       0       0       0
       0       0       0       0       0       0       0       0       0       0
       0       0       0       0       0       0       0       0       0       0
       0       0       0       0       0       0       0       0       0       0
       0       0       0       0       0       0       0       0       0       0
       0       0       0       0       0       0       0       0       0       0
       0       0       0       0       0       0       0       0       0       0
       0       0       0       0       0       0       0       0       0       0
       0       0       0       0       0       0       0       0       0       0
       0       0       0       0       0       0       0       0       0       0
       0       0       0       0       0       0       0       0       0       0
       0       0       0       0       0       0       0       0       0       0
       0       0       0       0       0       0       0       0       0       0
       0       0       0       0       0       0       0       0       0       0
       0       0       0       0       0       0       0       0       0       0
       0       0       0       0       0       0       0       0       0       0
       0       0       0       0       0       0       0       0       0       0
       0       0       0       0       0       0       0       0       0       0
       0       0       0       0       0       0       0       0       0       0
       0       0       0       0       0       0       0       0       0       0
       0       0       0       0       0       0       0       0       0       0
       0       0       0       0       0       0       0       0       0       0
       0       0       0       0       0       0       0       0       0       0
       0       0       0       0       0       0       0       0       0       0
       0       0       0       0       0       0       0       0       0       0
       0       0       0       0       0       0       0       0       0       0
       0       0       0       0       0       0       0       0       0       0
       0       0       0       0       0       0       0       0       0       0
       0       0       0       0       0       0       0       0       0       0
       0       0       0       0       0       0       0       0       0       0
       0       0       0       0       0       0       0       0       0       0
       0       0       0       0       0       0       0       0       0       0
       0       0       0       0       0       0       0       0       0       0
       0       0       0       0       0       0       0       0       0       0
       0       0       0       0       0       0       0       0       0       0
       0       0       0       0       0       0       0       0       0       0
       0       0       0       0       0       0       0       0       0       0
       0       0       0       0       0       0       0       0       0       0
       0       0       0       0       0       0       0       0       0       0
       0       0       0       0       0       0       0       0       0       0
       0       0       0       0       0       0       0       0       0       0
       0       0       0       0       0       0       0       0       0       0
       0       0       0       0       0       0       0       0       0       0
       0       0       0       0       0       0       0       0       0       0
       0       0       0       0       0       0       0       0       0       0
       0       0       0       0       0       0       0       0       0       0
       0       0       0       0       0       0       0       0       0       0
       0       0       0       0       0       0       0       0       0       0
       0       0       0       0       0       0       0       0       0       0
       0       0       0       0       0       0       0       0       0       0
       0       0       0       0       0       0       0       0       0       0
       0       0       0       0       0       0       0       0       0       0
       0       0       0       0       0       0       0       0       0       0
       0       0       0       0       0       0       0       0       0       0
       0       0       0       0       0       0       0       0       0       0
       0       0       0       0       0       0       0       0       0       0
       0       0       0       0       0       0       0       0       0       0
       0       0       0       0       0       0       0       0       0       0
       0       0       0       0       0       0       0       0       0       0
       0       0       0       0       0       0       0       0       0       0
       0       0       0       0       0       0       0       0       0       0
       0       0       0       0       0       0       0       0       0       0
       0       0       0       0       0       0       0       0       0       0
       0       0       0       0       0       0       0       0       0       0
       0       0       0       0       0       0       0       0       0       0
       0       0       0       0       0       0       0       0       0       0
       0       0       0       0       0       0       0       0       0       0
       0       0       0       0       0       0       0       0       0       0
       0       0       0       0       0       0       0       0       0       0
       0       0       0       0       0       0       0       0       0       0
       0       0       0       0       0       0       0       0       0       0
       0       0       0       0       0       0       0       0       0       0
       0       0       0       0       0       0       0       0       0       0
       0       0       0       0       0       0       0       0       0       0
       0       0       0       0       0       0       0       0       0       0
       0       0       0       0       0       0       0       0       0       0
       0       0       0       0       0       0       0       0       0       0
       0       0       0       0       0       0       0       0       0       0
       0       0       0       0       0       0       0       0       0       0
       0       0       0       0       0       0       0       0       0       0
       0       0       0       0       0       0       0       0       0       0
       0       0       0       0       0       0       0       0       0       0
       0       0       0       0       0       0       0       0       0       0
       0       0       0       0       0       0       0       0       0       0
       0       0       0       0       0       0       0       0       0       0
       0       0       0       0       0       0       0       0       0       0
       0       0       0       0       0       0       0       0       0       0
       0       0       0       0       0       0       0       0       0       0
       0       0       0       0       0       0       0       0       0       0
       0       0       0       0       0       0       0       0       0       0
       0       0       0       0       0       0       0       0       0       0
       0       0       0       0       0       0       0       0       0       0
       0       0       0       0       0       0       0       0       0       0
       0       0       0       0       0       0       0       0       0       0
       0       0       0       0       0       0       0       0       0       0
       0       0       0       0       0       0       0       0       0       0
       0       0       0       0       0       0       0       0       0       0
       0       0       0       0       0       0       0       0       0       0
       0       0       0       0       0       0       0       0       0       0
       0       0       0       0       0       0       0       0       0       0
       0       0       0       0       0       0       0       0       0       0
       0       0       0       0       0       0       0       0       0       0
       0       0       0       0       0       0       0       0       0       0
       0       0       0       0       0       0       0       0       0       0
       0       0       0       0       0       0       0       0       0       0
       0       0       0       0       0       0       0       0       0       0
       0       0       0       0       0       0       0       0       0       0
       0       0       0       0       0       0       0       0       0       0
       0       0       0       0       0       0       0       0       0       0
       0       0       0       0       0       0       0       0       0       0
       0       0       0       0       0       0       0       0       0       0
       0       0       0       0       0       0       0       0       0       0
       0       0       0       0       0       0       0       0       0       0
       0       0       0       0       0       0       0       0       0       0
       0       0       0       0       0       0       0       0       0       0
       0       0       0       0       0       0       0       0       0       0
       0       0       0       0       0       0       0       0       0       0
       0       0       0       0       0       0       0       0       0       0
       0       0       0       0       0       0       0       0       0       0
       0       0       0       0       0       0       0       0       0       0
       0       0       0       0       0       0       0       0       0       0
       0       0       0       0       0       0       0       0       0       0
       0       0       0       0       0       0       0       0       0       0
       0       0       0       0       0       0       0       0       0       0
       0       0       0       0       0       0       0       0       0       0
       0       0       0       0       0       0       0       0       0       0
       0       0       0       0       0       0       0       0       0       0
       0       0       0       0       0       0       0       0       0       0
       0       0       0       0       0       0       0       0       0       0
       0       0       0       0       0       0       0       0       0       0
       0       0       0       0       0       0       0       0       0       0
       0       0       0       0       0       0       0       0       0       0
       0       0       0       0       0       0       0       0       0       0
       0       0       0       0       0       0       0       0       0       0
       0       0       0       0       0       0       0       0       0       0
       0       0       0       0       0       0       0       0       0       0
       0       0       0       0       0       0       0       0       0       0
       0       0       0       0       0       0       0       0       0       0
       0       0       0       0       0       0       0       0       0       0
       0       0       0       0       0       0       0       0       0       0
       0       0       0       0       0       0       0       0       0       0
       0       0       0       0       0       0       0       0       0       0
       0       0       0       0       0       0       0       0       0       0
       0       0       0       0       0       0       0       0       0       0
       0       0       0       0       0       0       0       0       0       0
       0       0       0       0       0       0       0       0       0       0
       0       0       0       0       0       0       0       0       0       0
       0       0       0       0       0       0       0       0       0       0
       0       0       0       0       0       0       0       0       0       0
       0       0       0       0       0       0       0       0       0       0
       0       0       0       0       0       0       0       0       0       0
       0       0       0       0       0       0       0       0       0       0
       0       0       0       0       0       0       0       0       0       0
       0       0       0       0       0       0       0       0       0       0
       0       0       0       0       0       0       0       0       0       0
       0       0       0       0       0       0       0       0       0       0
       0       0       0       0       0       0       0       0       0       0
       0       0       0       0       0       0       0       0       0       0
       0       0       0       0       0       0       0       0       0       0
       0       0       0       0       0       0       0       0       0       0
       0       0       0       0       0       0       0       0       0       0
       0       0       0       0       0       0       0       0       0       0
       0       0       0       0       0       0       0       0       0       0
       0       0       0       0       0       0       0       0       0       0
       0       0       0       0       0       0       0       0       0       0
       0       0       0       0       0       0       0       0       0       0
       0       0       0       0       0       0       0       0       0       0
       0       0       0       0       0       0       0       0       0       0
       0       0       0       0       0       0       0       0       0       0
       0       0       0       0       0       0       0       0       0       0
       0       0       0       0       0       0       0       0       0       0
       0       0       0       0       0       0       0       0       0       0
       0       0       0       0       0       0       0       0       0       0
       0       0       0       0       0       0       0       0       0       0
       0       0       0       0       0       0       0       0       0       0
       0       0       0       0       0       0       0       0       0       0
       0       0       0       0       0       0       0       0       0       0
       0       0       0       0       0       0       0       0       0       0
       0       0       0       0       0       0       0       0       0       0
       0       0       0       0       0       0       0       0       0       0
       0       0       0       0       0       0       0       0       0       0
       0       0       0       0       0       0       0       0       0       0
       0       0       0       0       0       0       0       0       0       0
       0       0       0       0       0       0       0       0       0       0
       0       0       0       0       0       0       0       0       0       0
       0       0       0       0       0       0       0       0       0       0
       0       0       0       0       0       0       0       0       0       0
       0       0       0       0       0       0       0       0       0       0
       0       0       0       0       0       0       0       0       0       0
       0       0       0       0       0       0       0       0       0       0
       0       0       0       0       0       0       0       0       0       0
       0       0       0       0       0       0       0       0       0       0
       0       0       0       0       0       0       0       0       0       0
       0       0       0       0       0       0       0       0       0       0
       0       0       0       0       0       0       0       0       0       0
       0       0       0       0       0       0       0       0       0       0
       0       0       0       0       0       0       0       0       0       0
       0       0       0       0       0       0       0       0       0       0
       0       0       0       0       0       0       0       0       0       0
       0       0       0       0       0       0       0       0       0       0
       0       0       0       0       0       0       0       0       0       0
       0       0       0       0       0       0       0       0       0       0
       0       0       0       0       0       0       0       0       0       0
       0       0       0       0       0       0       0       0       0       0
       0       0       0       0       0       0       0       0       0       0
       0       0       0       0       0       0       0       0       0       0
       0       0       0       0       0       0       0       0       0       0
       0       0       0       0       0       0       0       0       0       0
       0       0       0       0       0       0       0       0       0       0
       0       0       0       0       0       0       0       0       0       0
       0       0       0       0       0       0       0       0       0       0
       0       0       0       0       0       0       0       0       0       0
       0       0       0       0       0       0       0       0       0       0
       0       0       0       0       0       0       0       0       0       0
       0       0       0       0       0       0       0       0       0       0
       0       0       0       0       0       0       0       0       0       0
       0       0       0       0       0       0       0       0       0       0
       0       0       0       0       0       0       0       0       0       0
       0       0       0       0       0       0       0       0       0       0
       0       0       0       0       0       0       0       0       0       0
       0       0       0       0       0       0       0       0       0       0
       0       0       0       0       0       0       0       0       0       0
       0       0       0       0       0       0       0       0       0       0
       0       0       0       0       0       0       0       0       0       0
       0       0       0       0       0       0       0       0       0       0
       0       0       0       0       0       0       0       0       0       0
       0       0       0       0       0       0       0       0       0       0
       0       0       0       0       0       0       0       0       0       0
       0       0       0       0       0       0       0       0       0       0
       0       0       0       0       0       0       0       0       0       0
       0       0       0       0       0       0       0       0       0       0
       0       0       0       0       0       0       0       0       0       0
       0       0       0       0       0       0       0       0       0       0
       0       0       0       0       0       0       0       0       0       0
       0       0       0       0       0       0       0       0       0       0
       0       0       0       0       0       0       0       0       0       0
       0       0       0       0       0       0       0       0       0       0
       0       0       0       0       0       0       0       0       0       0
       0       0       0       0       0       0       0       0       0       0
       0       0       0       0       0       0       0       0       0       0
       0       0       0       0       0       0       0       0       0       0
       0       0       0       0       0       0       0       0       0       0
       0       0       0       0       0       0       0       0       0       0
       0       0       0       0       0       0       0       0       0       0
       0       0       0       0       0       0       0       0       0       0
       0       0       0       0       0       0       0       0       0       0
       0       0       0       0       0       0       0       0       0       0
       0       0       0       0       0       0       0       0       0       0
       0       0       0       0       0       0       0       0       0       0
       0       0       0       0       0       0       0       0       0       0
       0       0       0       0       0       0       0       0       0       0
       0       0       0       0       0       0       0       0       0       0
       0       0       0       0       0       0       0       0       0       0
       0       0       0       0       0       0       0       0       0       0
       0       0       0       0       0       0       0       0       0       0
       0       0       0       0       0       0       0       0       0       0
       0       0       0       0       0       0       0       0       0       0
       0       0       0       0       0       0       0       0       0       0
       0       0       0       0       0       0       0       0       0       0
       0       0       0       0       0       0       0       0       0       0
       0       0       0       0       0       0       0       0       0       0
       0       0       0       0       0       0       0       0       0       0
       0       0       0       0       0       0       0       0       0       0
       0       0       0       0       0       0       0       0       0       0
       0       0       0       0       0       0       0       0       0       0
       0       0       0       0       0       0       0       0       0       0
       0       0       0       0       0       0       0       0       0       0
       0       0       0       0       0       0       0       0       0       0
       0       0       0       0       0       0       0       0       0       0
       0       0       0       0       0       0       0       0       0       0
       0       0       0       0       0       0       0       0       0       0
       0       0       0       0       0       0       0       0       0       0
       0       0       0       0       0       0       0       0       0       0
       0       0       0       0       0       0       0       0       0       0
       0       0       0       0       0       0       0       0       0       0
       0       0       0       0       0       0       0       0       0       0
       0       0       0       0       0       0       0       0       0       0
       0       0       0       0       0       0       0       0       0       0
       0       0       0       0       0       0       0       0       0       0
       0       0       0       0       0       0       0       0       0       0
       0       0       0       0       0       0       0       0       0       0
       0       0       0       0       0       0       0       0       0       0
       0       0       0       0       0       0       0       0       0       0
       0       0       0       0       0       0       0       0       0       0
       0       0       0       0       0       0       0       0       0       0
       0       0       0       0       0       0       0       0       0       0
       0       0       0       0       0       0       0       0       0       0
       0       0       0       0       0       0       0       0       0       0
       0       0       0       0       0       0       0       0       0       0
       0       0       0       0       0       0       0       0       0       0
       0       0       0       0       0       0       0       0       0       0
       0       0       0       0       0       0       0       0       0       0
       0       0       0       0       0       0       0       0       0       0
       0       0       0       0       0       0       0       0       0       0
       0       0       0       0       0       0       0       0       0       0
       0       0       0       0       0       0       0       0       0       0
       0       0       0       0       0       0       0       0       0       0
       0       0       0       0       0       0       0       0       0       0
       0       0       0       0       0       0       0       0       0       0
       0       0       0       0       0       0       0       0       0       0
       0       0       0       0       0       0       0       0       0       0
       0       0       0       0       0       0       0       0       0       0
       0       0       0       0       0       0       0       0       0       0
       0       0       0       0       0       0       0       0       0       0
       0       0       0       0       0       0       0       0       0       0
       0       0       0       0       0       0       0       0       0       0
       0       0       0       0       0       0       0       0       0       0
       0       0       0       0       0       0       0       0       0       0
       0       0       0       0       0       0       0       0       0       0
       0       0       0       0       0       0       0       0       0       0
       0       0       0       0       0       0       0       0       0       0
       0       0       0       0       0       0       0       0       0       0
       0       0       0       0       0       0       0       0       0       0
       0       0       0       0       0       0       0       0       0       0
       0       0       0       0       0       0       0       0       0       0
       0       0       0       0       0       0       0       0       0       0
       0       0       0       0       0       0       0       0       0       0
       0       0       0       0       0       0       0       0       0       0
       0       0       0       0       0       0       0       0       0       0
       0       0       0       0       0       0       0       0       0       0
       0       0       0       0       0       0       0       0       0       0
       0       0       0       0       0       0       0       0       0       0
       0       0       0       0       0       0       0       0       0       0
       0       0       0       0       0       0       0       0       0       0
       0       0       0       0       0       0       0       0       0       0
       0       0       0       0       0       0       0       0       0       0
       0       0       0       0       0       0       0       0       0       0
       0       0       0       0       0       0       0       0       0       0
       0       0       0       0       0       0       0       0       0       0
       0       0       0       0       0       0       0       0       0       0
       0       0       0       0       0       0       0       0       0       0
       0       0       0       0       0       0       0       0       0       0
       0       0       0       0       0       0       0       0       0       0
       0       0       0       0       0       0       0       0       0       0
       0       0       0       0       0       0       0       0       0       0
       0       0       0       0       0       0       0       0       0       0
       0       0       0       0       0       0       0       0       0       0
       0       0       0       0       0       0       0       0       0       0
       0       0       0       0       0       0       0       0       0       0
       0       0       0       0       0       0       0       0       0       0
       0       0       0       0       0       0       0       0       0       0
       0       0       0       0       0       0       0       0       0       0
       0       0       0       0       0       0       0       0       0       0
       0       0       0       0       0       0       0       0       0       0
       0       0       0       0       0       0       0       0       0       0
       0       0       0       0       0       0       0       0       0       0
       0       0       0       0       0       0       0       0       0       0
       0       0       0       0       0       0       0       0       0       0
       0       0       0       0       0       0       0       0       0       0
       0       0       0       0       0       0       0       0       0       0
       0       0       0       0       0       0       0       0       0       0
       0       0       0       0       0       0       0       0       0       0
       0       0       0       0       0       0       0       0       0       0
       0       0       0       0       0       0       0       0       0       0
       0       0       0       0       0       0       0       0       0       0
       0       0       0       0       0       0       0       0       0       0
       0       0       0       0       0       0       0       0       0       0
       0       0       0       0       0       0       0       0       0       0
       0       0       0       0       0       0       0       0       0       0
       0       0       0       0       0       0       0       0       0       0
       0       0       0       0       0       0       0       0       0       0
       0       0       0       0       0       0       0       0       0       0
       0       0       0       0       0       0       0       0       0       0
       0       0       0       0       0       0       0       0       0       0
       0       0       0       0       0       0       0       0       0       0
       0       0       0       0       0       0       0       0       0       0
       0       0       0       0       0       0       0       0       0       0
       0       0       0       0       0       0       0       0       0       0
       0       0       0       0       0       0       0       0       0       0
       0       0       0       0       0       0       0       0       0       0
       0       0       0       0       0       0       0       0       0       0
       0       0       0       0       0       0       0       0       0       0
       0       0       0       0       0       0       0       0       0       0
       0       0       0       0       0       0       0       0       0       0
       0       0       0       0       0       0       0       0       0       0
       0       0       0       0       0       0       0       0       0       0
       0       0       0       0       0       0       0       0       0       0
       0       0       0       0       0       0       0       0       0       0
       0       0       0       0       0       0       0       0       0       0
       0       0       0       0       0       0       0       0       0       0
       0       0       0       0       0       0       0       0       0       0
       0       0       0       0       0       0       0       0       0       0
       0       0       0       0       0       0       0       0       0       0
       0       0       0       0       0       0       0       0       0       0
       0       0       0       0       0       0       0       0       0       0
       0       0       0       0       0       0       0       0       0       0
       0       0       0       0       0       0       0       0       0       0
       0       0       0       0       0       0       0       0       0       0
       0       0       0       0       0       0       0       0       0       0
       0       0       0       0       0       0       0       0       0       0
       0       0       0       0       0       0       0       0       0       0
       0       0       0       0       0       0       0       0       0       0
       0       0       0       0       0       0       0       0       0       0
       0       0       0       0       0       0       0       0       0       0
       0       0       0       0       0       0       0       0       0       0
       0       0       0       0       0       0       0       0       0       0
       0       0       0       0       0       0       0       0       0       0
       0       0       0       0       0       0       0       0       0       0
       0       0       0       0       0       0       0       0       0       0
       0       0       0       0       0       0       0       0       0       0
       0       0       0       0       0       0       0       0       0       0
       0       0       0       0       0       0       0       0       0       0
       0       0       0       0       0       0       0       0       0       0
       0       0       0       0       0       0       0       0       0       0
       0       0       0       0       0       0       0       0       0       0
       0       0       0       0       0       0       0       0       0       0
       0       0       0       0       0       0       0       0       0       0
       0       0       0       0       0       0       0       0       0       0
       0       0       0       0       0       0       0       0       0       0
       0       0       0       0       0       0       0       0       0       0
       0       0       0       0       0       0       0       0       0       0
       0       0       0       0       0       0       0       0       0       0
       0       0       0       0       0       0       0       0       0       0
       0       0       0       0       0       0       0       0       0       0
       0       0       0       0       0       0       0       0       0       0
       0       0       0       0       0       0       0       0       0       0
       0       0       0       0       0       0       0       0       0       0
       0       0       0       0       0       0       0       0       0       0
       0       0       0       0       0       0       0       0       0       0
       0       0       0       0       0       0       0       0       0       0
       0       0       0       0       0       0       0       0       0       0
       0       0       0       0       0       0       0       0       0       0
       0       0       0       0       0       0       0       0       0       0
       0       0       0       0       0       0       0       0       0       0
       0       0       0       0       0       0       0       0       0       0
       0       0       0       0       0       0       0       0       0       0
       0       0       0       0       0       0       0       0       0       0
       0       0       0       0       0       0       0       0       0       0
       0       0       0       0       0       0       0       0       0       0
       0       0       0       0       0       0       0       0       0       0
       0       0       0       0       0       0       0       0       0       0
       0       0       0       0       0       0       0       0       0       0
       0       0       0       0       0       0       0       0       0       0
       0       0       0       0       0       0       0       0       0       0
       0       0       0       0       0       0       0       0       0       0
       0       0       0       0       0       0       0       0       0       0
       0       0       0       0       0       0       0       0       0       0
       0       0       0       0       0       0       0       0       0       0
       0       0       0       0       0       0       0       0       0       0
       0       0       0       0       0       0       0       0       0       0
       0       0       0       0       0       0       0       0       0       0
       0       0       0       0       0       0       0       0       0       0
       0       0       0       0       0       0       0       0       0       0
       0       0       0       0       0       0       0       0       0       0
       0       0       0       0       0       0       0       0       0       0
       0       0       0       0       0       0       0       0       0       0
       0       0       0       0       0       0       0       0       0       0
       0       0       0       0       0       0       0       0       0       0
       0       0       0       0       0       0       0       0       0       0
       0       0       0       0       0       0       0       0       0       0
       0       0       0       0       0       0       0       0       0       0
       0       0       0       0       0       0       0       0       0       0
       0       0       0       0       0       0       0       0       0       0
       0       0       0       0       0       0       0       0       0       0
       0       0       0       0       0       0       0       0       0       0
       0       0       0       0       0       0       0       0       0       0
       0       0       0       0       0       0       0       0       0       0
       0       0       0       0       0       0       0       0       0       0
       0       0       0       0       0       0       0       0       0       0
       0       0       0       0       0       0       0       0       0       0
       0       0       0       0       0       0       0       0       0       0
       0       0       0       0       0       0       0       0       0       0
       0       0       0       0       0       0       0       0       0       0
       0       0       0       0       0       0       0       0       0       0
       0       0       0       0       0       0       0       0       0       0
       0       0       0       0       0       0       0       0       0       0
       0       0       0       0       0       0       0       0       0       0
       0       0       0       0       0       0       0       0       0       0
       0       0       0       0       0       0       0       0       0       0
       0       0       0       0       0       0       0       0       0       0
       0       0       0       0       0       0       0       0       0       0
       0       0       0       0       0       0       0       0       0       0
       0       0       0       0       0       0       0       0       0       0
       0       0       0       0       0       0       0       0       0       0
       0       0       0       0       0       0       0       0       0       0
       0       0       0       0       0       0       0       0       0       0
       0       0       0       0       0       0       0       0       0       0
       0       0       0       0       0       0       0       0       0       0
       0       0       0       0       0       0       0       0       0       0
       0       0       0       0       0       0       0       0       0       0
       0       0       0       0       0       0       0       0       0       0
       0       0       0       0       0       0       0       0       0       0
       0       0       0       0       0       0       0       0       0       0
       0       0       0       0       0       0       0       0       0       0
       0       0       0       0       0       0       0       0       0       0
       0       0       0       0       0       0       0       0       0       0
       0       0       0       0       0       0       0       0       0       0
       0       0       0       0       0       0       0       0       0       0
       0       0       0       0       0       0       0       0       0       0
       0       0       0       0       0       0       0       0       0       0
       0       0       0       0       0       0       0       0       0       0
       0       0       0       0       0       0       0       0       0       0
       0       0       0       0       0       0       0       0       0       0
       0       0       0       0       0       0       0       0       0       0
       0       0       0       0       0       0       0       0       0       0
       0       0       0       0       0       0       0       0       0       0
       0       0       0       0       0       0       0       0       0       0
       0       0       0       0       0       0       0       0       0       0
       0       0       0       0       0       0       0       0       0       0
       0       0       0       0       0       0       0       0       0       0
       0       0       0       0       0       0       0       0       0       0
       0       0       0       0       0       0       0       0       0       0
       0       0       0       0       0       0       0       0       0       0
       0       0       0       0       0       0       0       0       0       0
       0       0       0       0       0       0       0       0       0       0
       0       0       0       0       0       0       0       0       0       0
       0       0       0       0       0       0       0       0       0       0
       0       0       0       0       0       0       0       0       0       0
       0       0       0       0       0       0       0       0       0       0
       0       0       0       0       0       0       0       0       0       0
       0       0       0       0       0       0       0       0       0       0
       0       0       0       0       0       0       0       0       0       0
       0       0       0       0       0       0       0       0       0       0
       0       0       0       0       0       0       0       0       0       0
       0       0       0       0       0       0       0       0       0       0
       0       0       0       0       0       0       0       0       0       0
       0       0       0       0       0       0       0       0       0       0
       0       0       0       0       0       0       0       0       0       0
       0       0       0       0       0       0       0       0       0       0
       0       0       0       0       0       0       0       0       0       0
       0       0       0       0       0       0       0       0       0       0
       0       0       0       0       0       0       0       0       0       0
       0       0       0       0       0       0       0       0       0       0
       0       0       0       0       0       0       0       0       0       0
       0       0       0       0       0       0       0       0       0       0
       0       0       0       0       0       0       0       0       0       0
       0       0       0       0       0       0       0       0       0       0
       0       0       0       0       0       0       0       0       0       0
       0       0       0       0       0       0       0       0       0       0
       0       0       0       0       0       0       0       0       0       0
       0       0       0       0       0       0       0       0       0       0
       0       0       0       0       0       0       0       0       0       0
       0       0       0       0       0       0       0       0       0       0
       0       0       0       0       0       0       0       0       0       0
       0       0       0       0       0       0       0       0       0       0
       0       0       0       0       0       0       0       0       0       0
       0       0       0       0       0       0       0       0       0       0
       0       0       0       0       0       0       0       0       0       0
       0       0       0       0       0       0       0       0       0       0
       0       0       0       0       0       0       0       0       0       0
       0       0       0       0       0       0       0       0       0       0
       0       0       0       0       0       0       0       0       0       0
       0       0       0       0       0       0       0       0       0       0
       0       0       0       0       0       0       0       0       0       0
       0       0       0       0       0       0       0       0       0       0
       0       0       0       0       0       0       0       0       0       0
       0       0       0       0       0       0       0       0       0       0
       0       0       0       0       0       0       0       0       0       0
       0       0       0       0       0       0       0       0       0       0
       0       0       0       0       0       0       0       0       0       0
       0       0       0       0       0       0       0       0       0       0
       0       0       0       0       0       0       0       0       0       0
       0       0       0       0       0       0       0       0       0       0
       0       0       0       0       0       0       0       0       0       0
       0       0       0       0       0       0       0       0       0       0
       0       0       0       0       0       0       0       0       0       0
       0       0       0       0       0       0       0       0       0       0
       0       0       0       0       0       0       0       0       0       0
       0       0       0       0       0       0       0       0       0       0
       0       0       0       0       0       0       0       0       0       0
       0       0       0       0       0       0       0       0       0       0
       0       0       0       0       0       0       0       0       0       0
       0       0       0       0       0       0       0       0       0       0
       0       0       0       0       0       0       0       0       0       0
       0       0       0       0       0       0       0       0       0       0
       0       0       0       0       0       0       0       0       0       0
       0       0       0       0       0       0       0       0       0       0
       0       0       0       0       0       0       0       0       0       0
       0       0       0       0       0       0       0       0       0       0
       0       0       0       0       0       0       0       0       0       0
       0       0       0       0       0       0       0       0       0       0
       0       0       0       0       0       0       0       0       0       0
       0       0       0       0       0       0       0       0       0       0
       0       0       0       0       0       0       0       0       0       0
       0       0       0       0       0       0       0       0       0       0
       0       0       0       0       0       0       0       0       0       0
       0       0       0       0       0       0       0       0       0       0
       0       0       0       0       0       0       0       0       0       0
       0       0       0       0       0       0       0       0       0       0
       0       0       0       0       0       0       0       0       0       0
       0       0       0       0       0       0       0       0       0       0
       0       0       0       0       0       0       0       0       0       0
       0       0       0       0       0       0       0       0       0       0
       0       0       0       0       0       0       0       0       0       0
       0       0       0       0       0       0       0       0       0       0
       0       0       0       0       0       0       0       0       0       0
       0       0       0       0       0       0       0       0       0       0
       0       0       0       0       0       0       0       0       0       0
       0       0       0       0       0       0       0       0       0       0
       0       0       0       0       0       0       0       0       0       0
       0       0       0       0       0       0       0       0       0       0
       0       0       0       0       0       0       0       0       0       0
       0       0       0       0       0       0       0       0       0       0
       0       0       0       0       0       0       0       0       0       0
       0       0       0       0       0       0       0       0       0       0
       0       0       0       0       0       0       0       0       0       0
       0       0       0       0       0       0       0       0       0       0
       0       0       0       0       0       0       0       0       0       0
       0       0       0       0       0       0       0       0       0       0
       0       0       0       0       0       0       0       0       0       0
       0       0       0       0       0       0       0       0       0       0
       0       0       0       0       0       0       0       0       0       0
       0       0       0       0       0       0       0       0       0       0
       0       0       0       0       0       0       0       0       0       0
       0       0       0       0       0       0       0       0       0       0
       0       0       0       0       0       0       0       0       0       0
       0       0       0       0       0       0       0       0       0       0
       0       0       0       0       0       0       0       0       0       0
       0       0       0       0       0       0       0       0       0       0
       0       0       0       0       0       0       0       0       0       0
       0       0       0       0       0       0       0       0       0       0
       0       0       0       0       0       0       0       0       0       0
       0       0       0       0       0       0       0       0       0       0
       0       0       0       0       0       0       0       0       0       0
       0       0       0       0       0       0       0       0       0       0
       0       0       0       0       0       0       0       0       0       0
       0       0       0       0       0       0       0       0       0       0
       0       0       0       0       0       0       0       0       0       0
       0       0       0       0       0       0       0       0       0       0
       0       0       0       0       0       0       0       0       0       0
       0       0       0       0       0       0       0       0       0       0
       0       0       0       0       0       0       0       0       0       0
       0       0       0       0       0       0       0       0       0       0
       0       0       0       0       0       0       0       0       0       0
       0       0       0       0       0       0       0       0       0       0
       0       0       0       0       0       0       0       0       0       0
       0       0       0       0       0       0       0       0       0       0
       0       0       0       0       0       0       0       0       0       0
       0       0       0       0       0       0       0       0       0       0
       0       0       0       0       0       0       0       0       0       0
       0       0       0       0       0       0       0       0       0       0
       0       0       0       0       0       0       0       0       0       0
       0       0       0       0       0       0       0       0       0       0
       0       0       0       0       0       0       0       0       0       0
       0       0       0       0       0       0       0       0       0       0
       0       0       0       0       0       0       0       0       0       0
       0       0       0       0       0       0       0       0       0       0
       0       0       0       0       0       0       0       0       0       0
       0       0       0       0       0       0       0       0       0       0
       0       0       0       0       0       0       0       0       0       0
       0       0       0       0       0       0       0       0       0       0
       0       0       0       0       0       0       0       0       0       0
       0       0       0       0       0       0       0       0       0       0
       0       0       0       0       0       0       0       0       0       0
       0       0       0       0       0       0       0       0       0       0
       0       0       0       0       0       0       0       0       0       0
       0       0       0       0       0       0       0       0       0       0
       0       0       0       0       0       0       0       0       0       0
       0       0       0       0       0       0       0       0       0       0
       0       0       0       0       0       0       0       0       0       0
       0       0       0       0       0       0       0       0       0       0
       0       0       0       0       0       0       0       0       0       0
       0       0       0       0       0       0       0       0       0       0
       0       0       0       0       0       0       0       0       0       0
       0       0       0       0       0       0       0       0       0       0
       0       0       0       0       0       0       0       0       0       0
       0       0       0       0       0       0       0       0       0       0
       0       0       0       0       0       0       0       0       0       0
       0       0       0       0       0       0       0       0       0       0
       0       0       0       0       0       0       0       0       0       0
       0       0       0       0       0       0       0       0       0       0
       0       0       0       0       0       0       0       0       0       0
       0       0       0       0       0       0       0       0       0       0
       0       0       0       0       0       0       0       0       0       0
       0       0       0       0       0       0       0       0       0       0
       0       0       0       0       0       0       0       0       0       0
       0       0       0       0       0       0       0       0       0       0
       0       0       0       0       0       0       0       0       0       0
       0       0       0       0       0       0       0       0       0       0
       0       0       0       0       0       0       0       0       0       0
       0       0       0       0       0       0       0       0       0       0
       0       0       0       0       0       0       0       0       0       0
       0       0       0       0       0       0       0       0       0       0
       0       0       0       0       0       0       0       0       0       0
       0       0       0       0       0       0       0       0       0       0
       0       0       0       0       0       0       0       0       0       0
       0       0       0       0       0       0       0       0       0       0
       0       0       0       0       0       0       0       0       0       0
       0       0       0       0       0       0       0       0       0       0
       0       0       0       0       0       0       0       0       0       0
       0       0       0       0       0       0       0       0       0       0
       0       0       0       0       0       0       0       0       0       0
       0       0       0       0       0       0       0       0       0       0
       0       0       0       0       0       0       0       0       0       0
       0       0       0       0       0       0       0       0       0       0
       0       0       0       0       0       0       0       0       0       0
       0       0       0       0       0       0       0       0       0       0
       0       0       0       0       0       0       0       0       0       0
       0       0       0       0       0       0       0       0       0       0
       0       0       0       0       0       0       0       0       0       0
       0       0       0       0       0       0       0       0       0       0
       0       0       0       0       0       0       0       0       0       0
       0       0       0       0       0       0       0       0       0       0
       0       0       0       0       0       0       0       0       0       0
       0       0       0       0       0       0       0       0       0       0
       0       0       0       0       0       0       0       0       0       0
       0       0       0       0       0       0       0       0       0       0
       0       0       0       0       0       0       0       0       0       0
       0       0       0       0       0       0       0       0       0       0
       0       0       0       0       0       0       0       0       0       0
       0       0       0       0       0       0       0       0       0       0
       0       0       0       0       0       0       0       0       0       0
       0       0       0       0       0       0       0       0       0       0
       0       0       0       0       0       0       0       0       0       0
       0       0       0       0       0       0       0       0       0       0
       0       0       0       0       0       0       0       0       0       0
       0       0       0       0       0       0       0       0       0       0
       0       0       0       0       0       0       0       0       0       0
       0       0       0       0       0       0       0       0       0       0
       0       0       0       0       0       0       0       0       0       0
       0       0       0       0       0       0       0       0       0       0
       0       0       0       0       0       0       0       0       0       0
       0       0       0       0       0       0       0       0       0       0
       0       0       0       0       0       0       0       0       0       0
       0       0       0       0       0       0       0       0       0       0
       0       0       0       0       0       0       0       0       0       0
       0       0       0       0       0       0       0       0       0       0
       0       0       0       0       0       0       0       0       0       0
       0       0       0       0       0       0       0       0       0       0
       0       0       0       0       0       0       0       0       0       0
       0       0       0       0       0       0       0       0       0       0
       0       0       0       0       0       0       0       0       0       0
       0       0       0       0       0       0       0       0       0       0
       0       0       0       0       0       0       0       0       0       0
       0       0       0       0       0       0       0       0       0       0
       0       0       0       0       0       0       0       0       0       0
       0       0       0       0       0       0       0       0       0       0
       0       0       0       0       0       0       0       0       0       0
       0       0       0       0       0       0       0       0       0       0
       0       0       0       0       0       0       0       0       0       0
       0       0       0       0       0       0       0       0       0       0
       0       0       0       0       0       0       0       0       0       0
       0       0       0       0       0       0       0       0       0       0
       0       0       0       0       0       0       0       0       0       0
       0       0       0       0       0       0       0       0       0       0
       0       0       0       0       0       0       0       0       0       0
       0       0       0       0       0       0       0       0       0       0
       0       0       0       0       0       0       0       0       0       0
       0       0       0       0       0       0       0       0       0       0
       0       0       0       0       0       0       0       0       0       0
       0       0       0       0       0       0       0       0       0       0
       0       0       0       0       0       0       0       0       0       0
       0       0       0       0       0       0       0       0       0       0
       0       0       0       0       0       0       0       0       0       0
       0       0       0       0       0       0       0       0       0       0
       0       0       0       0       0       0       0       0       0       0
       0       0       0       0       0       0       0       0       0       0
       0       0       0       0       0       0       0       0       0       0
       0       0       0       0       0       0       0       0       0       0
       0       0       0       0       0       0       0       0       0       0
       0       0       0       0       0       0       0       0       0       0
       0       0       0       0       0       0       0       0       0       0
       0       0       0       0       0       0       0       0       0       0
       0       0       0       0       0       0       0       0       0       0
       0       0       0       0       0       0       0       0       0       0
       0       0       0       0       0       0       0       0       0       0
       0       0       0       0       0       0       0       0       0       0
       0       0       0       0       0       0       0       0       0       0
       0       0       0       0       0       0       0       0       0       0
       0       0       0       0       0       0       0       0       0       0
       0       0       0       0       0       0       0       0       0       0
       0       0       0       0       0       0       0       0       0       0
       0       0       0       0       0       0       0       0       0       0
       0       0       0       0       0       0       0       0       0       0
       0       0       0       0       0       0       0       0       0       0
       0       0       0       0       0       0       0       0       0       0
       0       0       0       0       0       0       0       0       0       0
       0       0       0       0       0       0       0       0       0       0
       0       0       0       0       0       0       0       0       0       0
       0       0       0       0       0       0       0       0       0       0
       0       0       0       0       0       0       0       0       0       0
       0       0       0       0       0       0       0       0       0       0
       0       0       0       0       0       0       0       0       0       0
       0       0       0       0       0       0       0       0       0       0
       0       0       0       0       0       0       0       0       0       0
       0       0       0       0       0       0       0       0       0       0
       0       0       0       0       0       0       0       0       0       0
       0       0       0       0       0       0       0       0       0       0
       0       0       0       0       0       0       0       0       0       0
       0       0       0       0       0       0       0       0       0       0
       0       0       0       0       0       0       0       0       0       0
       0       0       0       0       0       0       0       0       0       0
       0       0       0       0       0       0       0       0       0       0
       0       0       0       0       0       0       0       0       0       0
       0       0       0       0       0       0       0       0       0       0
       0       0       0       0       0       0       0       0       0       0
       0       0       0       0       0       0       0       0       0       0
       0       0       0       0       0       0       0       0       0       0
       0       0       0       0       0       0       0       0       0       0
       0       0       0       0       0       0       0       0       0       0
       0       0       0       0       0       0       0       0       0       0
       0       0       0       0       0       0       0       0       0       0
       0       0       0       0       0       0       0       0       0       0
       0       0       0       0       0       0       0       0       0       0
       0       0       0       0       0       0       0       0       0       0
       0       0       0       0       0       0       0       0       0       0
       0       0       0       0       0       0       0       0       0       0
       0       0       0       0       0       0       0       0       0       0
       0       0       0       0       0       0       0       0       0       0
       0       0       0       0       0       0       0       0       0       0
       0       0       0       0       0       0       0       0       0       0
       0       0       0       0       0       0       0       0       0       0
       0       0       0       0       0       0       0       0       0       0
       0       0       0       0       0       0       0       0       0       0
       0       0       0       0       0       0       0       0       0       0
       0       0       0       0       0       0       0       0       0       0
       0       0       0       0       0       0       0       0       0       0
       0       0       0       0       0       0       0       0       0       0
       0       0       0       0       0       0       0       0       0       0
       0       0       0       0       0       0       0       0       0       0
       0       0       0       0       0       0       0       0       0       0
       0       0       0       0       0       0       0       0       0       0
       0       0       0       0       0       0       0       0       0       0
       0       0       0       0       0       0       0       0       0       0
       0       0       0       0       0       0       0       0       0       0
       0       0       0       0       0       0       0       0       0       0
       0       0       0       0       0       0       0       0       0       0
       0       0       0       0       0       0       0       0       0       0
       0       0       0       0       0       0       0       0       0       0
       0       0       0       0       0       0       0       0       0       0
       0       0       0       0       0       0       0       0       0       0
       0       0       0       0       0       0       0       0       0       0
       0       0       0       0       0       0       0       0       0       0
       0       0       0       0       0       0       0       0       0       0
       0       0       0       0       0       0       0       0       0       0
       0       0       0       0       0       0       0       0       0       0
       0       0       0       0       0       0       0       0       0       0
       0       0       0       0       0       0       0       0       0       0
       0       0       0       0       0       0       0       0       0       0
       0       0       0       0       0       0       0       0       0       0
       0       0       0       0       0       0       0       0       0       0
       0       0       0       0       0       0       0       0       0       0
       0       0       0       0       0       0       0       0       0       0
       0       0       0       0       0       0       0       0       0       0
       0       0       0       0       0       0       0       0       0       0
       0       0       0       0       0       0       0       0       0       0
       0       0       0       0       0       0       0       0       0       0
       0       0       0       0       0       0       0       0       0       0
       0       0       0       0       0       0       0       0       0       0
       0       0       0       0       0       0       0       0       0       0
       0       0       0       0       0       0       0       0       0       0
       0       0       0       0       0       0       0       0       0       0
       0       0       0       0       0       0       0       0       0       0
       0       0       0       0       0       0       0       0       0       0
       0       0       0       0       0       0       0       0       0       0
       0       0       0       0       0       0       0       0       0       0
       0       0       0       0       0       0       0       0       0       0
       0       0       0       0       0       0       0       0       0       0
       0       0       0       0       0       0       0       0       0       0
       0       0       0       0       0       0       0       0       0       0
       0       0       0       0       0       0       0       0       0       0
       0       0       0       0       0       0       0       0       0       0
       0       0       0       0       0       0       0       0       0       0
       0       0       0       0       0       0       0       0       0       0
       0       0       0       0       0       0       0       0       0       0
       0       0       0       0       0       0       0       0       0       0
       0       0       0       0       0       0       0       0       0       0
       0       0       0       0       0       0       0       0       0       0
       0       0       0       0       0       0       0       0       0       0
       0       0       0       0       0       0       0       0       0       0
       0       0       0       0       0       0       0       0       0       0
       0       0       0       0       0       0       0       0       0       0
       0       0       0       0       0       0       0       0       0       0
       0       0       0       0       0       0       0       0       0       0
       0       0       0       0       0       0       0       0       0       0
       0       0       0       0       0       0       0       0       0       0
       0       0       0       0       0       0       0       0       0       0
       0       0       0       0       0       0       0       0       0       0
       0       0       0       0       0       0       0       0       0       0
       0       0       0       0       0       0       0       0       0       0
       0       0       0       0       0       0       0       0       0       0
       0       0       0       0       0       0       0       0       0       0
       0       0       0       0       0       0       0       0       0       0
       0       0       0       0       0       0       0       0       0       0
       0       0       0       0       0       0       0       0       0       0
       0       0       0       0       0       0       0       0       0       0
       0       0       0       0       0       0       0       0       0       0
       0       0       0       0       0       0       0       0       0       0
       0       0       0       0       0       0       0       0       0       0
       0       0       0       0       0       0       0       0       0       0
       0       0       0       0       0       0       0       0       0       0
       0       0       0       0       0       0       0       0       0       0
       0       0       0       0       0       0       0       0       0       0
       0       0       0       0       0       0       0       0       0       0
       0       0       0       0       0       0       0       0       0       0
       0       0       0       0       0       0       0       0       0       0
       0       0       0       0       0       0       0       0       0       0
       0       0       0       0       0       0       0       0       0       0
       0       0       0       0       0       0       0       0       0       0
       0       0       0       0       0       0       0       0       0       0
       0       0       0       0       0       0       0       0       0       0
       0       0       0       0       0       0       0       0       0       0
       0       0       0       0       0       0       0       0       0       0
       0       0       0       0       0       0       0       0       0       0
       0       0       0       0       0       0       0       0       0       0
       0       0       0       0       0       0       0       0       0       0
       0       0       0       0       0       0       0       0       0       0
       0       0       0       0       0       0       0       0       0       0
       0       0       0       0       0       0       0       0       0       0
       0       0       0       0       0       0       0       0       0       0
       0       0       0       0       0       0       0       0       0       0
       0       0       0       0       0       0       0       0       0       0
       0       0       0       0       0       0       0       0       0       0
       0       0       0       0       0       0       0       0       0       0
       0       0       0       0       0       0       0       0       0       0
       0       0       0       0       0       0       0       0       0       0
       0       0       0       0       0       0       0       0       0       0
       0       0       0       0       0       0       0       0       0       0
       0       0       0       0       0       0       0       0       0       0
       0       0       0       0       0       0       0       0       0       0
       0       0       0       0       0       0       0       0       0       0
       0       0       0       0       0       0       0       0       0       0
       0       0       0       0       0       0       0       0       0       0
       0       0       0       0       0       0       0       0       0       0
       0       0       0       0       0       0       0       0       0       0
       0       0       0       0       0       0       0       0       0       0
       0       0       0       0       0       0       0       0       0       0
       0       0       0       0       0       0       0       0       0       0
       0       0       0       0       0       0       0       0       0       0
       0       0       0       0       0       0       0       0       0       0
       0       0       0       0       0       0       0       0       0       0
       0       0       0       0       0       0       0       0       0       0
       0       0       0       0       0       0       0       0       0       0
       0       0       0       0       0       0       0       0       0       0
       0       0       0       0       0       0       0       0       0       0
       0       0       0       0       0       0       0       0       0       0
       0       0       0       0       0       0       0       0       0       0
       0       0       0       0       0       0       0       0       0       0
       0       0       0       0       0       0       0       0       0       0
       0       0       0       0       0       0       0       0       0       0
       0       0       0       0       0       0       0       0       0       0
       0       0       0       0       0       0       0       0       0       0
       0       0       0       0       0       0       0       0       0       0
       0       0       0       0       0       0       0       0       0       0
       0       0       0       0       0       0       0       0       0       0
       0       0       0       0       0       0       0       0       0       0
       0       0       0       0       0       0       0       0       0       0
       0       0       0       0       0       0       0       0       0       0
       0       0       0       0       0       0       0       0       0       0
       0       0       0       0       0       0       0       0       0       0
       0       0       0       0       0       0       0       0       0       0
       0       0       0       0       0       0       0       0       0       0
       0       0       0       0       0       0       0       0       0       0
       0       0       0       0       0       0       0       0       0       0
       0       0       0       0       0       0       0       0       0       0
       0       0       0       0       0       0       0       0       0       0
       0       0       0       0       0       0       0       0       0       0
       0       0       0       0       0       0       0       0       0       0
       0       0       0       0       0       0       0       0       0       0
       0       0       0       0       0       0       0       0       0       0
       0       0       0       0       0       0       0       0       0       0
       0       0       0       0       0       0       0       0       0       0
       0       0       0       0       0       0       0       0       0       0
       0       0       0       0       0       0       0       0       0       0
       0       0       0       0       0       0       0       0       0       0
       0       0       0       0       0       0       0       0       0       0
       0       0       0       0       0       0       0       0       0       0
       0       0       0       0       0       0       0       0       0       0
       0       0       0       0       0       0       0       0       0       0
       0       0       0       0       0       0       0       0       0       0
       0       0       0       0       0       0       0       0       0       0
       0       0       0       0       0       0       0       0       0       0
       0       0       0       0       0       0       0       0       0       0
       0       0       0       0       0       0       0       0       0       0
       0       0       0       0       0       0       0       0       0       0
       0       0       0       0       0       0       0       0       0       0
       0       0       0       0       0       0       0       0       0       0
       0       0       0       0       0       0       0       0       0       0
       0       0       0       0       0       0       0       0       0       0
       0       0       0       0       0       0       0       0       0       0
       0       0       0       0       0       0       0       0       0       0
       0       0       0       0       0       0       0       0       0       0
       0       0       0       0       0       0       0       0       0       0
       0       0       0       0       0       0       0       0       0       0
       0       0       0       0       0       0       0       0       0       0
       0       0       0       0       0       0       0       0       0       0
       0       0       0       0       0       0       0       0       0       0
       0       0       0       0       0       0       0       0       0       0
       0       0       0       0       0       0       0       0       0       0
       0       0       0       0       0       0       0       0       0       0
       0       0       0       0       0       0       0       0       0       0
       0       0       0       0       0       0       0       0       0       0
       0       0       0       0       0       0       0       0       0       0
       0       0       0       0       0       0       0       0       0       0
       0       0       0       0       0       0       0       0       0       0
       0       0       0       0       0       0       0       0       0       0
       0       0       0       0       0       0       0       0       0       0
       0       0       0       0       0       0       0       0       0       0
       0       0       0       0       0       0       0       0       0       0
       0       0       0       0       0       0       0       0       0       0
       0       0       0       0       0       0       0       0       0       0
       0       0       0       0       0       0       0       0       0       0
       0       0       0       0       0       0       0       0       0       0
       0       0       0       0       0       0       0       0       0       0
       0       0       0       0       0       0       0       0       0       0
       0       0       0       0       0       0       0       0       0       0
       0       0       0       0       0       0       0       0       0       0
       0       0       0       0       0       0       0       0       0       0
       0       0       0       0       0       0       0       0       0       0
       0       0       0       0       0       0       0       0       0       0
       0       0       0       0       0       0       0       0       0       0
       0       0       0       0       0       0       0       0       0       0
       0       0       0       0       0       0       0       0       0       0
       0       0       0       0       0       0       0       0       0       0
       0       0       0       0       0       0       0       0       0       0
       0       0       0       0       0       0       0       0       0       0
       0       0       0       0       0       0       0       0       0       0
       0       0       0       0       0       0       0       0       0       0
       0       0       0       0       0       0       0       0       0       0
       0       0       0       0       0       0       0       0       0       0
       0       0       0       0       0       0       0       0       0       0
       0       0       0       0       0       0       0       0       0       0
       0       0       0       0       0       0       0       0       0       0
       0       0       0       0       0       0       0       0       0       0
       0       0       0       0       0       0       0       0       0       0
       0       0       0       0       0       0       0       0       0       0
       0       0       0       0       0       0       0       0       0       0
       0       0       0       0       0       0       0       0       0       0
       0       0       0       0       0       0       0       0       0       0
       0       0       0       0       0       0       0       0       0       0
       0       0       0       0       0       0       0       0       0       0
       0       0       0       0       0       0       0       0       0       0
       0       0       0       0       0       0       0       0       0       0
       0       0       0       0       0       0       0       0       0       0
       0       0       0       0       0       0       0       0       0       0
       0       0       0       0       0       0       0       0       0       0
       0       0       0       0       0       0       0       0       0       0
       0       0       0       0       0       0       0       0       0       0
       0       0       0       0       0       0       0       0       0       0
       0       0       0       0       0       0       0       0       0       0
       0       0       0       0       0       0       0       0       0       0
       0       0       0       0       0       0       0       0       0       0
       0       0       0       0       0       0       0       0       0       0
       0       0       0       0       0       0       0       0       0       0
       0       0       0       0       0       0       0       0       0       0
       0       0       0       0       0       0       0       0       0       0
       0       0       0       0       0       0       0       0       0       0
       0       0       0       0       0       0       0       0       0       0
       0       0       0       0       0       0       0       0       0       0
       0       0       0       0       0       0       0       0       0       0
       0       0       0       0       0       0       0       0       0       0
       0       0       0       0       0       0       0       0       0       0
       0       0       0       0       0       0       0       0       0       0
       0       0       0       0       0       0       0       0       0       0
       0       0       0       0       0       0       0       0       0       0
       0       0       0       0       0       0       0       0       0       0
       0       0       0       0       0       0       0       0       0       0
       0       0       0       0       0       0       0       0       0       0
       0       0       0       0       0       0       0       0       0       0
       0       0       0       0       0       0       0       0       0       0
       0       0       0       0       0       0       0       0       0       0
       0       0       0       0       0       0       0       0       0       0
       0       0       0       0       0       0       0       0       0       0
       0       0       0       0       0       0       0       0       0       0
       0       0       0       0       0       0       0       0       0       0
       0       0       0       0       0       0       0       0       0       0
       0       0       0       0       0       0       0       0       0       0
       0       0       0       0       0       0       0       0       0       0
       0       0       0       0       0       0       0       0       0       0
       0       0       0       0       0       0       0       0       0       0
       0       0       0       0       0       0       0       0       0       0
       0       0       0       0       0       0       0       0       0       0
       0       0       0       0       0       0       0       0       0       0
       0       0       0       0       0       0       0       0       0       0
       0       0       0       0       0       0       0       0       0       0
       0       0       0       0       0       0       0       0       0       0
       0       0       0       0       0       0       0       0       0       0
       0       0       0       0       0       0       0       0       0       0
       0       0       0       0       0       0       0       0       0       0
       0       0       0       0       0       0       0       0       0       0
       0       0       0       0       0       0       0       0       0       0
       0       0       0       0       0       0       0       0       0       0
       0       0       0       0       0       0       0       0       0       0
       0       0       0       0       0       0       0       0       0       0
       0       0       0       0       0       0       0       0       0       0
       0       0       0       0       0       0       0       0       0       0
       0       0       0       0       0       0       0       0       0       0
       0       0       0       0       0       0       0       0       0       0
       0       0       0       0       0       0       0       0       0       0
       0       0       0       0       0       0       0       0       0       0
       0       0       0       0       0       0       0       0       0       0
       0       0       0       0       0       0       0       0       0       0
       0       0       0       0       0       0       0       0       0       0
       0       0       0       0       0       0       0       0       0       0
       0       0       0       0       0       0       0       0       0       0
       0       0       0       0       0       0       0       0       0       0
       0       0       0       0       0       0       0       0       0       0
       0       0       0       0       0       0       0       0       0       0
       0       0       0       0       0       0       0       0       0       0
       0       0       0       0       0       0       0       0       0       0
       0       0       0       0       0       0       0       0       0       0
       0       0       0       0       0       0       0       0       0       0
       0       0       0       0       0       0       0       0       0       0
       0       0       0       0       0       0       0       0       0       0
       0       0       0       0       0       0       0       0       0       0
       0       0       0       0       0       0       0       0       0       0
       0       0       0       0       0       0       0       0       0       0
       0       0       0       0       0       0       0       0       0       0
       0       0       0       0       0       0       0       0       0       0
       0       0       0       0       0       0       0       0       0       0
       0       0       0       0       0       0       0       0       0       0
       0       0       0       0       0       0       0       0       0       0
       0       0       0       0       0       0       0       0       0       0
       0       0       0       0       0       0       0       0       0       0
       0       0       0       0       0       0       0       0       0       0
       0       0       0       0       0       0       0       0       0       0
       0       0       0       0       0       0       0       0       0       0
       0       0       0       0       0       0       0       0       0       0
       0       0       0       0       0       0       0       0       0       0
       0       0       0       0       0       0       0       0       0       0
       0       0       0       0       0       0       0       0       0       0
       0       0       0       0       0       0       0       0       0       0
       0       0       0       0       0       0       0       0       0       0
       0       0       0       0       0       0       0       0       0       0
       0       0       0       0       0       0       0       0       0       0
       0       0       0       0       0       0       0       0       0       0
       0       0       0       0       0       0       0       0       0       0
       0       0       0       0       0       0       0       0       0       0
       0       0       0       0       0       0       0       0       0       0
       0       0       0       0       0       0       0       0       0       0
       0       0       0       0       0       0       0       0       0       0
       0       0       0       0       0       0       0       0       0       0
       0       0       0       0       0       0       0       0       0       0
       0       0       0       0       0       0       0       0       0       0
       0       0       0       0       0       0       0       0       0       0
       0       0       0       0       0       0       0       0       0       0
       0       0       0       0       0       0       0       0       0       0
       0       0       0       0       0       0       0       0       0       0
       0       0       0       0       0       0       0       0       0       0
       0       0       0       0       0       0       0       0       0       0
       0       0       0       0       0       0       0       0       0       0
       0       0       0       0       0       0       0       0       0       0
       0       0       0       0       0       0       0       0       0       0
       0       0       0       0       0       0       0       0       0       0
       0       0       0       0       0       0       0       0       0       0
       0       0       0       0       0       0       0       0       0       0
       0       0       0       0       0       0       0       0       0       0
       0       0       0       0       0       0       0       0       0       0
       0       0       0       0       0       0       0       0       0       0
       0       0       0       0       0       0       0       0       0       0
       0       0       0       0       0       0       0       0       0       0
       0       0       0       0       0       0       0       0       0       0
       0       0       0       0       0       0       0       0       0       0
       0       0       0       0       0       0       0       0       0       0
       0       0       0       0       0       0       0       0       0       0
       0       0       0       0       0       0       0       0       0       0
       0       0       0       0       0       0       0       0       0       0
       0       0       0       0       0       0       0       0       0       0
       0       0       0       0       0       0       0       0       0       0
       0       0       0       0       0       0       0       0       0       0
       0       0       0       0       0       0       0       0       0       0
       0       0       0       0       0       0       0       0       0       0
       0       0       0       0       0       0       0       0       0       0
       0       0       0       0       0       0       0       0       0       0
       0       0       0       0       0       0       0       0       0       0
       0       0       0       0       0       0       0       0       0       0
       0       0       0       0       0       0       0       0       0       0
       0       0       0       0       0       0       0       0       0       0
       0       0       0       0       0       0       0       0       0       0
       0       0       0       0       0       0       0       0       0       0
       0       0       0       0       0       0       0       0       0       0
       0       0       0       0       0       0       0       0       0       0
       0       0       0       0       0       0       0       0       0       0
       0       0       0       0       0       0       0       0       0       0
       0       0       0       0       0       0       0       0       0       0
       0       0       0       0       0       0       0       0       0       0
       0       0       0       0       0       0       0       0       0       0
       0       0       0       0       0       0       0       0       0       0
       0       0       0       0       0       0       0       0       0       0
       0       0       0       0       0       0       0       0       0       0
       0       0       0       0       0       0       0       0       0       0
       0       0       0       0       0       0       0       0       0       0
       0       0       0       0       0       0       0       0       0       0
       0       0       0       0       0       0       0       0       0       0
       0       0       0       0       0       0       0       0       0       0
       0       0       0       0       0       0       0       0       0       0
       0       0       0       0       0       0       0       0       0       0
       0       0       0       0       0       0       0       0       0       0
       0       0       0       0       0       0       0       0       0       0
       0       0       0       0       0       0       0       0       0       0
       0       0       0       0       0       0       0       0       0       0
       0       0       0       0       0       0       0       0       0       0
       0       0       0       0       0       0       0       0       0       0
       0       0       0       0       0       0       0       0       0       0
       0       0       0       0       0       0       0       0       0       0
       0       0       0       0       0       0       0       0       0       0
       0       0       0       0       0       0       0       0       0       0
       0       0       0       0       0       0       0       0       0       0
       0       0       0       0       0       0       0       0       0       0
       0       0       0       0       0       0       0       0       0       0
       0       0       0       0       0       0       0       0       0       0
       0       0       0       0       0       0       0       0       0       0
       0       0       0       0       0       0       0       0       0       0
       0       0       0       0       0       0       0       0       0       0
       0       0       0       0       0       0       0       0       0       0
       0       0       0       0       0       0       0       0       0       0
       0       0       0       0       0       0       0       0       0       0
       0       0       0       0       0       0       0       0       0       0
       0       0       0       0       0       0       0       0       0       0
       0       0       0       0       0       0       0       0       0       0
       0       0       0       0       0       0       0       0       0       0
       0       0       0       0       0       0       0       0       0       0
       0       0       0       0       0       0       0       0       0       0
       0       0       0       0       0       0       0       0       0       0
       0       0       0       0       0       0       0       0       0       0
       0       0       0       0       0       0       0       0       0       0
       0       0       0       0       0       0       0       0       0       0
       0       0       0       0       0       0       0       0       0       0
       0       0       0       0       0       0       0       0       0       0
       0       0       0       0       0       0       0       0       0       0
       0       0       0       0       0       0       0       0       0       0
       0       0       0       0       0       0       0       0       0       0
       0       0       0       0       0       0       0       0       0       0
       0       0       0       0       0       0       0       0       0       0
       0       0       0       0       0       0       0       0       0       0
       0       0       0       0       0       0       0       0       0       0
       0       0       0       0       0       0       0       0       0       0
       0       0       0       0       0       0       0       0       0       0
       0       0       0       0       0       0       0       0       0       0
       0       0       0       0       0       0       0       0       0       0
       0       0       0       0       0       0       0       0       0       0
       0       0       0       0       0       0       0       0       0       0
       0       0       0       0       0       0       0       0       0       0
       0       0       0       0       0       0       0       0       0       0
       0       0       0       0       0       0       0       0       0       0
       0       0       0       0       0       0       0       0       0       0
       0       0       0       0       0       0       0       0       0       0
       0       0       0       0       0       0       0       0       0       0
       0       0       0       0       0       0       0       0       0       0
       0       0       0       0       0       0       0       0       0       0
       0       0       0       0       0       0       0       0       0       0
       0       0       0       0       0       0       0       0       0       0
       0       0       0       0       0       0       0       0       0       0
       0       0       0       0       0       0       0       0       0       0
       0       0       0       0       0       0       0       0       0       0
       0       0       0       0       0       0       0       0       0       0
       0       0       0       0       0       0       0       0       0       0
       0       0       0       0       0       0       0       0       0       0
       0       0       0       0       0       0       0       0       0       0
       0       0       0       0       0       0       0       0       0       0
       0       0       0       0       0       0       0       0       0       0
       0       0       0       0       0       0       0       0       0       0
       0       0       0       0       0       0       0       0       0       0
       0       0       0       0       0       0       0       0       0       0
       0       0       0       0       0       0       0       0       0       0
       0       0       0       0       0       0       0       0       0       0
       0       0       0       0       0       0       0       0       0       0
       0       0       0       0       0       0       0       0       0       0
       0       0       0       0       0       0       0       0       0       0
       0       0       0       0       0       0       0       0       0       0
       0       0       0       0       0       0       0       0       0       0
       0       0       0       0       0       0       0       0       0       0
       0       0       0       0       0       0       0       0       0       0
       0       0       0       0       0       0       0       0       0       0
       0       0       0       0       0       0       0       0       0       0
       0       0       0       0       0       0       0       0       0       0
       0       0       0       0       0       0       0       0       0       0
       0       0       0       0       0       0       0       0       0       0
       0       0       0       0       0       0       0       0       0       0
       0       0       0       0       0       0       0       0       0       0
       0       0       0       0       0       0       0       0       0       0
       0       0       0       0       0       0       0       0       0       0
       0       0       0       0       0       0       0       0       0       0
       0       0       0       0       0       0       0       0       0       0
       0       0       0       0       0       0       0       0       0       0
       0       0       0       0       0       0       0       0       0       0
       0       0       0       0       0       0       0       0       0       0
       0       0       0       0       0       0       0       0       0       0
       0       0       0       0       0       0       0       0       0       0
       0       0       0       0       0       0       0       0       0       0
       0       0       0       0       0       0       0       0       0       0
       0       0       0       0       0       0       0       0       0       0
       0       0       0       0       0       0       0       0       0       0
       0       0       0       0       0       0       0       0       0       0
       0       0       0       0       0       0       0       0       0       0
       0       0       0       0       0       0       0       0       0       0
       0       0       0       0       0       0       0
%FLAG SOLVENT_POINTERS                                                          
%FORMAT(3I8)                                                                    
       3   10365       4
%FLAG ATOMS_PER_MOLECULE                                                        
%FORMAT(10I8)                                                                   
      39       1       1       3       3       3       3       3       3       3
       3       3       3       3       3       3       3       3       3       3
       3       3       3       3       3       3       3       3       3       3
       3       3       3       3       3       3       3       3       3       3
       3       3       3       3       3       3       3       3       3       3
       3       3       3       3       3       3       3       3       3       3
       3       3       3       3       3       3       3       3       3       3
       3       3       3       3       3       3       3       3       3       3
       3       3       3       3       3       3       3       3       3       3
       3       3       3       3       3       3       3       3       3       3
       3       3       3       3       3       3       3       3       3       3
       3       3       3       3       3       3       3       3       3       3
       3       3       3       3       3       3       3       3       3       3
       3       3       3       3       3       3       3       3       3       3
       3       3       3       3       3       3       3       3       3       3
       3       3       3       3       3       3       3       3       3       3
       3       3       3       3       3       3       3       3       3       3
       3       3       3       3       3       3       3       3       3       3
       3       3       3       3       3       3       3       3       3       3
       3       3       3       3       3       3       3       3       3       3
       3       3       3       3       3       3       3       3       3       3
       3       3       3       3       3       3       3       3       3       3
       3       3       3       3       3       3       3       3       3       3
       3       3       3       3       3       3       3       3       3       3
       3       3       3       3       3       3       3       3       3       3
       3       3       3       3       3       3       3       3       3       3
       3       3       3       3       3       3       3       3       3       3
       3       3       3       3       3       3       3       3       3       3
       3       3       3       3       3       3       3       3       3       3
       3       3       3       3       3       3       3       3       3       3
       3       3       3       3       3       3       3       3       3       3
       3       3       3       3       3       3       3       3       3       3
       3       3       3       3       3       3       3       3       3       3
       3       3       3       3       3       3       3       3       3       3
       3       3       3       3       3       3       3       3       3       3
       3       3       3       3       3       3       3       3       3       3
       3       3       3       3       3       3       3       3       3       3
       3       3       3       3       3       3       3       3       3       3
       3       3       3       3       3       3       3       3       3       3
       3       3       3       3       3       3       3       3       3       3
       3       3       3       3       3       3       3       3       3       3
       3       3       3       3       3       3       3       3       3       3
       3       3       3       3       3       3       3       3       3       3
       3       3       3       3       3       3       3       3       3       3
       3       3       3       3       3       3       3       3       3       3
       3       3       3       3       3       3       3       3       3       3
       3       3       3       3       3       3       3       3       3       3
       3       3       3       3       3       3       3       3       3       3
       3       3       3       3       3       3       3       3       3       3
       3       3       3       3       3       3       3       3       3       3
       3       3       3       3       3       3       3       3       3       3
       3       3       3       3       3       3       3       3       3       3
       3       3       3       3       3       3       3       3       3       3
       3       3       3       3       3       3       3       3       3       3
       3       3       3       3       3       3       3       3       3       3
       3       3       3       3       3       3       3       3       3       3
       3       3       3       3       3       3       3       3       3       3
       3       3       3       3       3       3       3       3       3       3
       3       3       3       3       3       3       3       3       3       3
       3       3       3       3       3       3       3       3       3       3
       3       3       3       3       3       3       3       3       3       3
       3       3       3       3       3       3       3       3       3       3
       3       3       3       3       3       3       3       3       3       3
       3       3       3       3       3       3       3       3       3       3
       3       3       3       3       3       3       3       3       3       3
       3       3       3       3       3       3       3       3       3       3
       3       3       3       3       3       3       3       3       3       3
       3       3       3       3       3       3       3       3       3       3
       3       3       3       3       3       3       3       3       3       3
       3       3       3       3       3       3       3       3       3       3
       3       3       3       3       3       3       3       3       3       3
       3       3       3       3       3       3       3       3       3       3
       3       3       3       3       3       3       3       3       3       3
       3       3       3       3       3       3       3       3       3       3
       3       3       3       3       3       3       3       3       3       3
       3       3       3       3       3       3       3       3       3       3
       3       3       3       3       3       3       3       3       3       3
       3       3       3       3       3       3       3       3       3       3
       3       3       3       3       3       3       3       3       3       3
       3       3       3       3       3       3       3       3       3       3
       3       3       3       3       3       3       3       3       3       3
       3       3       3       3       3       3       3       3       3       3
       3       3       3       3       3       3       3       3       3       3
       3       3       3       3       3       3       3       3       3       3
       3       3       3       3       3       3       3       3       3       3
       3       3       3       3       3       3       3       3       3       3
       3       3       3       3       3       3       3       3       3       3
       3       3       3       3       3       3       3       3       3       3
       3       3       3       3       3       3       3       3       3       3
       3       3       3       3       3       3       3       3       3       3
       3       3       3       3       3       3       3       3       3       3
       3       3       3       3       3       3       3       3       3       3
       3       3       3       3       3       3       3       3       3       3
       3       3       3       3       3       3       3       3       3       3
       3       3       3       3       3       3       3       3       3       3
       3       3       3       3       3       3       3       3       3       3
       3       3       3       3       3       3       3       3       3       3
       3       3       3       3       3       3       3       3       3       3
       3       3       3       3       3       3       3       3       3       3
       3       3       3       3       3       3       3       3       3       3
       3       3       3       3       3       3       3       3       3       3
       3       3       3       3       3       3       3       3       3       3
       3       3       3       3       3       3       3       3       3       3
       3       3       3       3       3       3       3       3       3       3
       3       3       3       3       3       3       3       3       3       3
       3       3       3       3       3       3       3       3       3       3
       3       3       3       3       3       3       3       3       3       3
       3       3       3       3       3       3       3       3       3       3
       3       3       3       3       3       3       3       3       3       3
       3       3       3       3       3       3       3       3       3       3
       3       3       3       3       3       3       3       3       3       3
       3       3       3       3       3       3       3       3       3       3
       3       3       3       3       3       3       3       3       3       3
       3       3       3       3       3       3       3       3       3       3
       3       3       3       3       3       3       3       3       3       3
       3       3       3       3       3       3       3       3       3       3
       3       3       3       3       3       3       3       3       3       3
       3       3       3       3       3       3       3       3       3       3
       3       3       3       3       3       3       3       3       3       3
       3       3       3       3       3       3       3       3       3       3
       3       3       3       3       3       3       3       3       3       3
       3       3       3       3       3       3       3       3       3       3
       3       3       3       3       3       3       3       3       3       3
       3       3       3       3       3       3       3       3       3       3
       3       3       3       3       3       3       3       3       3       3
       3       3       3       3       3       3       3       3       3       3
       3       3       3       3       3       3       3       3       3       3
       3       3       3       3       3       3       3       3       3       3
       3       3       3       3       3       3       3       3       3       3
       3       3       3       3       3       3       3       3       3       3
       3       3       3       3       3       3       3       3       3       3
       3       3       3       3       3       3       3       3       3       3
       3       3       3       3       3       3       3       3       3       3
       3       3       3       3       3       3       3       3       3       3
       3       3       3       3       3       3       3       3       3       3
       3       3       3       3       3       3       3       3       3       3
       3       3       3       3       3       3       3       3       3       3
       3       3       3       3       3       3       3       3       3       3
       3       3       3       3       3       3       3       3       3       3
       3       3       3       3       3       3       3       3       3       3
       3       3       3       3       3       3       3       3       3       3
       3       3       3       3       3       3       3       3       3       3
       3       3       3       3       3       3       3       3       3       3
       3       3       3       3       3       3       3       3       3       3
       3       3       3       3       3       3       3       3       3       3
       3       3       3       3       3       3       3       3       3       3
       3       3       3       3       3       3       3       3       3       3
       3       3       3       3       3       3       3       3       3       3
       3       3       3       3       3       3       3       3       3       3
       3       3       3       3       3       3       3       3       3       3
       3       3       3       3       3       3       3       3       3       3
       3       3       3       3       3       3       3       3       3       3
       3       3       3       3       3       3       3       3       3       3
       3       3       3       3       3       3       3       3       3       3
       3       3       3       3       3       3       3       3       3       3
       3       3       3       3       3       3       3       3       3       3
       3       3       3       3       3       3       3       3       3       3
       3       3       3       3       3       3       3       3       3       3
       3       3       3       3       3       3       3       3       3       3
       3       3       3       3       3       3       3       3       3       3
       3       3       3       3       3       3       3       3       3       3
       3       3       3       3       3       3       3       3       3       3
       3       3       3       3       3       3       3       3       3       3
       3       3       3       3       3       3       3       3       3       3
       3       3       3       3       3       3       3       3       3       3
       3       3       3       3       3       3       3       3       3       3
       3       3       3       3       3       3       3       3       3       3
       3       3       3       3       3       3       3       3       3       3
       3       3       3       3       3       3       3       3       3       3
       3       3       3       3       3       3       3       3       3       3
       3       3       3       3       3       3       3       3       3       3
       3       3       3       3       3       3       3       3       3       3
       3       3       3       3       3       3       3       3       3       3
       3       3       3       3       3       3       3       3       3       3
       3       3       3       3       3       3       3       3       3       3
       3       3       3       3       3       3       3       3       3       3
       3       3       3       3       3       3       3       3       3       3
       3       3       3       3       3       3       3       3       3       3
       3       3       3       3       3       3       3       3       3       3
       3       3       3       3       3       3       3       3       3       3
       3       3       3       3       3       3       3       3       3       3
       3       3       3       3       3       3       3       3       3       3
       3       3       3       3       3       3       3       3       3       3
       3       3       3       3       3       3       3       3       3       3
       3       3       3       3       3       3       3       3       3       3
       3       3       3       3       3       3       3       3       3       3
       3       3       3       3       3       3       3       3       3       3
       3       3       3       3       3       3       3       3       3       3
       3       3       3       3       3       3       3       3       3       3
       3       3       3       3       3       3       3       3       3       3
       3       3       3       3       3       3       3       3       3       3
       3       3       3       3       3       3       3       3       3       3
       3       3       3       3       3       3       3       3       3       3
       3       3       3       3       3       3       3       3       3       3
       3       3       3       3       3       3       3       3       3       3
       3       3       3       3       3       3       3       3       3       3
       3       3       3       3       3       3       3       3       3       3
       3       3       3       3       3       3       3       3       3       3
       3       3       3       3       3       3       3       3       3       3
       3       3       3       3       3       3       3       3       3       3
       3       3       3       3       3       3       3       3       3       3
       3       3       3       3       3       3       3       3       3       3
       3       3       3       3       3       3       3       3       3       3
       3       3       3       3       3       3       3       3       3       3
       3       3       3       3       3       3       3       3       3       3
       3       3       3       3       3       3       3       3       3       3
       3       3       3       3       3       3       3       3       3       3
       3       3       3       3       3       3       3       3       3       3
       3       3       3       3       3       3       3       3       3       3
       3       3       3       3       3       3       3       3       3       3
       3       3       3       3       3       3       3       3       3       3
       3       3       3       3       3       3       3       3       3       3
       3       3       3       3       3       3       3       3       3       3
       3       3       3       3       3       3       3       3       3       3
       3       3       3       3       3       3       3       3       3       3
       3       3       3       3       3       3       3       3       3       3
       3       3       3       3       3       3       3       3       3       3
       3       3       3       3       3       3       3       3       3       3
       3       3       3       3       3       3       3       3       3       3
       3       3       3       3       3       3       3       3       3       3
       3       3       3       3       3       3       3       3       3       3
       3       3       3       3       3       3       3       3       3       3
       3       3       3       3       3       3       3       3       3       3
       3       3       3       3       3       3       3       3       3       3
       3       3       3       3       3       3       3       3       3       3
       3       3       3       3       3       3       3       3       3       3
       3       3       3       3       3       3       3       3       3       3
       3       3       3       3       3       3       3       3       3       3
       3       3       3       3       3       3       3       3       3       3
       3       3       3       3       3       3       3       3       3       3
       3       3       3       3       3       3       3       3       3       3
       3       3       3       3       3       3       3       3       3       3
       3       3       3       3       3       3       3       3       3       3
       3       3       3       3       3       3       3       3       3       3
       3       3       3       3       3       3       3       3       3       3
       3       3       3       3       3       3       3       3       3       3
       3       3       3       3       3       3       3       3       3       3
       3       3       3       3       3       3       3       3       3       3
       3       3       3       3       3       3       3       3       3       3
       3       3       3       3       3       3       3       3       3       3
       3       3       3       3       3       3       3       3       3       3
       3       3       3       3       3       3       3       3       3       3
       3       3       3       3       3       3       3       3       3       3
       3       3       3       3       3       3       3       3       3       3
       3       3       3       3       3       3       3       3       3       3
       3       3       3       3       3       3       3       3       3       3
       3       3       3       3       3       3       3       3       3       3
       3       3       3       3       3       3       3       3       3       3
       3       3       3       3       3       3       3       3       3       3
       3       3       3       3       3       3       3       3       3       3
       3       3       3       3       3       3       3       3       3       3
       3       3       3       3       3       3       3       3       3       3
       3       3       3       3       3       3       3       3       3       3
       3       3       3       3       3       3       3       3       3       3
       3       3       3       3       3       3       3       3       3       3
       3       3       3       3       3       3       3       3       3       3
       3       3       3       3       3       3       3       3       3       3
       3       3       3       3       3       3       3       3       3       3
       3       3       3       3       3       3       3       3       3       3
       3       3       3       3       3       3       3       3       3       3
       3       3       3       3       3       3       3       3       3       3
       3       3       3       3       3       3       3       3       3       3
       3       3       3       3       3       3       3       3       3       3
       3       3       3       3       3       3       3       3       3       3
       3       3       3       3       3       3       3       3       3       3
       3       3       3       3       3       3       3       3       3       3
       3       3       3       3       3       3       3       3       3       3
       3       3       3       3       3       3       3       3       3       3
       3       3       3       3       3       3       3       3       3       3
       3       3       3       3       3       3       3       3       3       3
       3       3       3       3       3       3       3       3       3       3
       3       3       3       3       3       3       3       3       3       3
       3       3       3       3       3       3       3       3       3       3
       3       3       3       3       3       3       3       3       3       3
       3       3       3       3       3       3       3       3       3       3
       3       3       3       3       3       3       3       3       3       3
       3       3       3       3       3       3       3       3       3       3
       3       3       3       3       3       3       3       3       3       3
       3       3       3       3       3       3       3       3       3       3
       3       3       3       3       3       3       3       3       3       3
       3       3       3       3       3       3       3       3       3       3
       3       3       3       3       3       3       3       3       3       3
       3       3       3       3       3       3       3       3       3       3
       3       3       3       3       3       3       3       3       3       3
       3       3       3       3       3       3       3       3       3       3
       3       3       3       3       3       3       3       3       3       3
       3       3       3       3       3       3       3       3       3       3
       3       3       3       3       3       3       3       3       3       3
       3       3       3       3       3       3       3       3       3       3
       3       3       3       3       3       3       3       3       3       3
       3       3       3       3       3       3       3       3       3       3
       3       3       3       3       3       3       3       3       3       3
       3       3       3       3       3       3       3       3       3       3
       3       3       3       3       3       3       3       3       3       3
       3       3       3       3       3       3       3       3       3       3
       3       3       3       3       3       3       3       3       3       3
       3       3       3       3       3       3       3       3       3       3
       3       3       3       3       3       3       3       3       3       3
       3       3       3       3       3       3       3       3       3       3
       3       3       3       3       3       3       3       3       3       3
       3       3       3       3       3       3       3       3       3       3
       3       3       3       3       3       3       3       3       3       3
       3       3       3       3       3       3       3       3       3       3
       3       3       3       3       3       3       3       3       3       3
       3       3       3       3       3       3       3       3       3       3
       3       3       3       3       3       3       3       3       3       3
       3       3       3       3       3       3       3       3       3       3
       3       3       3       3       3       3       3       3       3       3
       3       3       3       3       3       3       3       3       3       3
       3       3       3       3       3       3       3       3       3       3
       3       3       3       3       3       3       3       3       3       3
       3       3       3       3       3       3       3       3       3       3
       3       3       3       3       3       3       3       3       3       3
       3       3       3       3       3       3       3       3       3       3
       3       3       3       3       3       3       3       3       3       3
       3       3       3       3       3       3       3       3       3       3
       3       3       3       3       3       3       3       3       3       3
       3       3       3       3       3       3       3       3       3       3
       3       3       3       3       3       3       3       3       3       3
       3       3       3       3       3       3       3       3       3       3
       3       3       3       3       3       3       3       3       3       3
       3       3       3       3       3       3       3       3       3       3
       3       3       3       3       3       3       3       3       3       3
       3       3       3       3       3       3       3       3       3       3
       3       3       3       3       3       3       3       3       3       3
       3       3       3       3       3       3       3       3       3       3
       3       3       3       3       3       3       3       3       3       3
       3       3       3       3       3       3       3       3       3       3
       3       3       3       3       3       3       3       3       3       3
       3       3       3       3       3       3       3       3       3       3
       3       3       3       3       3       3       3       3       3       3
       3       3       3       3       3       3       3       3       3       3
       3       3       3       3       3       3       3       3       3       3
       3       3       3       3       3       3       3       3       3       3
       3       3       3       3       3       3       3       3       3       3
       3       3       3       3       3       3       3       3       3       3
       3       3       3       3       3       3       3       3       3       3
       3       3       3       3       3       3       3       3       3       3
       3       3       3       3       3       3       3       3       3       3
       3       3       3       3       3       3       3       3       3       3
       3       3       3       3       3       3       3       3       3       3
       3       3       3       3       3       3       3       3       3       3
       3       3       3       3       3       3       3       3       3       3
       3       3       3       3       3       3       3       3       3       3
       3       3       3       3       3       3       3       3       3       3
       3       3       3       3       3       3       3       3       3       3
       3       3       3       3       3       3       3       3       3       3
       3       3       3       3       3       3       3       3       3       3
       3       3       3       3       3       3       3       3       3       3
       3       3       3       3       3       3       3       3       3       3
       3       3       3       3       3       3       3       3       3       3
       3       3       3       3       3       3       3       3       3       3
       3       3       3       3       3       3       3       3       3       3
       3       3       3       3       3       3       3       3       3       3
       3       3       3       3       3       3       3       3       3       3
       3       3       3       3       3       3       3       3       3       3
       3       3       3       3       3       3       3       3       3       3
       3       3       3       3       3       3       3       3       3       3
       3       3       3       3       3       3       3       3       3       3
       3       3       3       3       3       3       3       3       3       3
       3       3       3       3       3       3       3       3       3       3
       3       3       3       3       3       3       3       3       3       3
       3       3       3       3       3       3       3       3       3       3
       3       3       3       3       3       3       3       3       3       3
       3       3       3       3       3       3       3       3       3       3
       3       3       3       3       3       3       3       3       3       3
       3       3       3       3       3       3       3       3       3       3
       3       3       3       3       3       3       3       3       3       3
       3       3       3       3       3       3       3       3       3       3
       3       3       3       3       3       3       3       3       3       3
       3       3       3       3       3       3       3       3       3       3
       3       3       3       3       3       3       3       3       3       3
       3       3       3       3       3       3       3       3       3       3
       3       3       3       3       3       3       3       3       3       3
       3       3       3       3       3       3       3       3       3       3
       3       3       3       3       3       3       3       3       3       3
       3       3       3       3       3       3       3       3       3       3
       3       3       3       3       3       3       3       3       3       3
       3       3       3       3       3       3       3       3       3       3
       3       3       3       3       3       3       3       3       3       3
       3       3       3       3       3       3       3       3       3       3
       3       3       3       3       3       3       3       3       3       3
       3       3       3       3       3       3       3       3       3       3
       3       3       3       3       3       3       3       3       3       3
       3       3       3       3       3       3       3       3       3       3
       3       3       3       3       3       3       3       3       3       3
       3       3       3       3       3       3       3       3       3       3
       3       3       3       3       3       3       3       3       3       3
       3       3       3       3       3       3       3       3       3       3
       3       3       3       3       3       3       3       3       3       3
       3       3       3       3       3       3       3       3       3       3
       3       3       3       3       3       3       3       3       3       3
       3       3       3       3       3       3       3       3       3       3
       3       3       3       3       3       3       3       3       3       3
       3       3       3       3       3       3       3       3       3       3
       3       3       3       3       3       3       3       3       3       3
       3       3       3       3       3       3       3       3       3       3
       3       3       3       3       3       3       3       3       3       3
       3       3       3       3       3       3       3       3       3       3
       3       3       3       3       3       3       3       3       3       3
       3       3       3       3       3       3       3       3       3       3
       3       3       3       3       3       3       3       3       3       3
       3       3       3       3       3       3       3       3       3       3
       3       3       3       3       3       3       3       3       3       3
       3       3       3       3       3       3       3       3       3       3
       3       3       3       3       3       3       3       3       3       3
       3       3       3       3       3       3       3       3       3       3
       3       3       3       3       3       3       3       3       3       3
       3       3       3       3       3       3       3       3       3       3
       3       3       3       3       3       3       3       3       3       3
       3       3       3       3       3       3       3       3       3       3
       3       3       3       3       3       3       3       3       3       3
       3       3       3       3       3       3       3       3       3       3
       3       3       3       3       3       3       3       3       3       3
       3       3       3       3       3       3       3       3       3       3
       3       3       3       3       3       3       3       3       3       3
       3       3       3       3       3       3       3       3       3       3
       3       3       3       3       3       3       3       3       3       3
       3       3       3       3       3       3       3       3       3       3
       3       3       3       3       3       3       3       3       3       3
       3       3       3       3       3       3       3       3       3       3
       3       3       3       3       3       3       3       3       3       3
       3       3       3       3       3       3       3       3       3       3
       3       3       3       3       3       3       3       3       3       3
       3       3       3       3       3       3       3       3       3       3
       3       3       3       3       3       3       3       3       3       3
       3       3       3       3       3       3       3       3       3       3
       3       3       3       3       3       3       3       3       3       3
       3       3       3       3       3       3       3       3       3       3
       3       3       3       3       3       3       3       3       3       3
       3       3       3       3       3       3       3       3       3       3
       3       3       3       3       3       3       3       3       3       3
       3       3       3       3       3       3       3       3       3       3
       3       3       3       3       3       3       3       3       3       3
       3       3       3       3       3       3       3       3       3       3
       3       3       3       3       3       3       3       3       3       3
       3       3       3       3       3       3       3       3       3       3
       3       3       3       3       3       3       3       3       3       3
       3       3       3       3       3       3       3       3       3       3
       3       3       3       3       3       3       3       3       3       3
       3       3       3       3       3       3       3       3       3       3
       3       3       3       3       3       3       3       3       3       3
       3       3       3       3       3       3       3       3       3       3
       3       3       3       3       3       3       3       3       3       3
       3       3       3       3       3       3       3       3       3       3
       3       3       3       3       3       3       3       3       3       3
       3       3       3       3       3       3       3       3       3       3
       3       3       3       3       3       3       3       3       3       3
       3       3       3       3       3       3       3       3       3       3
       3       3       3       3       3       3       3       3       3       3
       3       3       3       3       3       3       3       3       3       3
       3       3       3       3       3       3       3       3       3       3
       3       3       3       3       3       3       3       3       3       3
       3       3       3       3       3       3       3       3       3       3
       3       3       3       3       3       3       3       3       3       3
       3       3       3       3       3       3       3       3       3       3
       3       3       3       3       3       3       3       3       3       3
       3       3       3       3       3       3       3       3       3       3
       3       3       3       3       3       3       3       3       3       3
       3       3       3       3       3       3       3       3       3       3
       3       3       3       3       3       3       3       3       3       3
       3       3       3       3       3       3       3       3       3       3
       3       3       3       3       3       3       3       3       3       3
       3       3       3       3       3       3       3       3       3       3
       3       3       3       3       3       3       3       3       3       3
       3       3       3       3       3       3       3       3       3       3
       3       3       3       3       3       3       3       3       3       3
       3       3       3       3       3       3       3       3       3       3
       3       3       3       3       3       3       3       3       3       3
       3       3       3       3       3       3       3       3       3       3
       3       3       3       3       3       3       3       3       3       3
       3       3       3       3       3       3       3       3       3       3
       3       3       3       3       3       3       3       3       3       3
       3       3       3       3       3       3       3       3       3       3
       3       3       3       3       3       3       3       3       3       3
       3       3       3       3       3       3       3       3       3       3
       3       3       3       3       3       3       3       3       3       3
       3       3       3       3       3       3       3       3       3       3
       3       3       3       3       3       3       3       3       3       3
       3       3       3       3       3       3       3       3       3       3
       3       3       3       3       3       3       3       3       3       3
       3       3       3       3       3       3       3       3       3       3
       3       3       3       3       3       3       3       3       3       3
       3       3       3       3       3       3       3       3       3       3
       3       3       3       3       3       3       3       3       3       3
       3       3       3       3       3       3       3       3       3       3
       3       3       3       3       3       3       3       3       3       3
       3       3       3       3       3       3       3       3       3       3
       3       3       3       3       3       3       3       3       3       3
       3       3       3       3       3       3       3       3       3       3
       3       3       3       3       3       3       3       3       3       3
       3       3       3       3       3       3       3       3       3       3
       3       3       3       3       3       3       3       3       3       3
       3       3       3       3       3       3       3       3       3       3
       3       3       3       3       3       3       3       3       3       3
       3       3       3       3       3       3       3       3       3       3
       3       3       3       3       3       3       3       3       3       3
       3       3       3       3       3       3       3       3       3       3
       3       3       3       3       3       3       3       3       3       3
       3       3       3       3       3       3       3       3       3       3
       3       3       3       3       3       3       3       3       3       3
       3       3       3       3       3       3       3       3       3       3
       3       3       3       3       3       3       3       3       3       3
       3       3       3       3       3       3       3       3       3       3
       3       3       3       3       3       3       3       3       3       3
       3       3       3       3       3       3       3       3       3       3
       3       3       3       3       3       3       3       3       3       3
       3       3       3       3       3       3       3       3       3       3
       3       3       3       3       3       3       3       3       3       3
       3       3       3       3       3       3       3       3       3       3
       3       3       3       3       3       3       3       3       3       3
       3       3       3       3       3       3       3       3       3       3
       3       3       3       3       3       3       3       3       3       3
       3       3       3       3       3       3       3       3       3       3
       3       3       3       3       3       3       3       3       3       3
       3       3       3       3       3       3       3       3       3       3
       3       3       3       3       3       3       3       3       3       3
       3       3       3       3       3       3       3       3       3       3
       3       3       3       3       3       3       3       3       3       3
       3       3       3       3       3       3       3       3       3       3
       3       3       3       3       3       3       3       3       3       3
       3       3       3       3       3       3       3       3       3       3
       3       3       3       3       3       3       3       3       3       3
       3       3       3       3       3       3       3       3       3       3
       3       3       3       3       3       3       3       3       3       3
       3       3       3       3       3       3       3       3       3       3
       3       3       3       3       3       3       3       3       3       3
       3       3       3       3       3       3       3       3       3       3
       3       3       3       3       3       3       3       3       3       3
       3       3       3       3       3       3       3       3       3       3
       3       3       3       3       3       3       3       3       3       3
       3       3       3       3       3       3       3       3       3       3
       3       3       3       3       3       3       3       3       3       3
       3       3       3       3       3       3       3       3       3       3
       3       3       3       3       3       3       3       3       3       3
       3       3       3       3       3       3       3       3       3       3
       3       3       3       3       3       3       3       3       3       3
       3       3       3       3       3       3       3       3       3       3
       3       3       3       3       3       3       3       3       3       3
       3       3       3       3       3       3       3       3       3       3
       3       3       3       3       3       3       3       3       3       3
       3       3       3       3       3       3       3       3       3       3
       3       3       3       3       3       3       3       3       3       3
       3       3       3       3       3       3       3       3       3       3
       3       3       3       3       3       3       3       3       3       3
       3       3       3       3       3       3       3       3       3       3
       3       3       3       3       3       3       3       3       3       3
       3       3       3       3       3       3       3       3       3       3
       3       3       3       3       3       3       3       3       3       3
       3       3       3       3       3       3       3       3       3       3
       3       3       3       3       3       3       3       3       3       3
       3       3       3       3       3       3       3       3       3       3
       3       3       3       3       3       3       3       3       3       3
       3       3       3       3       3       3       3       3       3       3
       3       3       3       3       3       3       3       3       3       3
       3       3       3       3       3       3       3       3       3       3
       3       3       3       3       3       3       3       3       3       3
       3       3       3       3       3       3       3       3       3       3
       3       3       3       3       3       3       3       3       3       3
       3       3       3       3       3       3       3       3       3       3
       3       3       3       3       3       3       3       3       3       3
       3       3       3       3       3       3       3       3       3       3
       3       3       3       3       3       3       3       3       3       3
       3       3       3       3       3       3       3       3       3       3
       3       3       3       3       3       3       3       3       3       3
       3       3       3       3       3       3       3       3       3       3
       3       3       3       3       3       3       3       3       3       3
       3       3       3       3       3       3       3       3       3       3
       3       3       3       3       3       3       3       3       3       3
       3       3       3       3       3       3       3       3       3       3
       3       3       3       3       3       3       3       3       3       3
       3       3       3       3       3       3       3       3       3       3
       3       3       3       3       3       3       3       3       3       3
       3       3       3       3       3       3       3       3       3       3
       3       3       3       3       3       3       3       3       3       3
       3       3       3       3       3       3       3       3       3       3
       3       3       3       3       3       3       3       3       3       3
       3       3       3       3       3       3       3       3       3       3
       3       3       3       3       3       3       3       3       3       3
       3       3       3       3       3       3       3       3       3       3
       3       3       3       3       3       3       3       3       3       3
       3       3       3       3       3       3       3       3       3       3
       3       3       3       3       3       3       3       3       3       3
       3       3       3       3       3       3       3       3       3       3
       3       3       3       3       3       3       3       3       3       3
       3       3       3       3       3       3       3       3       3       3
       3       3       3       3       3       3       3       3       3       3
       3       3       3       3       3       3       3       3       3       3
       3       3       3       3       3       3       3       3       3       3
       3       3       3       3       3       3       3       3       3       3
       3       3       3       3       3       3       3       3       3       3
       3       3       3       3       3       3       3       3       3       3
       3       3       3       3       3       3       3       3       3       3
       3       3       3       3       3       3       3       3       3       3
       3       3       3       3       3       3       3       3       3       3
       3       3       3       3       3       3       3       3       3       3
       3       3       3       3       3       3       3       3       3       3
       3       3       3       3       3       3       3       3       3       3
       3       3       3       3       3       3       3       3       3       3
       3       3       3       3       3       3       3       3       3       3
       3       3       3       3       3       3       3       3       3       3
       3       3       3       3       3       3       3       3       3       3
       3       3       3       3       3       3       3       3       3       3
       3       3       3       3       3       3       3       3       3       3
       3       3       3       3       3       3       3       3       3       3
       3       3       3       3       3       3       3       3       3       3
       3       3       3       3       3       3       3       3       3       3
       3       3       3       3       3       3       3       3       3       3
       3       3       3       3       3       3       3       3       3       3
       3       3       3       3       3       3       3       3       3       3
       3       3       3       3       3       3       3       3       3       3
       3       3       3       3       3       3       3       3       3       3
       3       3       3       3       3       3       3       3       3       3
       3       3       3       3       3       3       3       3       3       3
       3       3       3       3       3       3       3       3       3       3
       3       3       3       3       3       3       3       3       3       3
       3       3       3       3       3       3       3       3       3       3
       3       3       3       3       3       3       3       3       3       3
       3       3       3       3       3       3       3       3       3       3
       3       3       3       3       3       3       3       3       3       3
       3       3       3       3       3       3       3       3       3       3
       3       3       3       3       3       3       3       3       3       3
       3       3       3       3       3       3       3       3       3       3
       3       3       3       3       3       3       3       3       3       3
       3       3       3       3       3       3       3       3       3       3
       3       3       3       3       3       3       3       3       3       3
       3       3       3       3       3       3       3       3       3       3
       3       3       3       3       3       3       3       3       3       3
       3       3       3       3       3       3       3       3       3       3
       3       3       3       3       3       3       3       3       3       3
       3       3       3       3       3       3       3       3       3       3
       3       3       3       3       3       3       3       3       3       3
       3       3       3       3       3       3       3       3       3       3
       3       3       3       3       3       3       3       3       3       3
       3       3       3       3       3       3       3       3       3       3
       3       3       3       3       3       3       3       3       3       3
       3       3       3       3       3       3       3       3       3       3
       3       3       3       3       3       3       3       3       3       3
       3       3       3       3       3       3       3       3       3       3
       3       3       3       3       3       3       3       3       3       3
       3       3       3       3       3       3       3       3       3       3
       3       3       3       3       3       3       3       3       3       3
       3       3       3       3       3       3       3       3       3       3
       3       3       3       3       3       3       3       3       3       3
       3       3       3       3       3       3       3       3       3       3
       3       3       3       3       3       3       3       3       3       3
       3       3       3       3       3       3       3       3       3       3
       3       3       3       3       3       3       3       3       3       3
       3       3       3       3       3       3       3       3       3       3
       3       3       3       3       3       3       3       3       3       3
       3       3       3       3       3       3       3       3       3       3
       3       3       3       3       3       3       3       3       3       3
       3       3       3       3       3       3       3       3       3       3
       3       3       3       3       3       3       3       3       3       3
       3       3       3       3       3       3       3       3       3       3
       3       3       3       3       3       3       3       3       3       3
       3       3       3       3       3       3       3       3       3       3
       3       3       3       3       3       3       3       3       3       3
       3       3       3       3       3       3       3       3       3       3
       3       3       3       3       3       3       3       3       3       3
       3       3       3       3       3       3       3       3       3       3
       3       3       3       3       3       3       3       3       3       3
       3       3       3       3       3       3       3       3       3       3
       3       3       3       3       3       3       3       3       3       3
       3       3       3       3       3       3       3       3       3       3
       3       3       3       3       3       3       3       3       3       3
       3       3       3       3       3       3       3       3       3       3
       3       3       3       3       3       3       3       3       3       3
       3       3       3       3       3       3       3       3       3       3
       3       3       3       3       3       3       3       3       3       3
       3       3       3       3       3       3       3       3       3       3
       3       3       3       3       3       3       3       3       3       3
       3       3       3       3       3       3       3       3       3       3
       3       3       3       3       3       3       3       3       3       3
       3       3       3       3       3       3       3       3       3       3
       3       3       3       3       3       3       3       3       3       3
       3       3       3       3       3       3       3       3       3       3
       3       3       3       3       3       3       3       3       3       3
       3       3       3       3       3       3       3       3       3       3
       3       3       3       3       3       3       3       3       3       3
       3       3       3       3       3       3       3       3       3       3
       3       3       3       3       3       3       3       3       3       3
       3       3       3       3       3       3       3       3       3       3
       3       3       3       3       3       3       3       3       3       3
       3       3       3       3       3       3       3       3       3       3
       3       3       3       3       3       3       3       3       3       3
       3       3       3       3       3       3       3       3       3       3
       3       3       3       3       3       3       3       3       3       3
       3       3       3       3       3       3       3       3       3       3
       3       3       3       3       3       3       3       3       3       3
       3       3       3       3       3       3       3       3       3       3
       3       3       3       3       3       3       3       3       3       3
       3       3       3       3       3       3       3       3       3       3
       3       3       3       3       3       3       3       3       3       3
       3       3       3       3       3       3       3       3       3       3
       3       3       3       3       3       3       3       3       3       3
       3       3       3       3       3       3       3       3       3       3
       3       3       3       3       3       3       3       3       3       3
       3       3       3       3       3       3       3       3       3       3
       3       3       3       3       3       3       3       3       3       3
       3       3       3       3       3       3       3       3       3       3
       3       3       3       3       3       3       3       3       3       3
       3       3       3       3       3       3       3       3       3       3
       3       3       3       3       3       3       3       3       3       3
       3       3       3       3       3       3       3       3       3       3
       3       3       3       3       3       3       3       3       3       3
       3       3       3       3       3       3       3       3       3       3
       3       3       3       3       3       3       3       3       3       3
       3       3       3       3       3       3       3       3       3       3
       3       3       3       3       3       3       3       3       3       3
       3       3       3       3       3       3       3       3       3       3
       3       3       3       3       3       3       3       3       3       3
       3       3       3       3       3       3       3       3       3       3
       3       3       3       3       3       3       3       3       3       3
       3       3       3       3       3       3       3       3       3       3
       3       3       3       3       3       3       3       3       3       3
       3       3       3       3       3       3       3       3       3       3
       3       3       3       3       3       3       3       3       3       3
       3       3       3       3       3       3       3       3       3       3
       3       3       3       3       3       3       3       3       3       3
       3       3       3       3       3       3       3       3       3       3
       3       3       3       3       3       3       3       3       3       3
       3       3       3       3       3       3       3       3       3       3
       3       3       3       3       3       3       3       3       3       3
       3       3       3       3       3       3       3       3       3       3
       3       3       3       3       3       3       3       3       3       3
       3       3       3       3       3       3       3       3       3       3
       3       3       3       3       3       3       3       3       3       3
       3       3       3       3       3       3       3       3       3       3
       3       3       3       3       3       3       3       3       3       3
       3       3       3       3       3       3       3       3       3       3
       3       3       3       3       3       3       3       3       3       3
       3       3       3       3       3       3       3       3       3       3
       3       3       3       3       3       3       3       3       3       3
       3       3       3       3       3       3       3       3       3       3
       3       3       3       3       3       3       3       3       3       3
       3       3       3       3       3       3       3       3       3       3
       3       3       3       3       3       3       3       3       3       3
       3       3       3       3       3       3       3       3       3       3
       3       3       3       3       3       3       3       3       3       3
       3       3       3       3       3       3       3       3       3       3
       3       3       3       3       3       3       3       3       3       3
       3       3       3       3       3       3       3       3       3       3
       3       3       3       3       3       3       3       3       3       3
       3       3       3       3       3       3       3       3       3       3
       3       3       3       3       3       3       3       3       3       3
       3       3       3       3       3       3       3       3       3       3
       3       3       3       3       3       3       3       3       3       3
       3       3       3       3       3       3       3       3       3       3
       3       3       3       3       3       3       3       3       3       3
       3       3       3       3       3       3       3       3       3       3
       3       3       3       3       3       3       3       3       3       3
       3       3       3       3       3       3       3       3       3       3
       3       3       3       3       3       3       3       3       3       3
       3       3       3       3       3       3       3       3       3       3
       3       3       3       3       3       3       3       3       3       3
       3       3       3       3       3       3       3       3       3       3
       3       3       3       3       3       3       3       3       3       3
       3       3       3       3       3       3       3       3       3       3
       3       3       3       3       3       3       3       3       3       3
       3       3       3       3       3       3       3       3       3       3
       3       3       3       3       3       3       3       3       3       3
       3       3       3       3       3       3       3       3       3       3
       3       3       3       3       3       3       3       3       3       3
       3       3       3       3       3       3       3       3       3       3
       3       3       3       3       3       3       3       3       3       3
       3       3       3       3       3       3       3       3       3       3
       3       3       3       3       3       3       3       3       3       3
       3       3       3       3       3       3       3       3       3       3
       3       3       3       3       3       3       3       3       3       3
       3       3       3       3       3       3       3       3       3       3
       3       3       3       3       3       3       3       3       3       3
       3       3       3       3       3       3       3       3       3       3
       3       3       3       3       3       3       3       3       3       3
       3       3       3       3       3       3       3       3       3       3
       3       3       3       3       3       3       3       3       3       3
       3       3       3       3       3       3       3       3       3       3
       3       3       3       3       3       3       3       3       3       3
       3       3       3       3       3       3       3       3       3       3
       3       3       3       3       3       3       3       3       3       3
       3       3       3       3       3       3       3       3       3       3
       3       3       3       3       3       3       3       3       3       3
       3       3       3       3       3       3       3       3       3       3
       3       3       3       3       3       3       3       3       3       3
       3       3       3       3       3       3       3       3       3       3
       3       3       3       3       3       3       3       3       3       3
       3       3       3       3       3       3       3       3       3       3
       3       3       3       3       3       3       3       3       3       3
       3       3       3       3       3       3       3       3       3       3
       3       3       3       3       3       3       3       3       3       3
       3       3       3       3       3       3       3       3       3       3
       3       3       3       3       3       3       3       3       3       3
       3       3       3       3       3       3       3       3       3       3
       3       3       3       3       3       3       3       3       3       3
       3       3       3       3       3       3       3       3       3       3
       3       3       3       3       3       3       3       3       3       3
       3       3       3       3       3       3       3       3       3       3
       3       3       3       3       3       3       3       3       3       3
       3       3       3       3       3       3       3       3       3       3
       3       3       3       3       3       3       3       3       3       3
       3       3       3       3       3       3       3       3       3       3
       3       3       3       3       3       3       3       3       3       3
       3       3       3       3       3       3       3       3       3       3
       3       3       3       3       3       3       3       3       3       3
       3       3       3       3       3       3       3       3       3       3
       3       3       3       3       3       3       3       3       3       3
       3       3       3       3       3       3       3       3       3       3
       3       3       3       3       3       3       3       3       3       3
       3       3       3       3       3       3       3       3       3       3
       3       3       3       3       3       3       3       3       3       3
       3       3       3       3       3       3       3       3       3       3
       3       3       3       3       3       3       3       3       3       3
       3       3       3       3       3       3       3       3       3       3
       3       3       3       3       3       3       3       3       3       3
       3       3       3       3       3       3       3       3       3       3
       3       3       3       3       3       3       3       3       3       3
       3       3       3       3       3       3       3       3       3       3
       3       3       3       3       3       3       3       3       3       3
       3       3       3       3       3       3       3       3       3       3
       3       3       3       3       3       3       3       3       3       3
       3       3       3       3       3       3       3       3       3       3
       3       3       3       3       3       3       3       3       3       3
       3       3       3       3       3       3       3       3       3       3
       3       3       3       3       3       3       3       3       3       3
       3       3       3       3       3       3       3       3       3       3
       3       3       3       3       3       3       3       3       3       3
       3       3       3       3       3       3       3       3       3       3
       3       3       3       3       3       3       3       3       3       3
       3       3       3       3       3       3       3       3       3       3
       3       3       3       3       3       3       3       3       3       3
       3       3       3       3       3       3       3       3       3       3
       3       3       3       3       3       3       3       3       3       3
       3       3       3       3       3       3       3       3       3       3
       3       3       3       3       3       3       3       3       3       3
       3       3       3       3       3       3       3       3       3       3
       3       3       3       3       3       3       3       3       3       3
       3       3       3       3       3       3       3       3       3       3
       3       3       3       3       3       3       3       3       3       3
       3       3       3       3       3       3       3       3       3       3
       3       3       3       3       3       3       3       3       3       3
       3       3       3       3       3       3       3       3       3       3
       3       3       3       3       3       3       3       3       3       3
       3       3       3       3       3       3       3       3       3       3
       3       3       3       3       3       3       3       3       3       3
       3       3       3       3       3       3       3       3       3       3
       3       3       3       3       3       3       3       3       3       3
       3       3       3       3       3       3       3       3       3       3
       3       3       3       3       3       3       3       3       3       3
       3       3       3       3       3       3       3       3       3       3
       3       3       3       3       3       3       3       3       3       3
       3       3       3       3       3       3       3       3       3       3
       3       3       3       3       3       3       3       3       3       3
       3       3       3       3       3       3       3       3       3       3
       3       3       3       3       3       3       3       3       3       3
       3       3       3       3       3       3       3       3       3       3
       3       3       3       3       3       3       3       3       3       3
       3       3       3       3       3       3       3       3       3       3
       3       3       3       3       3       3       3       3       3       3
       3       3       3       3       3       3       3       3       3       3
       3       3       3       3       3       3       3       3       3       3
       3       3       3       3       3       3       3       3       3       3
       3       3       3       3       3       3       3       3       3       3
       3       3       3       3       3       3       3       3       3       3
       3       3       3       3       3       3       3       3       3       3
       3       3       3       3       3       3       3       3       3       3
       3       3       3       3       3       3       3       3       3       3
       3       3       3       3       3       3       3       3       3       3
       3       3       3       3       3       3       3       3       3       3
       3       3       3       3       3       3       3       3       3       3
       3       3       3       3       3       3       3       3       3       3
       3       3       3       3       3       3       3       3       3       3
       3       3       3       3       3       3       3       3       3       3
       3       3       3       3       3       3       3       3       3       3
       3       3       3       3       3       3       3       3       3       3
       3       3       3       3       3       3       3       3       3       3
       3       3       3       3       3       3       3       3       3       3
       3       3       3       3       3       3       3       3       3       3
       3       3       3       3       3       3       3       3       3       3
       3       3       3       3       3       3       3       3       3       3
       3       3       3       3       3       3       3       3       3       3
       3       3       3       3       3       3       3       3       3       3
       3       3       3       3       3       3       3       3       3       3
       3       3       3       3       3       3       3       3       3       3
       3       3       3       3       3       3       3       3       3       3
       3       3       3       3       3       3       3       3       3       3
       3       3       3       3       3       3       3       3       3       3
       3       3       3       3       3       3       3       3       3       3
       3       3       3       3       3       3       3       3       3       3
       3       3       3       3       3       3       3       3       3       3
       3       3       3       3       3       3       3       3       3       3
       3       3       3       3       3       3       3       3       3       3
       3       3       3       3       3       3       3       3       3       3
       3       3       3       3       3       3       3       3       3       3
       3       3       3       3       3       3       3       3       3       3
       3       3       3       3       3       3       3       3       3       3
       3       3       3       3       3       3       3       3       3       3
       3       3       3       3       3       3       3       3       3       3
       3       3       3       3       3       3       3       3       3       3
       3       3       3       3       3       3       3       3       3       3
       3       3       3       3       3       3       3       3       3       3
       3       3       3       3       3       3       3       3       3       3
       3       3       3       3       3       3       3       3       3       3
       3       3       3       3       3       3       3       3       3       3
       3       3       3       3       3       3       3       3       3       3
       3       3       3       3       3       3       3       3       3       3
       3       3       3       3       3       3       3       3       3       3
       3       3       3       3       3       3       3       3       3       3
       3       3       3       3       3       3       3       3       3       3
       3       3       3       3       3       3       3       3       3       3
       3       3       3       3       3       3       3       3       3       3
       3       3       3       3       3       3       3       3       3       3
       3       3       3       3       3       3       3       3       3       3
       3       3       3       3       3       3       3       3       3       3
       3       3       3       3       3       3       3       3       3       3
       3       3       3       3       3       3       3       3       3       3
       3       3       3       3       3       3       3       3       3       3
       3       3       3       3       3       3       3       3       3       3
       3       3       3       3       3       3       3       3       3       3
       3       3       3       3       3       3       3       3       3       3
       3       3       3       3       3       3       3       3       3       3
       3       3       3       3       3       3       3       3       3       3
       3       3       3       3       3       3       3       3       3       3
       3       3       3       3       3       3       3       3       3       3
       3       3       3       3       3       3       3       3       3       3
       3       3       3       3       3       3       3       3       3       3
       3       3       3       3       3       3       3       3       3       3
       3       3       3       3       3       3       3       3       3       3
       3       3       3       3       3       3       3       3       3       3
       3       3       3       3       3       3       3       3       3       3
       3       3       3       3       3       3       3       3       3       3
       3       3       3       3       3       3       3       3       3       3
       3       3       3       3       3       3       3       3       3       3
       3       3       3       3       3       3       3       3       3       3
       3       3       3       3       3       3       3       3       3       3
       3       3       3       3       3       3       3       3       3       3
       3       3       3       3       3       3       3       3       3       3
       3       3       3       3       3       3       3       3       3       3
       3       3       3       3       3       3       3       3       3       3
       3       3       3       3       3       3       3       3       3       3
       3       3       3       3       3       3       3       3       3       3
       3       3       3       3       3       3       3       3       3       3
       3       3       3       3       3       3       3       3       3       3
       3       3       3       3       3       3       3       3       3       3
       3       3       3       3       3       3       3       3       3       3
       3       3       3       3       3       3       3       3       3       3
       3       3       3       3       3       3       3       3       3       3
       3       3       3       3       3       3       3       3       3       3
       3       3       3       3       3       3       3       3       3       3
       3       3       3       3       3       3       3       3       3       3
       3       3       3       3       3       3       3       3       3       3
       3       3       3       3       3       3       3       3       3       3
       3       3       3       3       3       3       3       3       3       3
       3       3       3       3       3       3       3       3       3       3
       3       3       3       3       3       3       3       3       3       3
       3       3       3       3       3       3       3       3       3       3
       3       3       3       3       3       3       3       3       3       3
       3       3       3       3       3       3       3       3       3       3
       3       3       3       3       3       3       3       3       3       3
       3       3       3       3       3       3       3       3       3       3
       3       3       3       3       3       3       3       3       3       3
       3       3       3       3       3       3       3       3       3       3
       3       3       3       3       3       3       3       3       3       3
       3       3       3       3       3       3       3       3       3       3
       3       3       3       3       3       3       3       3       3       3
       3       3       3       3       3       3       3       3       3       3
       3       3       3       3       3       3       3       3       3       3
       3       3       3       3       3       3       3       3       3       3
       3       3       3       3       3       3       3       3       3       3
       3       3       3       3       3       3       3       3       3       3
       3       3       3       3       3       3       3       3       3       3
       3       3       3       3       3       3       3       3       3       3
       3       3       3       3       3       3       3       3       3       3
       3       3       3       3       3       3       3       3       3       3
       3       3       3       3       3       3       3       3       3       3
       3       3       3       3       3       3       3       3       3       3
       3       3       3       3       3       3       3       3       3       3
       3       3       3       3       3       3       3       3       3       3
       3       3       3       3       3       3       3       3       3       3
       3       3       3       3       3       3       3       3       3       3
       3       3       3       3       3       3       3       3       3       3
       3       3       3       3       3       3       3       3       3       3
       3       3       3       3       3       3       3       3       3       3
       3       3       3       3       3       3       3       3       3       3
       3       3       3       3       3       3       3       3       3       3
       3       3       3       3       3       3       3       3       3       3
       3       3       3       3       3       3       3       3       3       3
       3       3       3       3       3       3       3       3       3       3
       3       3       3       3       3       3       3       3       3       3
       3       3       3       3       3       3       3       3       3       3
       3       3       3       3       3       3       3       3       3       3
       3       3       3       3       3       3       3       3       3       3
       3       3       3       3       3       3       3       3       3       3
       3       3       3       3       3       3       3       3       3       3
       3       3       3       3       3       3       3       3       3       3
       3       3       3       3       3       3       3       3       3       3
       3       3       3       3       3       3       3       3       3       3
       3       3       3       3       3       3       3       3       3       3
       3       3       3       3       3       3       3       3       3       3
       3       3       3       3       3       3       3       3       3       3
       3       3       3       3       3       3       3       3       3       3
       3       3       3       3       3       3       3       3       3       3
       3       3       3       3       3       3       3       3       3       3
       3       3       3       3       3       3       3       3       3       3
       3       3       3       3       3       3       3       3       3       3
       3       3       3       3       3       3       3       3       3       3
       3       3       3       3       3       3       3       3       3       3
       3       3       3       3       3       3       3       3       3       3
       3       3       3       3       3       3       3       3       3       3
       3       3       3       3       3       3       3       3       3       3
       3       3       3       3       3       3       3       3       3       3
       3       3       3       3       3       3       3       3       3       3
       3       3       3       3       3       3       3       3       3       3
       3       3       3       3       3       3       3       3       3       3
       3       3       3       3       3       3       3       3       3       3
       3       3       3       3       3       3       3       3       3       3
       3       3       3       3       3       3       3       3       3       3
       3       3       3       3       3       3       3       3       3       3
       3       3       3       3       3       3       3       3       3       3
       3       3       3       3       3       3       3       3       3       3
       3       3       3       3       3       3       3       3       3       3
       3       3       3       3       3       3       3       3       3       3
       3       3       3       3       3       3       3       3       3       3
       3       3       3       3       3       3       3       3       3       3
       3       3       3       3       3       3       3       3       3       3
       3       3       3       3       3       3       3       3       3       3
       3       3       3       3       3       3       3       3       3       3
       3       3       3       3       3       3       3       3       3       3
       3       3       3       3       3       3       3       3       3       3
       3       3       3       3       3       3       3       3       3       3
       3       3       3       3       3       3       3       3       3       3
       3       3       3       3       3       3       3       3       3       3
       3       3       3       3       3       3       3       3       3       3
       3       3       3       3       3       3       3       3       3       3
       3       3       3       3       3       3       3       3       3       3
       3       3       3       3       3       3       3       3       3       3
       3       3       3       3       3       3       3       3       3       3
       3       3       3       3       3
%FLAG BOX_DIMENSIONS                                                            
%FORMAT(5E16.8)                                                                 
  9.00000000E+01  7.25513360E+01  7.29761680E+01  7.17943520E+01
%FLAG RADIUS_SET                                                                
%FORMAT(1a80)                                                                   
modified Bondi radii (mbondi)                                                   
%FLAG RADII                                                                     
%FORMAT(5E16.8)                                                                 
  1.55000000E+00  1.70000000E+00  1.50000000E+00  1.70000000E+00  1.55000000E+00
  1.50000000E+00  1.70000000E+00  1.55000000E+00  1.50000000E+00  1.70000000E+00
  1.50000000E+00  1.70000000E+00  1.50000000E+00  1.70000000E+00  1.50000000E+00
  1.70000000E+00  1.70000000E+00  1.70000000E+00  1.70000000E+00  1.70000000E+00
  1.70000000E+00  1.30000000E+00  1.30000000E+00  1.30000000E+00  1.30000000E+00
  1.30000000E+00  1.30000000E+00  1.30000000E+00  1.30000000E+00  1.30000000E+00
  1.30000000E+00  1.30000000E+00  1.30000000E+00  1.30000000E+00  1.30000000E+00
  1.30000000E+00  1.30000000E+00  1.30000000E+00  1.30000000E+00  1.50000000E+00
  1.50000000E+00  1.50000000E+00  8.00000000E-01  8.00000000E-01  1.50000000E+00
  8.00000000E-01  8.00000000E-01  1.50000000E+00  8.00000000E-01  8.00000000E-01
  1.50000000E+00  8.00000000E-01  8.00000000E-01  1.50000000E+00  8.00000000E-01
  8.00000000E-01  1.50000000E+00  8.00000000E-01  8.00000000E-01  1.50000000E+00
  8.00000000E-01  8.00000000E-01  1.50000000E+00  8.00000000E-01  8.00000000E-01
  1.50000000E+00  8.00000000E-01  8.00000000E-01  1.50000000E+00  8.00000000E-01
  8.00000000E-01  1.50000000E+00  8.00000000E-01  8.00000000E-01  1.50000000E+00
  8.00000000E-01  8.00000000E-01  1.50000000E+00  8.00000000E-01  8.00000000E-01
  1.50000000E+00  8.00000000E-01  8.00000000E-01  1.50000000E+00  8.00000000E-01
  8.00000000E-01  1.50000000E+00  8.00000000E-01  8.00000000E-01  1.50000000E+00
  8.00000000E-01  8.00000000E-01  1.50000000E+00  8.00000000E-01  8.00000000E-01
  1.50000000E+00  8.00000000E-01  8.00000000E-01  1.50000000E+00  8.00000000E-01
  8.00000000E-01  1.50000000E+00  8.00000000E-01  8.00000000E-01  1.50000000E+00
  8.00000000E-01  8.00000000E-01  1.50000000E+00  8.00000000E-01  8.00000000E-01
  1.50000000E+00  8.00000000E-01  8.00000000E-01  1.50000000E+00  8.00000000E-01
  8.00000000E-01  1.50000000E+00  8.00000000E-01  8.00000000E-01  1.50000000E+00
  8.00000000E-01  8.00000000E-01  1.50000000E+00  8.00000000E-01  8.00000000E-01
  1.50000000E+00  8.00000000E-01  8.00000000E-01  1.50000000E+00  8.00000000E-01
  8.00000000E-01  1.50000000E+00  8.00000000E-01  8.00000000E-01  1.50000000E+00
  8.00000000E-01  8.00000000E-01  1.50000000E+00  8.00000000E-01  8.00000000E-01
  1.50000000E+00  8.00000000E-01  8.00000000E-01  1.50000000E+00  8.00000000E-01
  8.00000000E-01  1.50000000E+00  8.00000000E-01  8.00000000E-01  1.50000000E+00
  8.00000000E-01  8.00000000E-01  1.50000000E+00  8.00000000E-01  8.00000000E-01
  1.50000000E+00  8.00000000E-01  8.00000000E-01  1.50000000E+00  8.00000000E-01
  8.00000000E-01  1.50000000E+00  8.00000000E-01  8.00000000E-01  1.50000000E+00
  8.00000000E-01  8.00000000E-01  1.50000000E+00  8.00000000E-01  8.00000000E-01
  1.50000000E+00  8.00000000E-01  8.00000000E-01  1.50000000E+00  8.00000000E-01
  8.00000000E-01  1.50000000E+00  8.00000000E-01  8.00000000E-01  1.50000000E+00
  8.00000000E-01  8.00000000E-01  1.50000000E+00  8.00000000E-01  8.00000000E-01
  1.50000000E+00  8.00000000E-01  8.00000000E-01  1.50000000E+00  8.00000000E-01
  8.00000000E-01  1.50000000E+00  8.00000000E-01  8.00000000E-01  1.50000000E+00
  8.00000000E-01  8.00000000E-01  1.50000000E+00  8.00000000E-01  8.00000000E-01
  1.50000000E+00  8.00000000E-01  8.00000000E-01  1.50000000E+00  8.00000000E-01
  8.00000000E-01  1.50000000E+00  8.00000000E-01  8.00000000E-01  1.50000000E+00
  8.00000000E-01  8.00000000E-01  1.50000000E+00  8.00000000E-01  8.00000000E-01
  1.50000000E+00  8.00000000E-01  8.00000000E-01  1.50000000E+00  8.00000000E-01
  8.00000000E-01  1.50000000E+00  8.00000000E-01  8.00000000E-01  1.50000000E+00
  8.00000000E-01  8.00000000E-01  1.50000000E+00  8.00000000E-01  8.00000000E-01
  1.50000000E+00  8.00000000E-01  8.00000000E-01  1.50000000E+00  8.00000000E-01
  8.00000000E-01  1.50000000E+00  8.00000000E-01  8.00000000E-01  1.50000000E+00
  8.00000000E-01  8.00000000E-01  1.50000000E+00  8.00000000E-01  8.00000000E-01
  1.50000000E+00  8.00000000E-01  8.00000000E-01  1.50000000E+00  8.00000000E-01
  8.00000000E-01  1.50000000E+00  8.00000000E-01  8.00000000E-01  1.50000000E+00
  8.00000000E-01  8.00000000E-01  1.50000000E+00  8.00000000E-01  8.00000000E-01
  1.50000000E+00  8.00000000E-01  8.00000000E-01  1.50000000E+00  8.00000000E-01
  8.00000000E-01  1.50000000E+00  8.00000000E-01  8.00000000E-01  1.50000000E+00
  8.00000000E-01  8.00000000E-01  1.50000000E+00  8.00000000E-01  8.00000000E-01
  1.50000000E+00  8.00000000E-01  8.00000000E-01  1.50000000E+00  8.00000000E-01
  8.00000000E-01  1.50000000E+00  8.00000000E-01  8.00000000E-01  1.50000000E+00
  8.00000000E-01  8.00000000E-01  1.50000000E+00  8.00000000E-01  8.00000000E-01
  1.50000000E+00  8.00000000E-01  8.00000000E-01  1.50000000E+00  8.00000000E-01
  8.00000000E-01  1.50000000E+00  8.00000000E-01  8.00000000E-01  1.50000000E+00
  8.00000000E-01  8.00000000E-01  1.50000000E+00  8.00000000E-01  8.00000000E-01
  1.50000000E+00  8.00000000E-01  8.00000000E-01  1.50000000E+00  8.00000000E-01
  8.00000000E-01  1.50000000E+00  8.00000000E-01  8.00000000E-01  1.50000000E+00
  8.00000000E-01  8.00000000E-01  1.50000000E+00  8.00000000E-01  8.00000000E-01
  1.50000000E+00  8.00000000E-01  8.00000000E-01  1.50000000E+00  8.00000000E-01
  8.00000000E-01  1.50000000E+00  8.00000000E-01  8.00000000E-01  1.50000000E+00
  8.00000000E-01  8.00000000E-01  1.50000000E+00  8.00000000E-01  8.00000000E-01
  1.50000000E+00  8.00000000E-01  8.00000000E-01  1.50000000E+00  8.00000000E-01
  8.00000000E-01  1.50000000E+00  8.00000000E-01  8.00000000E-01  1.50000000E+00
  8.00000000E-01  8.00000000E-01  1.50000000E+00  8.00000000E-01  8.00000000E-01
  1.50000000E+00  8.00000000E-01  8.00000000E-01  1.50000000E+00  8.00000000E-01
  8.00000000E-01  1.50000000E+00  8.00000000E-01  8.00000000E-01  1.50000000E+00
  8.00000000E-01  8.00000000E-01  1.50000000E+00  8.00000000E-01  8.00000000E-01
  1.50000000E+00  8.00000000E-01  8.00000000E-01  1.50000000E+00  8.00000000E-01
  8.00000000E-01  1.50000000E+00  8.00000000E-01  8.00000000E-01  1.50000000E+00
  8.00000000E-01  8.00000000E-01  1.50000000E+00  8.00000000E-01  8.00000000E-01
  1.50000000E+00  8.00000000E-01  8.00000000E-01  1.50000000E+00  8.00000000E-01
  8.00000000E-01  1.50000000E+00  8.00000000E-01  8.00000000E-01  1.50000000E+00
  8.00000000E-01  8.00000000E-01  1.50000000E+00  8.00000000E-01  8.00000000E-01
  1.50000000E+00  8.00000000E-01  8.00000000E-01  1.50000000E+00  8.00000000E-01
  8.00000000E-01  1.50000000E+00  8.00000000E-01  8.00000000E-01  1.50000000E+00
  8.00000000E-01  8.00000000E-01  1.50000000E+00  8.00000000E-01  8.00000000E-01
  1.50000000E+00  8.00000000E-01  8.00000000E-01  1.50000000E+00  8.00000000E-01
  8.00000000E-01  1.50000000E+00  8.00000000E-01  8.00000000E-01  1.50000000E+00
  8.00000000E-01  8.00000000E-01  1.50000000E+00  8.00000000E-01  8.00000000E-01
  1.50000000E+00  8.00000000E-01  8.00000000E-01  1.50000000E+00  8.00000000E-01
  8.00000000E-01  1.50000000E+00  8.00000000E-01  8.00000000E-01  1.50000000E+00
  8.00000000E-01  8.00000000E-01  1.50000000E+00  8.00000000E-01  8.00000000E-01
  1.50000000E+00  8.00000000E-01  8.00000000E-01  1.50000000E+00  8.00000000E-01
  8.00000000E-01  1.50000000E+00  8.00000000E-01  8.00000000E-01  1.50000000E+00
  8.00000000E-01  8.00000000E-01  1.50000000E+00  8.00000000E-01  8.00000000E-01
  1.50000000E+00  8.00000000E-01  8.00000000E-01  1.50000000E+00  8.00000000E-01
  8.00000000E-01  1.50000000E+00  8.00000000E-01  8.00000000E-01  1.50000000E+00
  8.00000000E-01  8.00000000E-01  1.50000000E+00  8.00000000E-01  8.00000000E-01
  1.50000000E+00  8.00000000E-01  8.00000000E-01  1.50000000E+00  8.00000000E-01
  8.00000000E-01  1.50000000E+00  8.00000000E-01  8.00000000E-01  1.50000000E+00
  8.00000000E-01  8.00000000E-01  1.50000000E+00  8.00000000E-01  8.00000000E-01
  1.50000000E+00  8.00000000E-01  8.00000000E-01  1.50000000E+00  8.00000000E-01
  8.00000000E-01  1.50000000E+00  8.00000000E-01  8.00000000E-01  1.50000000E+00
  8.00000000E-01  8.00000000E-01  1.50000000E+00  8.00000000E-01  8.00000000E-01
  1.50000000E+00  8.00000000E-01  8.00000000E-01  1.50000000E+00  8.00000000E-01
  8.00000000E-01  1.50000000E+00  8.00000000E-01  8.00000000E-01  1.50000000E+00
  8.00000000E-01  8.00000000E-01  1.50000000E+00  8.00000000E-01  8.00000000E-01
  1.50000000E+00  8.00000000E-01  8.00000000E-01  1.50000000E+00  8.00000000E-01
  8.00000000E-01  1.50000000E+00  8.00000000E-01  8.00000000E-01  1.50000000E+00
  8.00000000E-01  8.00000000E-01  1.50000000E+00  8.00000000E-01  8.00000000E-01
  1.50000000E+00  8.00000000E-01  8.00000000E-01  1.50000000E+00  8.00000000E-01
  8.00000000E-01  1.50000000E+00  8.00000000E-01  8.00000000E-01  1.50000000E+00
  8.00000000E-01  8.00000000E-01  1.50000000E+00  8.00000000E-01  8.00000000E-01
  1.50000000E+00  8.00000000E-01  8.00000000E-01  1.50000000E+00  8.00000000E-01
  8.00000000E-01  1.50000000E+00  8.00000000E-01  8.00000000E-01  1.50000000E+00
  8.00000000E-01  8.00000000E-01  1.50000000E+00  8.00000000E-01  8.00000000E-01
  1.50000000E+00  8.00000000E-01  8.00000000E-01  1.50000000E+00  8.00000000E-01
  8.00000000E-01  1.50000000E+00  8.00000000E-01  8.00000000E-01  1.50000000E+00
  8.00000000E-01  8.00000000E-01  1.50000000E+00  8.00000000E-01  8.00000000E-01
  1.50000000E+00  8.00000000E-01  8.00000000E-01  1.50000000E+00  8.00000000E-01
  8.00000000E-01  1.50000000E+00  8.00000000E-01  8.00000000E-01  1.50000000E+00
  8.00000000E-01  8.00000000E-01  1.50000000E+00  8.00000000E-01  8.00000000E-01
  1.50000000E+00  8.00000000E-01  8.00000000E-01  1.50000000E+00  8.00000000E-01
  8.00000000E-01  1.50000000E+00  8.00000000E-01  8.00000000E-01  1.50000000E+00
  8.00000000E-01  8.00000000E-01  1.50000000E+00  8.00000000E-01  8.00000000E-01
  1.50000000E+00  8.00000000E-01  8.00000000E-01  1.50000000E+00  8.00000000E-01
  8.00000000E-01  1.50000000E+00  8.00000000E-01  8.00000000E-01  1.50000000E+00
  8.00000000E-01  8.00000000E-01  1.50000000E+00  8.00000000E-01  8.00000000E-01
  1.50000000E+00  8.00000000E-01  8.00000000E-01  1.50000000E+00  8.00000000E-01
  8.00000000E-01  1.50000000E+00  8.00000000E-01  8.00000000E-01  1.50000000E+00
  8.00000000E-01  8.00000000E-01  1.50000000E+00  8.00000000E-01  8.00000000E-01
  1.50000000E+00  8.00000000E-01  8.00000000E-01  1.50000000E+00  8.00000000E-01
  8.00000000E-01  1.50000000E+00  8.00000000E-01  8.00000000E-01  1.50000000E+00
  8.00000000E-01  8.00000000E-01  1.50000000E+00  8.00000000E-01  8.00000000E-01
  1.50000000E+00  8.00000000E-01  8.00000000E-01  1.50000000E+00  8.00000000E-01
  8.00000000E-01  1.50000000E+00  8.00000000E-01  8.00000000E-01  1.50000000E+00
  8.00000000E-01  8.00000000E-01  1.50000000E+00  8.00000000E-01  8.00000000E-01
  1.50000000E+00  8.00000000E-01  8.00000000E-01  1.50000000E+00  8.00000000E-01
  8.00000000E-01  1.50000000E+00  8.00000000E-01  8.00000000E-01  1.50000000E+00
  8.00000000E-01  8.00000000E-01  1.50000000E+00  8.00000000E-01  8.00000000E-01
  1.50000000E+00  8.00000000E-01  8.00000000E-01  1.50000000E+00  8.00000000E-01
  8.00000000E-01  1.50000000E+00  8.00000000E-01  8.00000000E-01  1.50000000E+00
  8.00000000E-01  8.00000000E-01  1.50000000E+00  8.00000000E-01  8.00000000E-01
  1.50000000E+00  8.00000000E-01  8.00000000E-01  1.50000000E+00  8.00000000E-01
  8.00000000E-01  1.50000000E+00  8.00000000E-01  8.00000000E-01  1.50000000E+00
  8.00000000E-01  8.00000000E-01  1.50000000E+00  8.00000000E-01  8.00000000E-01
  1.50000000E+00  8.00000000E-01  8.00000000E-01  1.50000000E+00  8.00000000E-01
  8.00000000E-01  1.50000000E+00  8.00000000E-01  8.00000000E-01  1.50000000E+00
  8.00000000E-01  8.00000000E-01  1.50000000E+00  8.00000000E-01  8.00000000E-01
  1.50000000E+00  8.00000000E-01  8.00000000E-01  1.50000000E+00  8.00000000E-01
  8.00000000E-01  1.50000000E+00  8.00000000E-01  8.00000000E-01  1.50000000E+00
  8.00000000E-01  8.00000000E-01  1.50000000E+00  8.00000000E-01  8.00000000E-01
  1.50000000E+00  8.00000000E-01  8.00000000E-01  1.50000000E+00  8.00000000E-01
  8.00000000E-01  1.50000000E+00  8.00000000E-01  8.00000000E-01  1.50000000E+00
  8.00000000E-01  8.00000000E-01  1.50000000E+00  8.00000000E-01  8.00000000E-01
  1.50000000E+00  8.00000000E-01  8.00000000E-01  1.50000000E+00  8.00000000E-01
  8.00000000E-01  1.50000000E+00  8.00000000E-01  8.00000000E-01  1.50000000E+00
  8.00000000E-01  8.00000000E-01  1.50000000E+00  8.00000000E-01  8.00000000E-01
  1.50000000E+00  8.00000000E-01  8.00000000E-01  1.50000000E+00  8.00000000E-01
  8.00000000E-01  1.50000000E+00  8.00000000E-01  8.00000000E-01  1.50000000E+00
  8.00000000E-01  8.00000000E-01  1.50000000E+00  8.00000000E-01  8.00000000E-01
  1.50000000E+00  8.00000000E-01  8.00000000E-01  1.50000000E+00  8.00000000E-01
  8.00000000E-01  1.50000000E+00  8.00000000E-01  8.00000000E-01  1.50000000E+00
  8.00000000E-01  8.00000000E-01  1.50000000E+00  8.00000000E-01  8.00000000E-01
  1.50000000E+00  8.00000000E-01  8.00000000E-01  1.50000000E+00  8.00000000E-01
  8.00000000E-01  1.50000000E+00  8.00000000E-01  8.00000000E-01  1.50000000E+00
  8.00000000E-01  8.00000000E-01  1.50000000E+00  8.00000000E-01  8.00000000E-01
  1.50000000E+00  8.00000000E-01  8.00000000E-01  1.50000000E+00  8.00000000E-01
  8.00000000E-01  1.50000000E+00  8.00000000E-01  8.00000000E-01  1.50000000E+00
  8.00000000E-01  8.00000000E-01  1.50000000E+00  8.00000000E-01  8.00000000E-01
  1.50000000E+00  8.00000000E-01  8.00000000E-01  1.50000000E+00  8.00000000E-01
  8.00000000E-01  1.50000000E+00  8.00000000E-01  8.00000000E-01  1.50000000E+00
  8.00000000E-01  8.00000000E-01  1.50000000E+00  8.00000000E-01  8.00000000E-01
  1.50000000E+00  8.00000000E-01  8.00000000E-01  1.50000000E+00  8.00000000E-01
  8.00000000E-01  1.50000000E+00  8.00000000E-01  8.00000000E-01  1.50000000E+00
  8.00000000E-01  8.00000000E-01  1.50000000E+00  8.00000000E-01  8.00000000E-01
  1.50000000E+00  8.00000000E-01  8.00000000E-01  1.50000000E+00  8.00000000E-01
  8.00000000E-01  1.50000000E+00  8.00000000E-01  8.00000000E-01  1.50000000E+00
  8.00000000E-01  8.00000000E-01  1.50000000E+00  8.00000000E-01  8.00000000E-01
  1.50000000E+00  8.00000000E-01  8.00000000E-01  1.50000000E+00  8.00000000E-01
  8.00000000E-01  1.50000000E+00  8.00000000E-01  8.00000000E-01  1.50000000E+00
  8.00000000E-01  8.00000000E-01  1.50000000E+00  8.00000000E-01  8.00000000E-01
  1.50000000E+00  8.00000000E-01  8.00000000E-01  1.50000000E+00  8.00000000E-01
  8.00000000E-01  1.50000000E+00  8.00000000E-01  8.00000000E-01  1.50000000E+00
  8.00000000E-01  8.00000000E-01  1.50000000E+00  8.00000000E-01  8.00000000E-01
  1.50000000E+00  8.00000000E-01  8.00000000E-01  1.50000000E+00  8.00000000E-01
  8.00000000E-01  1.50000000E+00  8.00000000E-01  8.00000000E-01  1.50000000E+00
  8.00000000E-01  8.00000000E-01  1.50000000E+00  8.00000000E-01  8.00000000E-01
  1.50000000E+00  8.00000000E-01  8.00000000E-01  1.50000000E+00  8.00000000E-01
  8.00000000E-01  1.50000000E+00  8.00000000E-01  8.00000000E-01  1.50000000E+00
  8.00000000E-01  8.00000000E-01  1.50000000E+00  8.00000000E-01  8.00000000E-01
  1.50000000E+00  8.00000000E-01  8.00000000E-01  1.50000000E+00  8.00000000E-01
  8.00000000E-01  1.50000000E+00  8.00000000E-01  8.00000000E-01  1.50000000E+00
  8.00000000E-01  8.00000000E-01  1.50000000E+00  8.00000000E-01  8.00000000E-01
  1.50000000E+00  8.00000000E-01  8.00000000E-01  1.50000000E+00  8.00000000E-01
  8.00000000E-01  1.50000000E+00  8.00000000E-01  8.00000000E-01  1.50000000E+00
  8.00000000E-01  8.00000000E-01  1.50000000E+00  8.00000000E-01  8.00000000E-01
  1.50000000E+00  8.00000000E-01  8.00000000E-01  1.50000000E+00  8.00000000E-01
  8.00000000E-01  1.50000000E+00  8.00000000E-01  8.00000000E-01  1.50000000E+00
  8.00000000E-01  8.00000000E-01  1.50000000E+00  8.00000000E-01  8.00000000E-01
  1.50000000E+00  8.00000000E-01  8.00000000E-01  1.50000000E+00  8.00000000E-01
  8.00000000E-01  1.50000000E+00  8.00000000E-01  8.00000000E-01  1.50000000E+00
  8.00000000E-01  8.00000000E-01  1.50000000E+00  8.00000000E-01  8.00000000E-01
  1.50000000E+00  8.00000000E-01  8.00000000E-01  1.50000000E+00  8.00000000E-01
  8.00000000E-01  1.50000000E+00  8.00000000E-01  8.00000000E-01  1.50000000E+00
  8.00000000E-01  8.00000000E-01  1.50000000E+00  8.00000000E-01  8.00000000E-01
  1.50000000E+00  8.00000000E-01  8.00000000E-01  1.50000000E+00  8.00000000E-01
  8.00000000E-01  1.50000000E+00  8.00000000E-01  8.00000000E-01  1.50000000E+00
  8.00000000E-01  8.00000000E-01  1.50000000E+00  8.00000000E-01  8.00000000E-01
  1.50000000E+00  8.00000000E-01  8.00000000E-01  1.50000000E+00  8.00000000E-01
  8.00000000E-01  1.50000000E+00  8.00000000E-01  8.00000000E-01  1.50000000E+00
  8.00000000E-01  8.00000000E-01  1.50000000E+00  8.00000000E-01  8.00000000E-01
  1.50000000E+00  8.00000000E-01  8.00000000E-01  1.50000000E+00  8.00000000E-01
  8.00000000E-01  1.50000000E+00  8.00000000E-01  8.00000000E-01  1.50000000E+00
  8.00000000E-01  8.00000000E-01  1.50000000E+00  8.00000000E-01  8.00000000E-01
  1.50000000E+00  8.00000000E-01  8.00000000E-01  1.50000000E+00  8.00000000E-01
  8.00000000E-01  1.50000000E+00  8.00000000E-01  8.00000000E-01  1.50000000E+00
  8.00000000E-01  8.00000000E-01  1.50000000E+00  8.00000000E-01  8.00000000E-01
  1.50000000E+00  8.00000000E-01  8.00000000E-01  1.50000000E+00  8.00000000E-01
  8.00000000E-01  1.50000000E+00  8.00000000E-01  8.00000000E-01  1.50000000E+00
  8.00000000E-01  8.00000000E-01  1.50000000E+00  8.00000000E-01  8.00000000E-01
  1.50000000E+00  8.00000000E-01  8.00000000E-01  1.50000000E+00  8.00000000E-01
  8.00000000E-01  1.50000000E+00  8.00000000E-01  8.00000000E-01  1.50000000E+00
  8.00000000E-01  8.00000000E-01  1.50000000E+00  8.00000000E-01  8.00000000E-01
  1.50000000E+00  8.00000000E-01  8.00000000E-01  1.50000000E+00  8.00000000E-01
  8.00000000E-01  1.50000000E+00  8.00000000E-01  8.00000000E-01  1.50000000E+00
  8.00000000E-01  8.00000000E-01  1.50000000E+00  8.00000000E-01  8.00000000E-01
  1.50000000E+00  8.00000000E-01  8.00000000E-01  1.50000000E+00  8.00000000E-01
  8.00000000E-01  1.50000000E+00  8.00000000E-01  8.00000000E-01  1.50000000E+00
  8.00000000E-01  8.00000000E-01  1.50000000E+00  8.00000000E-01  8.00000000E-01
  1.50000000E+00  8.00000000E-01  8.00000000E-01  1.50000000E+00  8.00000000E-01
  8.00000000E-01  1.50000000E+00  8.00000000E-01  8.00000000E-01  1.50000000E+00
  8.00000000E-01  8.00000000E-01  1.50000000E+00  8.00000000E-01  8.00000000E-01
  1.50000000E+00  8.00000000E-01  8.00000000E-01  1.50000000E+00  8.00000000E-01
  8.00000000E-01  1.50000000E+00  8.00000000E-01  8.00000000E-01  1.50000000E+00
  8.00000000E-01  8.00000000E-01  1.50000000E+00  8.00000000E-01  8.00000000E-01
  1.50000000E+00  8.00000000E-01  8.00000000E-01  1.50000000E+00  8.00000000E-01
  8.00000000E-01  1.50000000E+00  8.00000000E-01  8.00000000E-01  1.50000000E+00
  8.00000000E-01  8.00000000E-01  1.50000000E+00  8.00000000E-01  8.00000000E-01
  1.50000000E+00  8.00000000E-01  8.00000000E-01  1.50000000E+00  8.00000000E-01
  8.00000000E-01  1.50000000E+00  8.00000000E-01  8.00000000E-01  1.50000000E+00
  8.00000000E-01  8.00000000E-01  1.50000000E+00  8.00000000E-01  8.00000000E-01
  1.50000000E+00  8.00000000E-01  8.00000000E-01  1.50000000E+00  8.00000000E-01
  8.00000000E-01  1.50000000E+00  8.00000000E-01  8.00000000E-01  1.50000000E+00
  8.00000000E-01  8.00000000E-01  1.50000000E+00  8.00000000E-01  8.00000000E-01
  1.50000000E+00  8.00000000E-01  8.00000000E-01  1.50000000E+00  8.00000000E-01
  8.00000000E-01  1.50000000E+00  8.00000000E-01  8.00000000E-01  1.50000000E+00
  8.00000000E-01  8.00000000E-01  1.50000000E+00  8.00000000E-01  8.00000000E-01
  1.50000000E+00  8.00000000E-01  8.00000000E-01  1.50000000E+00  8.00000000E-01
  8.00000000E-01  1.50000000E+00  8.00000000E-01  8.00000000E-01  1.50000000E+00
  8.00000000E-01  8.00000000E-01  1.50000000E+00  8.00000000E-01  8.00000000E-01
  1.50000000E+00  8.00000000E-01  8.00000000E-01  1.50000000E+00  8.00000000E-01
  8.00000000E-01  1.50000000E+00  8.00000000E-01  8.00000000E-01  1.50000000E+00
  8.00000000E-01  8.00000000E-01  1.50000000E+00  8.00000000E-01  8.00000000E-01
  1.50000000E+00  8.00000000E-01  8.00000000E-01  1.50000000E+00  8.00000000E-01
  8.00000000E-01  1.50000000E+00  8.00000000E-01  8.00000000E-01  1.50000000E+00
  8.00000000E-01  8.00000000E-01  1.50000000E+00  8.00000000E-01  8.00000000E-01
  1.50000000E+00  8.00000000E-01  8.00000000E-01  1.50000000E+00  8.00000000E-01
  8.00000000E-01  1.50000000E+00  8.00000000E-01  8.00000000E-01  1.50000000E+00
  8.00000000E-01  8.00000000E-01  1.50000000E+00  8.00000000E-01  8.00000000E-01
  1.50000000E+00  8.00000000E-01  8.00000000E-01  1.50000000E+00  8.00000000E-01
  8.00000000E-01  1.50000000E+00  8.00000000E-01  8.00000000E-01  1.50000000E+00
  8.00000000E-01  8.00000000E-01  1.50000000E+00  8.00000000E-01  8.00000000E-01
  1.50000000E+00  8.00000000E-01  8.00000000E-01  1.50000000E+00  8.00000000E-01
  8.00000000E-01  1.50000000E+00  8.00000000E-01  8.00000000E-01  1.50000000E+00
  8.00000000E-01  8.00000000E-01  1.50000000E+00  8.00000000E-01  8.00000000E-01
  1.50000000E+00  8.00000000E-01  8.00000000E-01  1.50000000E+00  8.00000000E-01
  8.00000000E-01  1.50000000E+00  8.00000000E-01  8.00000000E-01  1.50000000E+00
  8.00000000E-01  8.00000000E-01  1.50000000E+00  8.00000000E-01  8.00000000E-01
  1.50000000E+00  8.00000000E-01  8.00000000E-01  1.50000000E+00  8.00000000E-01
  8.00000000E-01  1.50000000E+00  8.00000000E-01  8.00000000E-01  1.50000000E+00
  8.00000000E-01  8.00000000E-01  1.50000000E+00  8.00000000E-01  8.00000000E-01
  1.50000000E+00  8.00000000E-01  8.00000000E-01  1.50000000E+00  8.00000000E-01
  8.00000000E-01  1.50000000E+00  8.00000000E-01  8.00000000E-01  1.50000000E+00
  8.00000000E-01  8.00000000E-01  1.50000000E+00  8.00000000E-01  8.00000000E-01
  1.50000000E+00  8.00000000E-01  8.00000000E-01  1.50000000E+00  8.00000000E-01
  8.00000000E-01  1.50000000E+00  8.00000000E-01  8.00000000E-01  1.50000000E+00
  8.00000000E-01  8.00000000E-01  1.50000000E+00  8.00000000E-01  8.00000000E-01
  1.50000000E+00  8.00000000E-01  8.00000000E-01  1.50000000E+00  8.00000000E-01
  8.00000000E-01  1.50000000E+00  8.00000000E-01  8.00000000E-01  1.50000000E+00
  8.00000000E-01  8.00000000E-01  1.50000000E+00  8.00000000E-01  8.00000000E-01
  1.50000000E+00  8.00000000E-01  8.00000000E-01  1.50000000E+00  8.00000000E-01
  8.00000000E-01  1.50000000E+00  8.00000000E-01  8.00000000E-01  1.50000000E+00
  8.00000000E-01  8.00000000E-01  1.50000000E+00  8.00000000E-01  8.00000000E-01
  1.50000000E+00  8.00000000E-01  8.00000000E-01  1.50000000E+00  8.00000000E-01
  8.00000000E-01  1.50000000E+00  8.00000000E-01  8.00000000E-01  1.50000000E+00
  8.00000000E-01  8.00000000E-01  1.50000000E+00  8.00000000E-01  8.00000000E-01
  1.50000000E+00  8.00000000E-01  8.00000000E-01  1.50000000E+00  8.00000000E-01
  8.00000000E-01  1.50000000E+00  8.00000000E-01  8.00000000E-01  1.50000000E+00
  8.00000000E-01  8.00000000E-01  1.50000000E+00  8.00000000E-01  8.00000000E-01
  1.50000000E+00  8.00000000E-01  8.00000000E-01  1.50000000E+00  8.00000000E-01
  8.00000000E-01  1.50000000E+00  8.00000000E-01  8.00000000E-01  1.50000000E+00
  8.00000000E-01  8.00000000E-01  1.50000000E+00  8.00000000E-01  8.00000000E-01
  1.50000000E+00  8.00000000E-01  8.00000000E-01  1.50000000E+00  8.00000000E-01
  8.00000000E-01  1.50000000E+00  8.00000000E-01  8.00000000E-01  1.50000000E+00
  8.00000000E-01  8.00000000E-01  1.50000000E+00  8.00000000E-01  8.00000000E-01
  1.50000000E+00  8.00000000E-01  8.00000000E-01  1.50000000E+00  8.00000000E-01
  8.00000000E-01  1.50000000E+00  8.00000000E-01  8.00000000E-01  1.50000000E+00
  8.00000000E-01  8.00000000E-01  1.50000000E+00  8.00000000E-01  8.00000000E-01
  1.50000000E+00  8.00000000E-01  8.00000000E-01  1.50000000E+00  8.00000000E-01
  8.00000000E-01  1.50000000E+00  8.00000000E-01  8.00000000E-01  1.50000000E+00
  8.00000000E-01  8.00000000E-01  1.50000000E+00  8.00000000E-01  8.00000000E-01
  1.50000000E+00  8.00000000E-01  8.00000000E-01  1.50000000E+00  8.00000000E-01
  8.00000000E-01  1.50000000E+00  8.00000000E-01  8.00000000E-01  1.50000000E+00
  8.00000000E-01  8.00000000E-01  1.50000000E+00  8.00000000E-01  8.00000000E-01
  1.50000000E+00  8.00000000E-01  8.00000000E-01  1.50000000E+00  8.00000000E-01
  8.00000000E-01  1.50000000E+00  8.00000000E-01  8.00000000E-01  1.50000000E+00
  8.00000000E-01  8.00000000E-01  1.50000000E+00  8.00000000E-01  8.00000000E-01
  1.50000000E+00  8.00000000E-01  8.00000000E-01  1.50000000E+00  8.00000000E-01
  8.00000000E-01  1.50000000E+00  8.00000000E-01  8.00000000E-01  1.50000000E+00
  8.00000000E-01  8.00000000E-01  1.50000000E+00  8.00000000E-01  8.00000000E-01
  1.50000000E+00  8.00000000E-01  8.00000000E-01  1.50000000E+00  8.00000000E-01
  8.00000000E-01  1.50000000E+00  8.00000000E-01  8.00000000E-01  1.50000000E+00
  8.00000000E-01  8.00000000E-01  1.50000000E+00  8.00000000E-01  8.00000000E-01
  1.50000000E+00  8.00000000E-01  8.00000000E-01  1.50000000E+00  8.00000000E-01
  8.00000000E-01  1.50000000E+00  8.00000000E-01  8.00000000E-01  1.50000000E+00
  8.00000000E-01  8.00000000E-01  1.50000000E+00  8.00000000E-01  8.00000000E-01
  1.50000000E+00  8.00000000E-01  8.00000000E-01  1.50000000E+00  8.00000000E-01
  8.00000000E-01  1.50000000E+00  8.00000000E-01  8.00000000E-01  1.50000000E+00
  8.00000000E-01  8.00000000E-01  1.50000000E+00  8.00000000E-01  8.00000000E-01
  1.50000000E+00  8.00000000E-01  8.00000000E-01  1.50000000E+00  8.00000000E-01
  8.00000000E-01  1.50000000E+00  8.00000000E-01  8.00000000E-01  1.50000000E+00
  8.00000000E-01  8.00000000E-01  1.50000000E+00  8.00000000E-01  8.00000000E-01
  1.50000000E+00  8.00000000E-01  8.00000000E-01  1.50000000E+00  8.00000000E-01
  8.00000000E-01  1.50000000E+00  8.00000000E-01  8.00000000E-01  1.50000000E+00
  8.00000000E-01  8.00000000E-01  1.50000000E+00  8.00000000E-01  8.00000000E-01
  1.50000000E+00  8.00000000E-01  8.00000000E-01  1.50000000E+00  8.00000000E-01
  8.00000000E-01  1.50000000E+00  8.00000000E-01  8.00000000E-01  1.50000000E+00
  8.00000000E-01  8.00000000E-01  1.50000000E+00  8.00000000E-01  8.00000000E-01
  1.50000000E+00  8.00000000E-01  8.00000000E-01  1.50000000E+00  8.00000000E-01
  8.00000000E-01  1.50000000E+00  8.00000000E-01  8.00000000E-01  1.50000000E+00
  8.00000000E-01  8.00000000E-01  1.50000000E+00  8.00000000E-01  8.00000000E-01
  1.50000000E+00  8.00000000E-01  8.00000000E-01  1.50000000E+00  8.00000000E-01
  8.00000000E-01  1.50000000E+00  8.00000000E-01  8.00000000E-01  1.50000000E+00
  8.00000000E-01  8.00000000E-01  1.50000000E+00  8.00000000E-01  8.00000000E-01
  1.50000000E+00  8.00000000E-01  8.00000000E-01  1.50000000E+00  8.00000000E-01
  8.00000000E-01  1.50000000E+00  8.00000000E-01  8.00000000E-01  1.50000000E+00
  8.00000000E-01  8.00000000E-01  1.50000000E+00  8.00000000E-01  8.00000000E-01
  1.50000000E+00  8.00000000E-01  8.00000000E-01  1.50000000E+00  8.00000000E-01
  8.00000000E-01  1.50000000E+00  8.00000000E-01  8.00000000E-01  1.50000000E+00
  8.00000000E-01  8.00000000E-01  1.50000000E+00  8.00000000E-01  8.00000000E-01
  1.50000000E+00  8.00000000E-01  8.00000000E-01  1.50000000E+00  8.00000000E-01
  8.00000000E-01  1.50000000E+00  8.00000000E-01  8.00000000E-01  1.50000000E+00
  8.00000000E-01  8.00000000E-01  1.50000000E+00  8.00000000E-01  8.00000000E-01
  1.50000000E+00  8.00000000E-01  8.00000000E-01  1.50000000E+00  8.00000000E-01
  8.00000000E-01  1.50000000E+00  8.00000000E-01  8.00000000E-01  1.50000000E+00
  8.00000000E-01  8.00000000E-01  1.50000000E+00  8.00000000E-01  8.00000000E-01
  1.50000000E+00  8.00000000E-01  8.00000000E-01  1.50000000E+00  8.00000000E-01
  8.00000000E-01  1.50000000E+00  8.00000000E-01  8.00000000E-01  1.50000000E+00
  8.00000000E-01  8.00000000E-01  1.50000000E+00  8.00000000E-01  8.00000000E-01
  1.50000000E+00  8.00000000E-01  8.00000000E-01  1.50000000E+00  8.00000000E-01
  8.00000000E-01  1.50000000E+00  8.00000000E-01  8.00000000E-01  1.50000000E+00
  8.00000000E-01  8.00000000E-01  1.50000000E+00  8.00000000E-01  8.00000000E-01
  1.50000000E+00  8.00000000E-01  8.00000000E-01  1.50000000E+00  8.00000000E-01
  8.00000000E-01  1.50000000E+00  8.00000000E-01  8.00000000E-01  1.50000000E+00
  8.00000000E-01  8.00000000E-01  1.50000000E+00  8.00000000E-01  8.00000000E-01
  1.50000000E+00  8.00000000E-01  8.00000000E-01  1.50000000E+00  8.00000000E-01
  8.00000000E-01  1.50000000E+00  8.00000000E-01  8.00000000E-01  1.50000000E+00
  8.00000000E-01  8.00000000E-01  1.50000000E+00  8.00000000E-01  8.00000000E-01
  1.50000000E+00  8.00000000E-01  8.00000000E-01  1.50000000E+00  8.00000000E-01
  8.00000000E-01  1.50000000E+00  8.00000000E-01  8.00000000E-01  1.50000000E+00
  8.00000000E-01  8.00000000E-01  1.50000000E+00  8.00000000E-01  8.00000000E-01
  1.50000000E+00  8.00000000E-01  8.00000000E-01  1.50000000E+00  8.00000000E-01
  8.00000000E-01  1.50000000E+00  8.00000000E-01  8.00000000E-01  1.50000000E+00
  8.00000000E-01  8.00000000E-01  1.50000000E+00  8.00000000E-01  8.00000000E-01
  1.50000000E+00  8.00000000E-01  8.00000000E-01  1.50000000E+00  8.00000000E-01
  8.00000000E-01  1.50000000E+00  8.00000000E-01  8.00000000E-01  1.50000000E+00
  8.00000000E-01  8.00000000E-01  1.50000000E+00  8.00000000E-01  8.00000000E-01
  1.50000000E+00  8.00000000E-01  8.00000000E-01  1.50000000E+00  8.00000000E-01
  8.00000000E-01  1.50000000E+00  8.00000000E-01  8.00000000E-01  1.50000000E+00
  8.00000000E-01  8.00000000E-01  1.50000000E+00  8.00000000E-01  8.00000000E-01
  1.50000000E+00  8.00000000E-01  8.00000000E-01  1.50000000E+00  8.00000000E-01
  8.00000000E-01  1.50000000E+00  8.00000000E-01  8.00000000E-01  1.50000000E+00
  8.00000000E-01  8.00000000E-01  1.50000000E+00  8.00000000E-01  8.00000000E-01
  1.50000000E+00  8.00000000E-01  8.00000000E-01  1.50000000E+00  8.00000000E-01
  8.00000000E-01  1.50000000E+00  8.00000000E-01  8.00000000E-01  1.50000000E+00
  8.00000000E-01  8.00000000E-01  1.50000000E+00  8.00000000E-01  8.00000000E-01
  1.50000000E+00  8.00000000E-01  8.00000000E-01  1.50000000E+00  8.00000000E-01
  8.00000000E-01  1.50000000E+00  8.00000000E-01  8.00000000E-01  1.50000000E+00
  8.00000000E-01  8.00000000E-01  1.50000000E+00  8.00000000E-01  8.00000000E-01
  1.50000000E+00  8.00000000E-01  8.00000000E-01  1.50000000E+00  8.00000000E-01
  8.00000000E-01  1.50000000E+00  8.00000000E-01  8.00000000E-01  1.50000000E+00
  8.00000000E-01  8.00000000E-01  1.50000000E+00  8.00000000E-01  8.00000000E-01
  1.50000000E+00  8.00000000E-01  8.00000000E-01  1.50000000E+00  8.00000000E-01
  8.00000000E-01  1.50000000E+00  8.00000000E-01  8.00000000E-01  1.50000000E+00
  8.00000000E-01  8.00000000E-01  1.50000000E+00  8.00000000E-01  8.00000000E-01
  1.50000000E+00  8.00000000E-01  8.00000000E-01  1.50000000E+00  8.00000000E-01
  8.00000000E-01  1.50000000E+00  8.00000000E-01  8.00000000E-01  1.50000000E+00
  8.00000000E-01  8.00000000E-01  1.50000000E+00  8.00000000E-01  8.00000000E-01
  1.50000000E+00  8.00000000E-01  8.00000000E-01  1.50000000E+00  8.00000000E-01
  8.00000000E-01  1.50000000E+00  8.00000000E-01  8.00000000E-01  1.50000000E+00
  8.00000000E-01  8.00000000E-01  1.50000000E+00  8.00000000E-01  8.00000000E-01
  1.50000000E+00  8.00000000E-01  8.00000000E-01  1.50000000E+00  8.00000000E-01
  8.00000000E-01  1.50000000E+00  8.00000000E-01  8.00000000E-01  1.50000000E+00
  8.00000000E-01  8.00000000E-01  1.50000000E+00  8.00000000E-01  8.00000000E-01
  1.50000000E+00  8.00000000E-01  8.00000000E-01  1.50000000E+00  8.00000000E-01
  8.00000000E-01  1.50000000E+00  8.00000000E-01  8.00000000E-01  1.50000000E+00
  8.00000000E-01  8.00000000E-01  1.50000000E+00  8.00000000E-01  8.00000000E-01
  1.50000000E+00  8.00000000E-01  8.00000000E-01  1.50000000E+00  8.00000000E-01
  8.00000000E-01  1.50000000E+00  8.00000000E-01  8.00000000E-01  1.50000000E+00
  8.00000000E-01  8.00000000E-01  1.50000000E+00  8.00000000E-01  8.00000000E-01
  1.50000000E+00  8.00000000E-01  8.00000000E-01  1.50000000E+00  8.00000000E-01
  8.00000000E-01  1.50000000E+00  8.00000000E-01  8.00000000E-01  1.50000000E+00
  8.00000000E-01  8.00000000E-01  1.50000000E+00  8.00000000E-01  8.00000000E-01
  1.50000000E+00  8.00000000E-01  8.00000000E-01  1.50000000E+00  8.00000000E-01
  8.00000000E-01  1.50000000E+00  8.00000000E-01  8.00000000E-01  1.50000000E+00
  8.00000000E-01  8.00000000E-01  1.50000000E+00  8.00000000E-01  8.00000000E-01
  1.50000000E+00  8.00000000E-01  8.00000000E-01  1.50000000E+00  8.00000000E-01
  8.00000000E-01  1.50000000E+00  8.00000000E-01  8.00000000E-01  1.50000000E+00
  8.00000000E-01  8.00000000E-01  1.50000000E+00  8.00000000E-01  8.00000000E-01
  1.50000000E+00  8.00000000E-01  8.00000000E-01  1.50000000E+00  8.00000000E-01
  8.00000000E-01  1.50000000E+00  8.00000000E-01  8.00000000E-01  1.50000000E+00
  8.00000000E-01  8.00000000E-01  1.50000000E+00  8.00000000E-01  8.00000000E-01
  1.50000000E+00  8.00000000E-01  8.00000000E-01  1.50000000E+00  8.00000000E-01
  8.00000000E-01  1.50000000E+00  8.00000000E-01  8.00000000E-01  1.50000000E+00
  8.00000000E-01  8.00000000E-01  1.50000000E+00  8.00000000E-01  8.00000000E-01
  1.50000000E+00  8.00000000E-01  8.00000000E-01  1.50000000E+00  8.00000000E-01
  8.00000000E-01  1.50000000E+00  8.00000000E-01  8.00000000E-01  1.50000000E+00
  8.00000000E-01  8.00000000E-01  1.50000000E+00  8.00000000E-01  8.00000000E-01
  1.50000000E+00  8.00000000E-01  8.00000000E-01  1.50000000E+00  8.00000000E-01
  8.00000000E-01  1.50000000E+00  8.00000000E-01  8.00000000E-01  1.50000000E+00
  8.00000000E-01  8.00000000E-01  1.50000000E+00  8.00000000E-01  8.00000000E-01
  1.50000000E+00  8.00000000E-01  8.00000000E-01  1.50000000E+00  8.00000000E-01
  8.00000000E-01  1.50000000E+00  8.00000000E-01  8.00000000E-01  1.50000000E+00
  8.00000000E-01  8.00000000E-01  1.50000000E+00  8.00000000E-01  8.00000000E-01
  1.50000000E+00  8.00000000E-01  8.00000000E-01  1.50000000E+00  8.00000000E-01
  8.00000000E-01  1.50000000E+00  8.00000000E-01  8.00000000E-01  1.50000000E+00
  8.00000000E-01  8.00000000E-01  1.50000000E+00  8.00000000E-01  8.00000000E-01
  1.50000000E+00  8.00000000E-01  8.00000000E-01  1.50000000E+00  8.00000000E-01
  8.00000000E-01  1.50000000E+00  8.00000000E-01  8.00000000E-01  1.50000000E+00
  8.00000000E-01  8.00000000E-01  1.50000000E+00  8.00000000E-01  8.00000000E-01
  1.50000000E+00  8.00000000E-01  8.00000000E-01  1.50000000E+00  8.00000000E-01
  8.00000000E-01  1.50000000E+00  8.00000000E-01  8.00000000E-01  1.50000000E+00
  8.00000000E-01  8.00000000E-01  1.50000000E+00  8.00000000E-01  8.00000000E-01
  1.50000000E+00  8.00000000E-01  8.00000000E-01  1.50000000E+00  8.00000000E-01
  8.00000000E-01  1.50000000E+00  8.00000000E-01  8.00000000E-01  1.50000000E+00
  8.00000000E-01  8.00000000E-01  1.50000000E+00  8.00000000E-01  8.00000000E-01
  1.50000000E+00  8.00000000E-01  8.00000000E-01  1.50000000E+00  8.00000000E-01
  8.00000000E-01  1.50000000E+00  8.00000000E-01  8.00000000E-01  1.50000000E+00
  8.00000000E-01  8.00000000E-01  1.50000000E+00  8.00000000E-01  8.00000000E-01
  1.50000000E+00  8.00000000E-01  8.00000000E-01  1.50000000E+00  8.00000000E-01
  8.00000000E-01  1.50000000E+00  8.00000000E-01  8.00000000E-01  1.50000000E+00
  8.00000000E-01  8.00000000E-01  1.50000000E+00  8.00000000E-01  8.00000000E-01
  1.50000000E+00  8.00000000E-01  8.00000000E-01  1.50000000E+00  8.00000000E-01
  8.00000000E-01  1.50000000E+00  8.00000000E-01  8.00000000E-01  1.50000000E+00
  8.00000000E-01  8.00000000E-01  1.50000000E+00  8.00000000E-01  8.00000000E-01
  1.50000000E+00  8.00000000E-01  8.00000000E-01  1.50000000E+00  8.00000000E-01
  8.00000000E-01  1.50000000E+00  8.00000000E-01  8.00000000E-01  1.50000000E+00
  8.00000000E-01  8.00000000E-01  1.50000000E+00  8.00000000E-01  8.00000000E-01
  1.50000000E+00  8.00000000E-01  8.00000000E-01  1.50000000E+00  8.00000000E-01
  8.00000000E-01  1.50000000E+00  8.00000000E-01  8.00000000E-01  1.50000000E+00
  8.00000000E-01  8.00000000E-01  1.50000000E+00  8.00000000E-01  8.00000000E-01
  1.50000000E+00  8.00000000E-01  8.00000000E-01  1.50000000E+00  8.00000000E-01
  8.00000000E-01  1.50000000E+00  8.00000000E-01  8.00000000E-01  1.50000000E+00
  8.00000000E-01  8.00000000E-01  1.50000000E+00  8.00000000E-01  8.00000000E-01
  1.50000000E+00  8.00000000E-01  8.00000000E-01  1.50000000E+00  8.00000000E-01
  8.00000000E-01  1.50000000E+00  8.00000000E-01  8.00000000E-01  1.50000000E+00
  8.00000000E-01  8.00000000E-01  1.50000000E+00  8.00000000E-01  8.00000000E-01
  1.50000000E+00  8.00000000E-01  8.00000000E-01  1.50000000E+00  8.00000000E-01
  8.00000000E-01  1.50000000E+00  8.00000000E-01  8.00000000E-01  1.50000000E+00
  8.00000000E-01  8.00000000E-01  1.50000000E+00  8.00000000E-01  8.00000000E-01
  1.50000000E+00  8.00000000E-01  8.00000000E-01  1.50000000E+00  8.00000000E-01
  8.00000000E-01  1.50000000E+00  8.00000000E-01  8.00000000E-01  1.50000000E+00
  8.00000000E-01  8.00000000E-01  1.50000000E+00  8.00000000E-01  8.00000000E-01
  1.50000000E+00  8.00000000E-01  8.00000000E-01  1.50000000E+00  8.00000000E-01
  8.00000000E-01  1.50000000E+00  8.00000000E-01  8.00000000E-01  1.50000000E+00
  8.00000000E-01  8.00000000E-01  1.50000000E+00  8.00000000E-01  8.00000000E-01
  1.50000000E+00  8.00000000E-01  8.00000000E-01  1.50000000E+00  8.00000000E-01
  8.00000000E-01  1.50000000E+00  8.00000000E-01  8.00000000E-01  1.50000000E+00
  8.00000000E-01  8.00000000E-01  1.50000000E+00  8.00000000E-01  8.00000000E-01
  1.50000000E+00  8.00000000E-01  8.00000000E-01  1.50000000E+00  8.00000000E-01
  8.00000000E-01  1.50000000E+00  8.00000000E-01  8.00000000E-01  1.50000000E+00
  8.00000000E-01  8.00000000E-01  1.50000000E+00  8.00000000E-01  8.00000000E-01
  1.50000000E+00  8.00000000E-01  8.00000000E-01  1.50000000E+00  8.00000000E-01
  8.00000000E-01  1.50000000E+00  8.00000000E-01  8.00000000E-01  1.50000000E+00
  8.00000000E-01  8.00000000E-01  1.50000000E+00  8.00000000E-01  8.00000000E-01
  1.50000000E+00  8.00000000E-01  8.00000000E-01  1.50000000E+00  8.00000000E-01
  8.00000000E-01  1.50000000E+00  8.00000000E-01  8.00000000E-01  1.50000000E+00
  8.00000000E-01  8.00000000E-01  1.50000000E+00  8.00000000E-01  8.00000000E-01
  1.50000000E+00  8.00000000E-01  8.00000000E-01  1.50000000E+00  8.00000000E-01
  8.00000000E-01  1.50000000E+00  8.00000000E-01  8.00000000E-01  1.50000000E+00
  8.00000000E-01  8.00000000E-01  1.50000000E+00  8.00000000E-01  8.00000000E-01
  1.50000000E+00  8.00000000E-01  8.00000000E-01  1.50000000E+00  8.00000000E-01
  8.00000000E-01  1.50000000E+00  8.00000000E-01  8.00000000E-01  1.50000000E+00
  8.00000000E-01  8.00000000E-01  1.50000000E+00  8.00000000E-01  8.00000000E-01
  1.50000000E+00  8.00000000E-01  8.00000000E-01  1.50000000E+00  8.00000000E-01
  8.00000000E-01  1.50000000E+00  8.00000000E-01  8.00000000E-01  1.50000000E+00
  8.00000000E-01  8.00000000E-01  1.50000000E+00  8.00000000E-01  8.00000000E-01
  1.50000000E+00  8.00000000E-01  8.00000000E-01  1.50000000E+00  8.00000000E-01
  8.00000000E-01  1.50000000E+00  8.00000000E-01  8.00000000E-01  1.50000000E+00
  8.00000000E-01  8.00000000E-01  1.50000000E+00  8.00000000E-01  8.00000000E-01
  1.50000000E+00  8.00000000E-01  8.00000000E-01  1.50000000E+00  8.00000000E-01
  8.00000000E-01  1.50000000E+00  8.00000000E-01  8.00000000E-01  1.50000000E+00
  8.00000000E-01  8.00000000E-01  1.50000000E+00  8.00000000E-01  8.00000000E-01
  1.50000000E+00  8.00000000E-01  8.00000000E-01  1.50000000E+00  8.00000000E-01
  8.00000000E-01  1.50000000E+00  8.00000000E-01  8.00000000E-01  1.50000000E+00
  8.00000000E-01  8.00000000E-01  1.50000000E+00  8.00000000E-01  8.00000000E-01
  1.50000000E+00  8.00000000E-01  8.00000000E-01  1.50000000E+00  8.00000000E-01
  8.00000000E-01  1.50000000E+00  8.00000000E-01  8.00000000E-01  1.50000000E+00
  8.00000000E-01  8.00000000E-01  1.50000000E+00  8.00000000E-01  8.00000000E-01
  1.50000000E+00  8.00000000E-01  8.00000000E-01  1.50000000E+00  8.00000000E-01
  8.00000000E-01  1.50000000E+00  8.00000000E-01  8.00000000E-01  1.50000000E+00
  8.00000000E-01  8.00000000E-01  1.50000000E+00  8.00000000E-01  8.00000000E-01
  1.50000000E+00  8.00000000E-01  8.00000000E-01  1.50000000E+00  8.00000000E-01
  8.00000000E-01  1.50000000E+00  8.00000000E-01  8.00000000E-01  1.50000000E+00
  8.00000000E-01  8.00000000E-01  1.50000000E+00  8.00000000E-01  8.00000000E-01
  1.50000000E+00  8.00000000E-01  8.00000000E-01  1.50000000E+00  8.00000000E-01
  8.00000000E-01  1.50000000E+00  8.00000000E-01  8.00000000E-01  1.50000000E+00
  8.00000000E-01  8.00000000E-01  1.50000000E+00  8.00000000E-01  8.00000000E-01
  1.50000000E+00  8.00000000E-01  8.00000000E-01  1.50000000E+00  8.00000000E-01
  8.00000000E-01  1.50000000E+00  8.00000000E-01  8.00000000E-01  1.50000000E+00
  8.00000000E-01  8.00000000E-01  1.50000000E+00  8.00000000E-01  8.00000000E-01
  1.50000000E+00  8.00000000E-01  8.00000000E-01  1.50000000E+00  8.00000000E-01
  8.00000000E-01  1.50000000E+00  8.00000000E-01  8.00000000E-01  1.50000000E+00
  8.00000000E-01  8.00000000E-01  1.50000000E+00  8.00000000E-01  8.00000000E-01
  1.50000000E+00  8.00000000E-01  8.00000000E-01  1.50000000E+00  8.00000000E-01
  8.00000000E-01  1.50000000E+00  8.00000000E-01  8.00000000E-01  1.50000000E+00
  8.00000000E-01  8.00000000E-01  1.50000000E+00  8.00000000E-01  8.00000000E-01
  1.50000000E+00  8.00000000E-01  8.00000000E-01  1.50000000E+00  8.00000000E-01
  8.00000000E-01  1.50000000E+00  8.00000000E-01  8.00000000E-01  1.50000000E+00
  8.00000000E-01  8.00000000E-01  1.50000000E+00  8.00000000E-01  8.00000000E-01
  1.50000000E+00  8.00000000E-01  8.00000000E-01  1.50000000E+00  8.00000000E-01
  8.00000000E-01  1.50000000E+00  8.00000000E-01  8.00000000E-01  1.50000000E+00
  8.00000000E-01  8.00000000E-01  1.50000000E+00  8.00000000E-01  8.00000000E-01
  1.50000000E+00  8.00000000E-01  8.00000000E-01  1.50000000E+00  8.00000000E-01
  8.00000000E-01  1.50000000E+00  8.00000000E-01  8.00000000E-01  1.50000000E+00
  8.00000000E-01  8.00000000E-01  1.50000000E+00  8.00000000E-01  8.00000000E-01
  1.50000000E+00  8.00000000E-01  8.00000000E-01  1.50000000E+00  8.00000000E-01
  8.00000000E-01  1.50000000E+00  8.00000000E-01  8.00000000E-01  1.50000000E+00
  8.00000000E-01  8.00000000E-01  1.50000000E+00  8.00000000E-01  8.00000000E-01
  1.50000000E+00  8.00000000E-01  8.00000000E-01  1.50000000E+00  8.00000000E-01
  8.00000000E-01  1.50000000E+00  8.00000000E-01  8.00000000E-01  1.50000000E+00
  8.00000000E-01  8.00000000E-01  1.50000000E+00  8.00000000E-01  8.00000000E-01
  1.50000000E+00  8.00000000E-01  8.00000000E-01  1.50000000E+00  8.00000000E-01
  8.00000000E-01  1.50000000E+00  8.00000000E-01  8.00000000E-01  1.50000000E+00
  8.00000000E-01  8.00000000E-01  1.50000000E+00  8.00000000E-01  8.00000000E-01
  1.50000000E+00  8.00000000E-01  8.00000000E-01  1.50000000E+00  8.00000000E-01
  8.00000000E-01  1.50000000E+00  8.00000000E-01  8.00000000E-01  1.50000000E+00
  8.00000000E-01  8.00000000E-01  1.50000000E+00  8.00000000E-01  8.00000000E-01
  1.50000000E+00  8.00000000E-01  8.00000000E-01  1.50000000E+00  8.00000000E-01
  8.00000000E-01  1.50000000E+00  8.00000000E-01  8.00000000E-01  1.50000000E+00
  8.00000000E-01  8.00000000E-01  1.50000000E+00  8.00000000E-01  8.00000000E-01
  1.50000000E+00  8.00000000E-01  8.00000000E-01  1.50000000E+00  8.00000000E-01
  8.00000000E-01  1.50000000E+00  8.00000000E-01  8.00000000E-01  1.50000000E+00
  8.00000000E-01  8.00000000E-01  1.50000000E+00  8.00000000E-01  8.00000000E-01
  1.50000000E+00  8.00000000E-01  8.00000000E-01  1.50000000E+00  8.00000000E-01
  8.00000000E-01  1.50000000E+00  8.00000000E-01  8.00000000E-01  1.50000000E+00
  8.00000000E-01  8.00000000E-01  1.50000000E+00  8.00000000E-01  8.00000000E-01
  1.50000000E+00  8.00000000E-01  8.00000000E-01  1.50000000E+00  8.00000000E-01
  8.00000000E-01  1.50000000E+00  8.00000000E-01  8.00000000E-01  1.50000000E+00
  8.00000000E-01  8.00000000E-01  1.50000000E+00  8.00000000E-01  8.00000000E-01
  1.50000000E+00  8.00000000E-01  8.00000000E-01  1.50000000E+00  8.00000000E-01
  8.00000000E-01  1.50000000E+00  8.00000000E-01  8.00000000E-01  1.50000000E+00
  8.00000000E-01  8.00000000E-01  1.50000000E+00  8.00000000E-01  8.00000000E-01
  1.50000000E+00  8.00000000E-01  8.00000000E-01  1.50000000E+00  8.00000000E-01
  8.00000000E-01  1.50000000E+00  8.00000000E-01  8.00000000E-01  1.50000000E+00
  8.00000000E-01  8.00000000E-01  1.50000000E+00  8.00000000E-01  8.00000000E-01
  1.50000000E+00  8.00000000E-01  8.00000000E-01  1.50000000E+00  8.00000000E-01
  8.00000000E-01  1.50000000E+00  8.00000000E-01  8.00000000E-01  1.50000000E+00
  8.00000000E-01  8.00000000E-01  1.50000000E+00  8.00000000E-01  8.00000000E-01
  1.50000000E+00  8.00000000E-01  8.00000000E-01  1.50000000E+00  8.00000000E-01
  8.00000000E-01  1.50000000E+00  8.00000000E-01  8.00000000E-01  1.50000000E+00
  8.00000000E-01  8.00000000E-01  1.50000000E+00  8.00000000E-01  8.00000000E-01
  1.50000000E+00  8.00000000E-01  8.00000000E-01  1.50000000E+00  8.00000000E-01
  8.00000000E-01  1.50000000E+00  8.00000000E-01  8.00000000E-01  1.50000000E+00
  8.00000000E-01  8.00000000E-01  1.50000000E+00  8.00000000E-01  8.00000000E-01
  1.50000000E+00  8.00000000E-01  8.00000000E-01  1.50000000E+00  8.00000000E-01
  8.00000000E-01  1.50000000E+00  8.00000000E-01  8.00000000E-01  1.50000000E+00
  8.00000000E-01  8.00000000E-01  1.50000000E+00  8.00000000E-01  8.00000000E-01
  1.50000000E+00  8.00000000E-01  8.00000000E-01  1.50000000E+00  8.00000000E-01
  8.00000000E-01  1.50000000E+00  8.00000000E-01  8.00000000E-01  1.50000000E+00
  8.00000000E-01  8.00000000E-01  1.50000000E+00  8.00000000E-01  8.00000000E-01
  1.50000000E+00  8.00000000E-01  8.00000000E-01  1.50000000E+00  8.00000000E-01
  8.00000000E-01  1.50000000E+00  8.00000000E-01  8.00000000E-01  1.50000000E+00
  8.00000000E-01  8.00000000E-01  1.50000000E+00  8.00000000E-01  8.00000000E-01
  1.50000000E+00  8.00000000E-01  8.00000000E-01  1.50000000E+00  8.00000000E-01
  8.00000000E-01  1.50000000E+00  8.00000000E-01  8.00000000E-01  1.50000000E+00
  8.00000000E-01  8.00000000E-01  1.50000000E+00  8.00000000E-01  8.00000000E-01
  1.50000000E+00  8.00000000E-01  8.00000000E-01  1.50000000E+00  8.00000000E-01
  8.00000000E-01  1.50000000E+00  8.00000000E-01  8.00000000E-01  1.50000000E+00
  8.00000000E-01  8.00000000E-01  1.50000000E+00  8.00000000E-01  8.00000000E-01
  1.50000000E+00  8.00000000E-01  8.00000000E-01  1.50000000E+00  8.00000000E-01
  8.00000000E-01  1.50000000E+00  8.00000000E-01  8.00000000E-01  1.50000000E+00
  8.00000000E-01  8.00000000E-01  1.50000000E+00  8.00000000E-01  8.00000000E-01
  1.50000000E+00  8.00000000E-01  8.00000000E-01  1.50000000E+00  8.00000000E-01
  8.00000000E-01  1.50000000E+00  8.00000000E-01  8.00000000E-01  1.50000000E+00
  8.00000000E-01  8.00000000E-01  1.50000000E+00  8.00000000E-01  8.00000000E-01
  1.50000000E+00  8.00000000E-01  8.00000000E-01  1.50000000E+00  8.00000000E-01
  8.00000000E-01  1.50000000E+00  8.00000000E-01  8.00000000E-01  1.50000000E+00
  8.00000000E-01  8.00000000E-01  1.50000000E+00  8.00000000E-01  8.00000000E-01
  1.50000000E+00  8.00000000E-01  8.00000000E-01  1.50000000E+00  8.00000000E-01
  8.00000000E-01  1.50000000E+00  8.00000000E-01  8.00000000E-01  1.50000000E+00
  8.00000000E-01  8.00000000E-01  1.50000000E+00  8.00000000E-01  8.00000000E-01
  1.50000000E+00  8.00000000E-01  8.00000000E-01  1.50000000E+00  8.00000000E-01
  8.00000000E-01  1.50000000E+00  8.00000000E-01  8.00000000E-01  1.50000000E+00
  8.00000000E-01  8.00000000E-01  1.50000000E+00  8.00000000E-01  8.00000000E-01
  1.50000000E+00  8.00000000E-01  8.00000000E-01  1.50000000E+00  8.00000000E-01
  8.00000000E-01  1.50000000E+00  8.00000000E-01  8.00000000E-01  1.50000000E+00
  8.00000000E-01  8.00000000E-01  1.50000000E+00  8.00000000E-01  8.00000000E-01
  1.50000000E+00  8.00000000E-01  8.00000000E-01  1.50000000E+00  8.00000000E-01
  8.00000000E-01  1.50000000E+00  8.00000000E-01  8.00000000E-01  1.50000000E+00
  8.00000000E-01  8.00000000E-01  1.50000000E+00  8.00000000E-01  8.00000000E-01
  1.50000000E+00  8.00000000E-01  8.00000000E-01  1.50000000E+00  8.00000000E-01
  8.00000000E-01  1.50000000E+00  8.00000000E-01  8.00000000E-01  1.50000000E+00
  8.00000000E-01  8.00000000E-01  1.50000000E+00  8.00000000E-01  8.00000000E-01
  1.50000000E+00  8.00000000E-01  8.00000000E-01  1.50000000E+00  8.00000000E-01
  8.00000000E-01  1.50000000E+00  8.00000000E-01  8.00000000E-01  1.50000000E+00
  8.00000000E-01  8.00000000E-01  1.50000000E+00  8.00000000E-01  8.00000000E-01
  1.50000000E+00  8.00000000E-01  8.00000000E-01  1.50000000E+00  8.00000000E-01
  8.00000000E-01  1.50000000E+00  8.00000000E-01  8.00000000E-01  1.50000000E+00
  8.00000000E-01  8.00000000E-01  1.50000000E+00  8.00000000E-01  8.00000000E-01
  1.50000000E+00  8.00000000E-01  8.00000000E-01  1.50000000E+00  8.00000000E-01
  8.00000000E-01  1.50000000E+00  8.00000000E-01  8.00000000E-01  1.50000000E+00
  8.00000000E-01  8.00000000E-01  1.50000000E+00  8.00000000E-01  8.00000000E-01
  1.50000000E+00  8.00000000E-01  8.00000000E-01  1.50000000E+00  8.00000000E-01
  8.00000000E-01  1.50000000E+00  8.00000000E-01  8.00000000E-01  1.50000000E+00
  8.00000000E-01  8.00000000E-01  1.50000000E+00  8.00000000E-01  8.00000000E-01
  1.50000000E+00  8.00000000E-01  8.00000000E-01  1.50000000E+00  8.00000000E-01
  8.00000000E-01  1.50000000E+00  8.00000000E-01  8.00000000E-01  1.50000000E+00
  8.00000000E-01  8.00000000E-01  1.50000000E+00  8.00000000E-01  8.00000000E-01
  1.50000000E+00  8.00000000E-01  8.00000000E-01  1.50000000E+00  8.00000000E-01
  8.00000000E-01  1.50000000E+00  8.00000000E-01  8.00000000E-01  1.50000000E+00
  8.00000000E-01  8.00000000E-01  1.50000000E+00  8.00000000E-01  8.00000000E-01
  1.50000000E+00  8.00000000E-01  8.00000000E-01  1.50000000E+00  8.00000000E-01
  8.00000000E-01  1.50000000E+00  8.00000000E-01  8.00000000E-01  1.50000000E+00
  8.00000000E-01  8.00000000E-01  1.50000000E+00  8.00000000E-01  8.00000000E-01
  1.50000000E+00  8.00000000E-01  8.00000000E-01  1.50000000E+00  8.00000000E-01
  8.00000000E-01  1.50000000E+00  8.00000000E-01  8.00000000E-01  1.50000000E+00
  8.00000000E-01  8.00000000E-01  1.50000000E+00  8.00000000E-01  8.00000000E-01
  1.50000000E+00  8.00000000E-01  8.00000000E-01  1.50000000E+00  8.00000000E-01
  8.00000000E-01  1.50000000E+00  8.00000000E-01  8.00000000E-01  1.50000000E+00
  8.00000000E-01  8.00000000E-01  1.50000000E+00  8.00000000E-01  8.00000000E-01
  1.50000000E+00  8.00000000E-01  8.00000000E-01  1.50000000E+00  8.00000000E-01
  8.00000000E-01  1.50000000E+00  8.00000000E-01  8.00000000E-01  1.50000000E+00
  8.00000000E-01  8.00000000E-01  1.50000000E+00  8.00000000E-01  8.00000000E-01
  1.50000000E+00  8.00000000E-01  8.00000000E-01  1.50000000E+00  8.00000000E-01
  8.00000000E-01  1.50000000E+00  8.00000000E-01  8.00000000E-01  1.50000000E+00
  8.00000000E-01  8.00000000E-01  1.50000000E+00  8.00000000E-01  8.00000000E-01
  1.50000000E+00  8.00000000E-01  8.00000000E-01  1.50000000E+00  8.00000000E-01
  8.00000000E-01  1.50000000E+00  8.00000000E-01  8.00000000E-01  1.50000000E+00
  8.00000000E-01  8.00000000E-01  1.50000000E+00  8.00000000E-01  8.00000000E-01
  1.50000000E+00  8.00000000E-01  8.00000000E-01  1.50000000E+00  8.00000000E-01
  8.00000000E-01  1.50000000E+00  8.00000000E-01  8.00000000E-01  1.50000000E+00
  8.00000000E-01  8.00000000E-01  1.50000000E+00  8.00000000E-01  8.00000000E-01
  1.50000000E+00  8.00000000E-01  8.00000000E-01  1.50000000E+00  8.00000000E-01
  8.00000000E-01  1.50000000E+00  8.00000000E-01  8.00000000E-01  1.50000000E+00
  8.00000000E-01  8.00000000E-01  1.50000000E+00  8.00000000E-01  8.00000000E-01
  1.50000000E+00  8.00000000E-01  8.00000000E-01  1.50000000E+00  8.00000000E-01
  8.00000000E-01  1.50000000E+00  8.00000000E-01  8.00000000E-01  1.50000000E+00
  8.00000000E-01  8.00000000E-01  1.50000000E+00  8.00000000E-01  8.00000000E-01
  1.50000000E+00  8.00000000E-01  8.00000000E-01  1.50000000E+00  8.00000000E-01
  8.00000000E-01  1.50000000E+00  8.00000000E-01  8.00000000E-01  1.50000000E+00
  8.00000000E-01  8.00000000E-01  1.50000000E+00  8.00000000E-01  8.00000000E-01
  1.50000000E+00  8.00000000E-01  8.00000000E-01  1.50000000E+00  8.00000000E-01
  8.00000000E-01  1.50000000E+00  8.00000000E-01  8.00000000E-01  1.50000000E+00
  8.00000000E-01  8.00000000E-01  1.50000000E+00  8.00000000E-01  8.00000000E-01
  1.50000000E+00  8.00000000E-01  8.00000000E-01  1.50000000E+00  8.00000000E-01
  8.00000000E-01  1.50000000E+00  8.00000000E-01  8.00000000E-01  1.50000000E+00
  8.00000000E-01  8.00000000E-01  1.50000000E+00  8.00000000E-01  8.00000000E-01
  1.50000000E+00  8.00000000E-01  8.00000000E-01  1.50000000E+00  8.00000000E-01
  8.00000000E-01  1.50000000E+00  8.00000000E-01  8.00000000E-01  1.50000000E+00
  8.00000000E-01  8.00000000E-01  1.50000000E+00  8.00000000E-01  8.00000000E-01
  1.50000000E+00  8.00000000E-01  8.00000000E-01  1.50000000E+00  8.00000000E-01
  8.00000000E-01  1.50000000E+00  8.00000000E-01  8.00000000E-01  1.50000000E+00
  8.00000000E-01  8.00000000E-01  1.50000000E+00  8.00000000E-01  8.00000000E-01
  1.50000000E+00  8.00000000E-01  8.00000000E-01  1.50000000E+00  8.00000000E-01
  8.00000000E-01  1.50000000E+00  8.00000000E-01  8.00000000E-01  1.50000000E+00
  8.00000000E-01  8.00000000E-01  1.50000000E+00  8.00000000E-01  8.00000000E-01
  1.50000000E+00  8.00000000E-01  8.00000000E-01  1.50000000E+00  8.00000000E-01
  8.00000000E-01  1.50000000E+00  8.00000000E-01  8.00000000E-01  1.50000000E+00
  8.00000000E-01  8.00000000E-01  1.50000000E+00  8.00000000E-01  8.00000000E-01
  1.50000000E+00  8.00000000E-01  8.00000000E-01  1.50000000E+00  8.00000000E-01
  8.00000000E-01  1.50000000E+00  8.00000000E-01  8.00000000E-01  1.50000000E+00
  8.00000000E-01  8.00000000E-01  1.50000000E+00  8.00000000E-01  8.00000000E-01
  1.50000000E+00  8.00000000E-01  8.00000000E-01  1.50000000E+00  8.00000000E-01
  8.00000000E-01  1.50000000E+00  8.00000000E-01  8.00000000E-01  1.50000000E+00
  8.00000000E-01  8.00000000E-01  1.50000000E+00  8.00000000E-01  8.00000000E-01
  1.50000000E+00  8.00000000E-01  8.00000000E-01  1.50000000E+00  8.00000000E-01
  8.00000000E-01  1.50000000E+00  8.00000000E-01  8.00000000E-01  1.50000000E+00
  8.00000000E-01  8.00000000E-01  1.50000000E+00  8.00000000E-01  8.00000000E-01
  1.50000000E+00  8.00000000E-01  8.00000000E-01  1.50000000E+00  8.00000000E-01
  8.00000000E-01  1.50000000E+00  8.00000000E-01  8.00000000E-01  1.50000000E+00
  8.00000000E-01  8.00000000E-01  1.50000000E+00  8.00000000E-01  8.00000000E-01
  1.50000000E+00  8.00000000E-01  8.00000000E-01  1.50000000E+00  8.00000000E-01
  8.00000000E-01  1.50000000E+00  8.00000000E-01  8.00000000E-01  1.50000000E+00
  8.00000000E-01  8.00000000E-01  1.50000000E+00  8.00000000E-01  8.00000000E-01
  1.50000000E+00  8.00000000E-01  8.00000000E-01  1.50000000E+00  8.00000000E-01
  8.00000000E-01  1.50000000E+00  8.00000000E-01  8.00000000E-01  1.50000000E+00
  8.00000000E-01  8.00000000E-01  1.50000000E+00  8.00000000E-01  8.00000000E-01
  1.50000000E+00  8.00000000E-01  8.00000000E-01  1.50000000E+00  8.00000000E-01
  8.00000000E-01  1.50000000E+00  8.00000000E-01  8.00000000E-01  1.50000000E+00
  8.00000000E-01  8.00000000E-01  1.50000000E+00  8.00000000E-01  8.00000000E-01
  1.50000000E+00  8.00000000E-01  8.00000000E-01  1.50000000E+00  8.00000000E-01
  8.00000000E-01  1.50000000E+00  8.00000000E-01  8.00000000E-01  1.50000000E+00
  8.00000000E-01  8.00000000E-01  1.50000000E+00  8.00000000E-01  8.00000000E-01
  1.50000000E+00  8.00000000E-01  8.00000000E-01  1.50000000E+00  8.00000000E-01
  8.00000000E-01  1.50000000E+00  8.00000000E-01  8.00000000E-01  1.50000000E+00
  8.00000000E-01  8.00000000E-01  1.50000000E+00  8.00000000E-01  8.00000000E-01
  1.50000000E+00  8.00000000E-01  8.00000000E-01  1.50000000E+00  8.00000000E-01
  8.00000000E-01  1.50000000E+00  8.00000000E-01  8.00000000E-01  1.50000000E+00
  8.00000000E-01  8.00000000E-01  1.50000000E+00  8.00000000E-01  8.00000000E-01
  1.50000000E+00  8.00000000E-01  8.00000000E-01  1.50000000E+00  8.00000000E-01
  8.00000000E-01  1.50000000E+00  8.00000000E-01  8.00000000E-01  1.50000000E+00
  8.00000000E-01  8.00000000E-01  1.50000000E+00  8.00000000E-01  8.00000000E-01
  1.50000000E+00  8.00000000E-01  8.00000000E-01  1.50000000E+00  8.00000000E-01
  8.00000000E-01  1.50000000E+00  8.00000000E-01  8.00000000E-01  1.50000000E+00
  8.00000000E-01  8.00000000E-01  1.50000000E+00  8.00000000E-01  8.00000000E-01
  1.50000000E+00  8.00000000E-01  8.00000000E-01  1.50000000E+00  8.00000000E-01
  8.00000000E-01  1.50000000E+00  8.00000000E-01  8.00000000E-01  1.50000000E+00
  8.00000000E-01  8.00000000E-01  1.50000000E+00  8.00000000E-01  8.00000000E-01
  1.50000000E+00  8.00000000E-01  8.00000000E-01  1.50000000E+00  8.00000000E-01
  8.00000000E-01  1.50000000E+00  8.00000000E-01  8.00000000E-01  1.50000000E+00
  8.00000000E-01  8.00000000E-01  1.50000000E+00  8.00000000E-01  8.00000000E-01
  1.50000000E+00  8.00000000E-01  8.00000000E-01  1.50000000E+00  8.00000000E-01
  8.00000000E-01  1.50000000E+00  8.00000000E-01  8.00000000E-01  1.50000000E+00
  8.00000000E-01  8.00000000E-01  1.50000000E+00  8.00000000E-01  8.00000000E-01
  1.50000000E+00  8.00000000E-01  8.00000000E-01  1.50000000E+00  8.00000000E-01
  8.00000000E-01  1.50000000E+00  8.00000000E-01  8.00000000E-01  1.50000000E+00
  8.00000000E-01  8.00000000E-01  1.50000000E+00  8.00000000E-01  8.00000000E-01
  1.50000000E+00  8.00000000E-01  8.00000000E-01  1.50000000E+00  8.00000000E-01
  8.00000000E-01  1.50000000E+00  8.00000000E-01  8.00000000E-01  1.50000000E+00
  8.00000000E-01  8.00000000E-01  1.50000000E+00  8.00000000E-01  8.00000000E-01
  1.50000000E+00  8.00000000E-01  8.00000000E-01  1.50000000E+00  8.00000000E-01
  8.00000000E-01  1.50000000E+00  8.00000000E-01  8.00000000E-01  1.50000000E+00
  8.00000000E-01  8.00000000E-01  1.50000000E+00  8.00000000E-01  8.00000000E-01
  1.50000000E+00  8.00000000E-01  8.00000000E-01  1.50000000E+00  8.00000000E-01
  8.00000000E-01  1.50000000E+00  8.00000000E-01  8.00000000E-01  1.50000000E+00
  8.00000000E-01  8.00000000E-01  1.50000000E+00  8.00000000E-01  8.00000000E-01
  1.50000000E+00  8.00000000E-01  8.00000000E-01  1.50000000E+00  8.00000000E-01
  8.00000000E-01  1.50000000E+00  8.00000000E-01  8.00000000E-01  1.50000000E+00
  8.00000000E-01  8.00000000E-01  1.50000000E+00  8.00000000E-01  8.00000000E-01
  1.50000000E+00  8.00000000E-01  8.00000000E-01  1.50000000E+00  8.00000000E-01
  8.00000000E-01  1.50000000E+00  8.00000000E-01  8.00000000E-01  1.50000000E+00
  8.00000000E-01  8.00000000E-01  1.50000000E+00  8.00000000E-01  8.00000000E-01
  1.50000000E+00  8.00000000E-01  8.00000000E-01  1.50000000E+00  8.00000000E-01
  8.00000000E-01  1.50000000E+00  8.00000000E-01  8.00000000E-01  1.50000000E+00
  8.00000000E-01  8.00000000E-01  1.50000000E+00  8.00000000E-01  8.00000000E-01
  1.50000000E+00  8.00000000E-01  8.00000000E-01  1.50000000E+00  8.00000000E-01
  8.00000000E-01  1.50000000E+00  8.00000000E-01  8.00000000E-01  1.50000000E+00
  8.00000000E-01  8.00000000E-01  1.50000000E+00  8.00000000E-01  8.00000000E-01
  1.50000000E+00  8.00000000E-01  8.00000000E-01  1.50000000E+00  8.00000000E-01
  8.00000000E-01  1.50000000E+00  8.00000000E-01  8.00000000E-01  1.50000000E+00
  8.00000000E-01  8.00000000E-01  1.50000000E+00  8.00000000E-01  8.00000000E-01
  1.50000000E+00  8.00000000E-01  8.00000000E-01  1.50000000E+00  8.00000000E-01
  8.00000000E-01  1.50000000E+00  8.00000000E-01  8.00000000E-01  1.50000000E+00
  8.00000000E-01  8.00000000E-01  1.50000000E+00  8.00000000E-01  8.00000000E-01
  1.50000000E+00  8.00000000E-01  8.00000000E-01  1.50000000E+00  8.00000000E-01
  8.00000000E-01  1.50000000E+00  8.00000000E-01  8.00000000E-01  1.50000000E+00
  8.00000000E-01  8.00000000E-01  1.50000000E+00  8.00000000E-01  8.00000000E-01
  1.50000000E+00  8.00000000E-01  8.00000000E-01  1.50000000E+00  8.00000000E-01
  8.00000000E-01  1.50000000E+00  8.00000000E-01  8.00000000E-01  1.50000000E+00
  8.00000000E-01  8.00000000E-01  1.50000000E+00  8.00000000E-01  8.00000000E-01
  1.50000000E+00  8.00000000E-01  8.00000000E-01  1.50000000E+00  8.00000000E-01
  8.00000000E-01  1.50000000E+00  8.00000000E-01  8.00000000E-01  1.50000000E+00
  8.00000000E-01  8.00000000E-01  1.50000000E+00  8.00000000E-01  8.00000000E-01
  1.50000000E+00  8.00000000E-01  8.00000000E-01  1.50000000E+00  8.00000000E-01
  8.00000000E-01  1.50000000E+00  8.00000000E-01  8.00000000E-01  1.50000000E+00
  8.00000000E-01  8.00000000E-01  1.50000000E+00  8.00000000E-01  8.00000000E-01
  1.50000000E+00  8.00000000E-01  8.00000000E-01  1.50000000E+00  8.00000000E-01
  8.00000000E-01  1.50000000E+00  8.00000000E-01  8.00000000E-01  1.50000000E+00
  8.00000000E-01  8.00000000E-01  1.50000000E+00  8.00000000E-01  8.00000000E-01
  1.50000000E+00  8.00000000E-01  8.00000000E-01  1.50000000E+00  8.00000000E-01
  8.00000000E-01  1.50000000E+00  8.00000000E-01  8.00000000E-01  1.50000000E+00
  8.00000000E-01  8.00000000E-01  1.50000000E+00  8.00000000E-01  8.00000000E-01
  1.50000000E+00  8.00000000E-01  8.00000000E-01  1.50000000E+00  8.00000000E-01
  8.00000000E-01  1.50000000E+00  8.00000000E-01  8.00000000E-01  1.50000000E+00
  8.00000000E-01  8.00000000E-01  1.50000000E+00  8.00000000E-01  8.00000000E-01
  1.50000000E+00  8.00000000E-01  8.00000000E-01  1.50000000E+00  8.00000000E-01
  8.00000000E-01  1.50000000E+00  8.00000000E-01  8.00000000E-01  1.50000000E+00
  8.00000000E-01  8.00000000E-01  1.50000000E+00  8.00000000E-01  8.00000000E-01
  1.50000000E+00  8.00000000E-01  8.00000000E-01  1.50000000E+00  8.00000000E-01
  8.00000000E-01  1.50000000E+00  8.00000000E-01  8.00000000E-01  1.50000000E+00
  8.00000000E-01  8.00000000E-01  1.50000000E+00  8.00000000E-01  8.00000000E-01
  1.50000000E+00  8.00000000E-01  8.00000000E-01  1.50000000E+00  8.00000000E-01
  8.00000000E-01  1.50000000E+00  8.00000000E-01  8.00000000E-01  1.50000000E+00
  8.00000000E-01  8.00000000E-01  1.50000000E+00  8.00000000E-01  8.00000000E-01
  1.50000000E+00  8.00000000E-01  8.00000000E-01  1.50000000E+00  8.00000000E-01
  8.00000000E-01  1.50000000E+00  8.00000000E-01  8.00000000E-01  1.50000000E+00
  8.00000000E-01  8.00000000E-01  1.50000000E+00  8.00000000E-01  8.00000000E-01
  1.50000000E+00  8.00000000E-01  8.00000000E-01  1.50000000E+00  8.00000000E-01
  8.00000000E-01  1.50000000E+00  8.00000000E-01  8.00000000E-01  1.50000000E+00
  8.00000000E-01  8.00000000E-01  1.50000000E+00  8.00000000E-01  8.00000000E-01
  1.50000000E+00  8.00000000E-01  8.00000000E-01  1.50000000E+00  8.00000000E-01
  8.00000000E-01  1.50000000E+00  8.00000000E-01  8.00000000E-01  1.50000000E+00
  8.00000000E-01  8.00000000E-01  1.50000000E+00  8.00000000E-01  8.00000000E-01
  1.50000000E+00  8.00000000E-01  8.00000000E-01  1.50000000E+00  8.00000000E-01
  8.00000000E-01  1.50000000E+00  8.00000000E-01  8.00000000E-01  1.50000000E+00
  8.00000000E-01  8.00000000E-01  1.50000000E+00  8.00000000E-01  8.00000000E-01
  1.50000000E+00  8.00000000E-01  8.00000000E-01  1.50000000E+00  8.00000000E-01
  8.00000000E-01  1.50000000E+00  8.00000000E-01  8.00000000E-01  1.50000000E+00
  8.00000000E-01  8.00000000E-01  1.50000000E+00  8.00000000E-01  8.00000000E-01
  1.50000000E+00  8.00000000E-01  8.00000000E-01  1.50000000E+00  8.00000000E-01
  8.00000000E-01  1.50000000E+00  8.00000000E-01  8.00000000E-01  1.50000000E+00
  8.00000000E-01  8.00000000E-01  1.50000000E+00  8.00000000E-01  8.00000000E-01
  1.50000000E+00  8.00000000E-01  8.00000000E-01  1.50000000E+00  8.00000000E-01
  8.00000000E-01  1.50000000E+00  8.00000000E-01  8.00000000E-01  1.50000000E+00
  8.00000000E-01  8.00000000E-01  1.50000000E+00  8.00000000E-01  8.00000000E-01
  1.50000000E+00  8.00000000E-01  8.00000000E-01  1.50000000E+00  8.00000000E-01
  8.00000000E-01  1.50000000E+00  8.00000000E-01  8.00000000E-01  1.50000000E+00
  8.00000000E-01  8.00000000E-01  1.50000000E+00  8.00000000E-01  8.00000000E-01
  1.50000000E+00  8.00000000E-01  8.00000000E-01  1.50000000E+00  8.00000000E-01
  8.00000000E-01  1.50000000E+00  8.00000000E-01  8.00000000E-01  1.50000000E+00
  8.00000000E-01  8.00000000E-01  1.50000000E+00  8.00000000E-01  8.00000000E-01
  1.50000000E+00  8.00000000E-01  8.00000000E-01  1.50000000E+00  8.00000000E-01
  8.00000000E-01  1.50000000E+00  8.00000000E-01  8.00000000E-01  1.50000000E+00
  8.00000000E-01  8.00000000E-01  1.50000000E+00  8.00000000E-01  8.00000000E-01
  1.50000000E+00  8.00000000E-01  8.00000000E-01  1.50000000E+00  8.00000000E-01
  8.00000000E-01  1.50000000E+00  8.00000000E-01  8.00000000E-01  1.50000000E+00
  8.00000000E-01  8.00000000E-01  1.50000000E+00  8.00000000E-01  8.00000000E-01
  1.50000000E+00  8.00000000E-01  8.00000000E-01  1.50000000E+00  8.00000000E-01
  8.00000000E-01  1.50000000E+00  8.00000000E-01  8.00000000E-01  1.50000000E+00
  8.00000000E-01  8.00000000E-01  1.50000000E+00  8.00000000E-01  8.00000000E-01
  1.50000000E+00  8.00000000E-01  8.00000000E-01  1.50000000E+00  8.00000000E-01
  8.00000000E-01  1.50000000E+00  8.00000000E-01  8.00000000E-01  1.50000000E+00
  8.00000000E-01  8.00000000E-01  1.50000000E+00  8.00000000E-01  8.00000000E-01
  1.50000000E+00  8.00000000E-01  8.00000000E-01  1.50000000E+00  8.00000000E-01
  8.00000000E-01  1.50000000E+00  8.00000000E-01  8.00000000E-01  1.50000000E+00
  8.00000000E-01  8.00000000E-01  1.50000000E+00  8.00000000E-01  8.00000000E-01
  1.50000000E+00  8.00000000E-01  8.00000000E-01  1.50000000E+00  8.00000000E-01
  8.00000000E-01  1.50000000E+00  8.00000000E-01  8.00000000E-01  1.50000000E+00
  8.00000000E-01  8.00000000E-01  1.50000000E+00  8.00000000E-01  8.00000000E-01
  1.50000000E+00  8.00000000E-01  8.00000000E-01  1.50000000E+00  8.00000000E-01
  8.00000000E-01  1.50000000E+00  8.00000000E-01  8.00000000E-01  1.50000000E+00
  8.00000000E-01  8.00000000E-01  1.50000000E+00  8.00000000E-01  8.00000000E-01
  1.50000000E+00  8.00000000E-01  8.00000000E-01  1.50000000E+00  8.00000000E-01
  8.00000000E-01  1.50000000E+00  8.00000000E-01  8.00000000E-01  1.50000000E+00
  8.00000000E-01  8.00000000E-01  1.50000000E+00  8.00000000E-01  8.00000000E-01
  1.50000000E+00  8.00000000E-01  8.00000000E-01  1.50000000E+00  8.00000000E-01
  8.00000000E-01  1.50000000E+00  8.00000000E-01  8.00000000E-01  1.50000000E+00
  8.00000000E-01  8.00000000E-01  1.50000000E+00  8.00000000E-01  8.00000000E-01
  1.50000000E+00  8.00000000E-01  8.00000000E-01  1.50000000E+00  8.00000000E-01
  8.00000000E-01  1.50000000E+00  8.00000000E-01  8.00000000E-01  1.50000000E+00
  8.00000000E-01  8.00000000E-01  1.50000000E+00  8.00000000E-01  8.00000000E-01
  1.50000000E+00  8.00000000E-01  8.00000000E-01  1.50000000E+00  8.00000000E-01
  8.00000000E-01  1.50000000E+00  8.00000000E-01  8.00000000E-01  1.50000000E+00
  8.00000000E-01  8.00000000E-01  1.50000000E+00  8.00000000E-01  8.00000000E-01
  1.50000000E+00  8.00000000E-01  8.00000000E-01  1.50000000E+00  8.00000000E-01
  8.00000000E-01  1.50000000E+00  8.00000000E-01  8.00000000E-01  1.50000000E+00
  8.00000000E-01  8.00000000E-01  1.50000000E+00  8.00000000E-01  8.00000000E-01
  1.50000000E+00  8.00000000E-01  8.00000000E-01  1.50000000E+00  8.00000000E-01
  8.00000000E-01  1.50000000E+00  8.00000000E-01  8.00000000E-01  1.50000000E+00
  8.00000000E-01  8.00000000E-01  1.50000000E+00  8.00000000E-01  8.00000000E-01
  1.50000000E+00  8.00000000E-01  8.00000000E-01  1.50000000E+00  8.00000000E-01
  8.00000000E-01  1.50000000E+00  8.00000000E-01  8.00000000E-01  1.50000000E+00
  8.00000000E-01  8.00000000E-01  1.50000000E+00  8.00000000E-01  8.00000000E-01
  1.50000000E+00  8.00000000E-01  8.00000000E-01  1.50000000E+00  8.00000000E-01
  8.00000000E-01  1.50000000E+00  8.00000000E-01  8.00000000E-01  1.50000000E+00
  8.00000000E-01  8.00000000E-01  1.50000000E+00  8.00000000E-01  8.00000000E-01
  1.50000000E+00  8.00000000E-01  8.00000000E-01  1.50000000E+00  8.00000000E-01
  8.00000000E-01  1.50000000E+00  8.00000000E-01  8.00000000E-01  1.50000000E+00
  8.00000000E-01  8.00000000E-01  1.50000000E+00  8.00000000E-01  8.00000000E-01
  1.50000000E+00  8.00000000E-01  8.00000000E-01  1.50000000E+00  8.00000000E-01
  8.00000000E-01  1.50000000E+00  8.00000000E-01  8.00000000E-01  1.50000000E+00
  8.00000000E-01  8.00000000E-01  1.50000000E+00  8.00000000E-01  8.00000000E-01
  1.50000000E+00  8.00000000E-01  8.00000000E-01  1.50000000E+00  8.00000000E-01
  8.00000000E-01  1.50000000E+00  8.00000000E-01  8.00000000E-01  1.50000000E+00
  8.00000000E-01  8.00000000E-01  1.50000000E+00  8.00000000E-01  8.00000000E-01
  1.50000000E+00  8.00000000E-01  8.00000000E-01  1.50000000E+00  8.00000000E-01
  8.00000000E-01  1.50000000E+00  8.00000000E-01  8.00000000E-01  1.50000000E+00
  8.00000000E-01  8.00000000E-01  1.50000000E+00  8.00000000E-01  8.00000000E-01
  1.50000000E+00  8.00000000E-01  8.00000000E-01  1.50000000E+00  8.00000000E-01
  8.00000000E-01  1.50000000E+00  8.00000000E-01  8.00000000E-01  1.50000000E+00
  8.00000000E-01  8.00000000E-01  1.50000000E+00  8.00000000E-01  8.00000000E-01
  1.50000000E+00  8.00000000E-01  8.00000000E-01  1.50000000E+00  8.00000000E-01
  8.00000000E-01  1.50000000E+00  8.00000000E-01  8.00000000E-01  1.50000000E+00
  8.00000000E-01  8.00000000E-01  1.50000000E+00  8.00000000E-01  8.00000000E-01
  1.50000000E+00  8.00000000E-01  8.00000000E-01  1.50000000E+00  8.00000000E-01
  8.00000000E-01  1.50000000E+00  8.00000000E-01  8.00000000E-01  1.50000000E+00
  8.00000000E-01  8.00000000E-01  1.50000000E+00  8.00000000E-01  8.00000000E-01
  1.50000000E+00  8.00000000E-01  8.00000000E-01  1.50000000E+00  8.00000000E-01
  8.00000000E-01  1.50000000E+00  8.00000000E-01  8.00000000E-01  1.50000000E+00
  8.00000000E-01  8.00000000E-01  1.50000000E+00  8.00000000E-01  8.00000000E-01
  1.50000000E+00  8.00000000E-01  8.00000000E-01  1.50000000E+00  8.00000000E-01
  8.00000000E-01  1.50000000E+00  8.00000000E-01  8.00000000E-01  1.50000000E+00
  8.00000000E-01  8.00000000E-01  1.50000000E+00  8.00000000E-01  8.00000000E-01
  1.50000000E+00  8.00000000E-01  8.00000000E-01  1.50000000E+00  8.00000000E-01
  8.00000000E-01  1.50000000E+00  8.00000000E-01  8.00000000E-01  1.50000000E+00
  8.00000000E-01  8.00000000E-01  1.50000000E+00  8.00000000E-01  8.00000000E-01
  1.50000000E+00  8.00000000E-01  8.00000000E-01  1.50000000E+00  8.00000000E-01
  8.00000000E-01  1.50000000E+00  8.00000000E-01  8.00000000E-01  1.50000000E+00
  8.00000000E-01  8.00000000E-01  1.50000000E+00  8.00000000E-01  8.00000000E-01
  1.50000000E+00  8.00000000E-01  8.00000000E-01  1.50000000E+00  8.00000000E-01
  8.00000000E-01  1.50000000E+00  8.00000000E-01  8.00000000E-01  1.50000000E+00
  8.00000000E-01  8.00000000E-01  1.50000000E+00  8.00000000E-01  8.00000000E-01
  1.50000000E+00  8.00000000E-01  8.00000000E-01  1.50000000E+00  8.00000000E-01
  8.00000000E-01  1.50000000E+00  8.00000000E-01  8.00000000E-01  1.50000000E+00
  8.00000000E-01  8.00000000E-01  1.50000000E+00  8.00000000E-01  8.00000000E-01
  1.50000000E+00  8.00000000E-01  8.00000000E-01  1.50000000E+00  8.00000000E-01
  8.00000000E-01  1.50000000E+00  8.00000000E-01  8.00000000E-01  1.50000000E+00
  8.00000000E-01  8.00000000E-01  1.50000000E+00  8.00000000E-01  8.00000000E-01
  1.50000000E+00  8.00000000E-01  8.00000000E-01  1.50000000E+00  8.00000000E-01
  8.00000000E-01  1.50000000E+00  8.00000000E-01  8.00000000E-01  1.50000000E+00
  8.00000000E-01  8.00000000E-01  1.50000000E+00  8.00000000E-01  8.00000000E-01
  1.50000000E+00  8.00000000E-01  8.00000000E-01  1.50000000E+00  8.00000000E-01
  8.00000000E-01  1.50000000E+00  8.00000000E-01  8.00000000E-01  1.50000000E+00
  8.00000000E-01  8.00000000E-01  1.50000000E+00  8.00000000E-01  8.00000000E-01
  1.50000000E+00  8.00000000E-01  8.00000000E-01  1.50000000E+00  8.00000000E-01
  8.00000000E-01  1.50000000E+00  8.00000000E-01  8.00000000E-01  1.50000000E+00
  8.00000000E-01  8.00000000E-01  1.50000000E+00  8.00000000E-01  8.00000000E-01
  1.50000000E+00  8.00000000E-01  8.00000000E-01  1.50000000E+00  8.00000000E-01
  8.00000000E-01  1.50000000E+00  8.00000000E-01  8.00000000E-01  1.50000000E+00
  8.00000000E-01  8.00000000E-01  1.50000000E+00  8.00000000E-01  8.00000000E-01
  1.50000000E+00  8.00000000E-01  8.00000000E-01  1.50000000E+00  8.00000000E-01
  8.00000000E-01  1.50000000E+00  8.00000000E-01  8.00000000E-01  1.50000000E+00
  8.00000000E-01  8.00000000E-01  1.50000000E+00  8.00000000E-01  8.00000000E-01
  1.50000000E+00  8.00000000E-01  8.00000000E-01  1.50000000E+00  8.00000000E-01
  8.00000000E-01  1.50000000E+00  8.00000000E-01  8.00000000E-01  1.50000000E+00
  8.00000000E-01  8.00000000E-01  1.50000000E+00  8.00000000E-01  8.00000000E-01
  1.50000000E+00  8.00000000E-01  8.00000000E-01  1.50000000E+00  8.00000000E-01
  8.00000000E-01  1.50000000E+00  8.00000000E-01  8.00000000E-01  1.50000000E+00
  8.00000000E-01  8.00000000E-01  1.50000000E+00  8.00000000E-01  8.00000000E-01
  1.50000000E+00  8.00000000E-01  8.00000000E-01  1.50000000E+00  8.00000000E-01
  8.00000000E-01  1.50000000E+00  8.00000000E-01  8.00000000E-01  1.50000000E+00
  8.00000000E-01  8.00000000E-01  1.50000000E+00  8.00000000E-01  8.00000000E-01
  1.50000000E+00  8.00000000E-01  8.00000000E-01  1.50000000E+00  8.00000000E-01
  8.00000000E-01  1.50000000E+00  8.00000000E-01  8.00000000E-01  1.50000000E+00
  8.00000000E-01  8.00000000E-01  1.50000000E+00  8.00000000E-01  8.00000000E-01
  1.50000000E+00  8.00000000E-01  8.00000000E-01  1.50000000E+00  8.00000000E-01
  8.00000000E-01  1.50000000E+00  8.00000000E-01  8.00000000E-01  1.50000000E+00
  8.00000000E-01  8.00000000E-01  1.50000000E+00  8.00000000E-01  8.00000000E-01
  1.50000000E+00  8.00000000E-01  8.00000000E-01  1.50000000E+00  8.00000000E-01
  8.00000000E-01  1.50000000E+00  8.00000000E-01  8.00000000E-01  1.50000000E+00
  8.00000000E-01  8.00000000E-01  1.50000000E+00  8.00000000E-01  8.00000000E-01
  1.50000000E+00  8.00000000E-01  8.00000000E-01  1.50000000E+00  8.00000000E-01
  8.00000000E-01  1.50000000E+00  8.00000000E-01  8.00000000E-01  1.50000000E+00
  8.00000000E-01  8.00000000E-01  1.50000000E+00  8.00000000E-01  8.00000000E-01
  1.50000000E+00  8.00000000E-01  8.00000000E-01  1.50000000E+00  8.00000000E-01
  8.00000000E-01  1.50000000E+00  8.00000000E-01  8.00000000E-01  1.50000000E+00
  8.00000000E-01  8.00000000E-01  1.50000000E+00  8.00000000E-01  8.00000000E-01
  1.50000000E+00  8.00000000E-01  8.00000000E-01  1.50000000E+00  8.00000000E-01
  8.00000000E-01  1.50000000E+00  8.00000000E-01  8.00000000E-01  1.50000000E+00
  8.00000000E-01  8.00000000E-01  1.50000000E+00  8.00000000E-01  8.00000000E-01
  1.50000000E+00  8.00000000E-01  8.00000000E-01  1.50000000E+00  8.00000000E-01
  8.00000000E-01  1.50000000E+00  8.00000000E-01  8.00000000E-01  1.50000000E+00
  8.00000000E-01  8.00000000E-01  1.50000000E+00  8.00000000E-01  8.00000000E-01
  1.50000000E+00  8.00000000E-01  8.00000000E-01  1.50000000E+00  8.00000000E-01
  8.00000000E-01  1.50000000E+00  8.00000000E-01  8.00000000E-01  1.50000000E+00
  8.00000000E-01  8.00000000E-01  1.50000000E+00  8.00000000E-01  8.00000000E-01
  1.50000000E+00  8.00000000E-01  8.00000000E-01  1.50000000E+00  8.00000000E-01
  8.00000000E-01  1.50000000E+00  8.00000000E-01  8.00000000E-01  1.50000000E+00
  8.00000000E-01  8.00000000E-01  1.50000000E+00  8.00000000E-01  8.00000000E-01
  1.50000000E+00  8.00000000E-01  8.00000000E-01  1.50000000E+00  8.00000000E-01
  8.00000000E-01  1.50000000E+00  8.00000000E-01  8.00000000E-01  1.50000000E+00
  8.00000000E-01  8.00000000E-01  1.50000000E+00  8.00000000E-01  8.00000000E-01
  1.50000000E+00  8.00000000E-01  8.00000000E-01  1.50000000E+00  8.00000000E-01
  8.00000000E-01  1.50000000E+00  8.00000000E-01  8.00000000E-01  1.50000000E+00
  8.00000000E-01  8.00000000E-01  1.50000000E+00  8.00000000E-01  8.00000000E-01
  1.50000000E+00  8.00000000E-01  8.00000000E-01  1.50000000E+00  8.00000000E-01
  8.00000000E-01  1.50000000E+00  8.00000000E-01  8.00000000E-01  1.50000000E+00
  8.00000000E-01  8.00000000E-01  1.50000000E+00  8.00000000E-01  8.00000000E-01
  1.50000000E+00  8.00000000E-01  8.00000000E-01  1.50000000E+00  8.00000000E-01
  8.00000000E-01  1.50000000E+00  8.00000000E-01  8.00000000E-01  1.50000000E+00
  8.00000000E-01  8.00000000E-01  1.50000000E+00  8.00000000E-01  8.00000000E-01
  1.50000000E+00  8.00000000E-01  8.00000000E-01  1.50000000E+00  8.00000000E-01
  8.00000000E-01  1.50000000E+00  8.00000000E-01  8.00000000E-01  1.50000000E+00
  8.00000000E-01  8.00000000E-01  1.50000000E+00  8.00000000E-01  8.00000000E-01
  1.50000000E+00  8.00000000E-01  8.00000000E-01  1.50000000E+00  8.00000000E-01
  8.00000000E-01  1.50000000E+00  8.00000000E-01  8.00000000E-01  1.50000000E+00
  8.00000000E-01  8.00000000E-01  1.50000000E+00  8.00000000E-01  8.00000000E-01
  1.50000000E+00  8.00000000E-01  8.00000000E-01  1.50000000E+00  8.00000000E-01
  8.00000000E-01  1.50000000E+00  8.00000000E-01  8.00000000E-01  1.50000000E+00
  8.00000000E-01  8.00000000E-01  1.50000000E+00  8.00000000E-01  8.00000000E-01
  1.50000000E+00  8.00000000E-01  8.00000000E-01  1.50000000E+00  8.00000000E-01
  8.00000000E-01  1.50000000E+00  8.00000000E-01  8.00000000E-01  1.50000000E+00
  8.00000000E-01  8.00000000E-01  1.50000000E+00  8.00000000E-01  8.00000000E-01
  1.50000000E+00  8.00000000E-01  8.00000000E-01  1.50000000E+00  8.00000000E-01
  8.00000000E-01  1.50000000E+00  8.00000000E-01  8.00000000E-01  1.50000000E+00
  8.00000000E-01  8.00000000E-01  1.50000000E+00  8.00000000E-01  8.00000000E-01
  1.50000000E+00  8.00000000E-01  8.00000000E-01  1.50000000E+00  8.00000000E-01
  8.00000000E-01  1.50000000E+00  8.00000000E-01  8.00000000E-01  1.50000000E+00
  8.00000000E-01  8.00000000E-01  1.50000000E+00  8.00000000E-01  8.00000000E-01
  1.50000000E+00  8.00000000E-01  8.00000000E-01  1.50000000E+00  8.00000000E-01
  8.00000000E-01  1.50000000E+00  8.00000000E-01  8.00000000E-01  1.50000000E+00
  8.00000000E-01  8.00000000E-01  1.50000000E+00  8.00000000E-01  8.00000000E-01
  1.50000000E+00  8.00000000E-01  8.00000000E-01  1.50000000E+00  8.00000000E-01
  8.00000000E-01  1.50000000E+00  8.00000000E-01  8.00000000E-01  1.50000000E+00
  8.00000000E-01  8.00000000E-01  1.50000000E+00  8.00000000E-01  8.00000000E-01
  1.50000000E+00  8.00000000E-01  8.00000000E-01  1.50000000E+00  8.00000000E-01
  8.00000000E-01  1.50000000E+00  8.00000000E-01  8.00000000E-01  1.50000000E+00
  8.00000000E-01  8.00000000E-01  1.50000000E+00  8.00000000E-01  8.00000000E-01
  1.50000000E+00  8.00000000E-01  8.00000000E-01  1.50000000E+00  8.00000000E-01
  8.00000000E-01  1.50000000E+00  8.00000000E-01  8.00000000E-01  1.50000000E+00
  8.00000000E-01  8.00000000E-01  1.50000000E+00  8.00000000E-01  8.00000000E-01
  1.50000000E+00  8.00000000E-01  8.00000000E-01  1.50000000E+00  8.00000000E-01
  8.00000000E-01  1.50000000E+00  8.00000000E-01  8.00000000E-01  1.50000000E+00
  8.00000000E-01  8.00000000E-01  1.50000000E+00  8.00000000E-01  8.00000000E-01
  1.50000000E+00  8.00000000E-01  8.00000000E-01  1.50000000E+00  8.00000000E-01
  8.00000000E-01  1.50000000E+00  8.00000000E-01  8.00000000E-01  1.50000000E+00
  8.00000000E-01  8.00000000E-01  1.50000000E+00  8.00000000E-01  8.00000000E-01
  1.50000000E+00  8.00000000E-01  8.00000000E-01  1.50000000E+00  8.00000000E-01
  8.00000000E-01  1.50000000E+00  8.00000000E-01  8.00000000E-01  1.50000000E+00
  8.00000000E-01  8.00000000E-01  1.50000000E+00  8.00000000E-01  8.00000000E-01
  1.50000000E+00  8.00000000E-01  8.00000000E-01  1.50000000E+00  8.00000000E-01
  8.00000000E-01  1.50000000E+00  8.00000000E-01  8.00000000E-01  1.50000000E+00
  8.00000000E-01  8.00000000E-01  1.50000000E+00  8.00000000E-01  8.00000000E-01
  1.50000000E+00  8.00000000E-01  8.00000000E-01  1.50000000E+00  8.00000000E-01
  8.00000000E-01  1.50000000E+00  8.00000000E-01  8.00000000E-01  1.50000000E+00
  8.00000000E-01  8.00000000E-01  1.50000000E+00  8.00000000E-01  8.00000000E-01
  1.50000000E+00  8.00000000E-01  8.00000000E-01  1.50000000E+00  8.00000000E-01
  8.00000000E-01  1.50000000E+00  8.00000000E-01  8.00000000E-01  1.50000000E+00
  8.00000000E-01  8.00000000E-01  1.50000000E+00  8.00000000E-01  8.00000000E-01
  1.50000000E+00  8.00000000E-01  8.00000000E-01  1.50000000E+00  8.00000000E-01
  8.00000000E-01  1.50000000E+00  8.00000000E-01  8.00000000E-01  1.50000000E+00
  8.00000000E-01  8.00000000E-01  1.50000000E+00  8.00000000E-01  8.00000000E-01
  1.50000000E+00  8.00000000E-01  8.00000000E-01  1.50000000E+00  8.00000000E-01
  8.00000000E-01  1.50000000E+00  8.00000000E-01  8.00000000E-01  1.50000000E+00
  8.00000000E-01  8.00000000E-01  1.50000000E+00  8.00000000E-01  8.00000000E-01
  1.50000000E+00  8.00000000E-01  8.00000000E-01  1.50000000E+00  8.00000000E-01
  8.00000000E-01  1.50000000E+00  8.00000000E-01  8.00000000E-01  1.50000000E+00
  8.00000000E-01  8.00000000E-01  1.50000000E+00  8.00000000E-01  8.00000000E-01
  1.50000000E+00  8.00000000E-01  8.00000000E-01  1.50000000E+00  8.00000000E-01
  8.00000000E-01  1.50000000E+00  8.00000000E-01  8.00000000E-01  1.50000000E+00
  8.00000000E-01  8.00000000E-01  1.50000000E+00  8.00000000E-01  8.00000000E-01
  1.50000000E+00  8.00000000E-01  8.00000000E-01  1.50000000E+00  8.00000000E-01
  8.00000000E-01  1.50000000E+00  8.00000000E-01  8.00000000E-01  1.50000000E+00
  8.00000000E-01  8.00000000E-01  1.50000000E+00  8.00000000E-01  8.00000000E-01
  1.50000000E+00  8.00000000E-01  8.00000000E-01  1.50000000E+00  8.00000000E-01
  8.00000000E-01  1.50000000E+00  8.00000000E-01  8.00000000E-01  1.50000000E+00
  8.00000000E-01  8.00000000E-01  1.50000000E+00  8.00000000E-01  8.00000000E-01
  1.50000000E+00  8.00000000E-01  8.00000000E-01  1.50000000E+00  8.00000000E-01
  8.00000000E-01  1.50000000E+00  8.00000000E-01  8.00000000E-01  1.50000000E+00
  8.00000000E-01  8.00000000E-01  1.50000000E+00  8.00000000E-01  8.00000000E-01
  1.50000000E+00  8.00000000E-01  8.00000000E-01  1.50000000E+00  8.00000000E-01
  8.00000000E-01  1.50000000E+00  8.00000000E-01  8.00000000E-01  1.50000000E+00
  8.00000000E-01  8.00000000E-01  1.50000000E+00  8.00000000E-01  8.00000000E-01
  1.50000000E+00  8.00000000E-01  8.00000000E-01  1.50000000E+00  8.00000000E-01
  8.00000000E-01  1.50000000E+00  8.00000000E-01  8.00000000E-01  1.50000000E+00
  8.00000000E-01  8.00000000E-01  1.50000000E+00  8.00000000E-01  8.00000000E-01
  1.50000000E+00  8.00000000E-01  8.00000000E-01  1.50000000E+00  8.00000000E-01
  8.00000000E-01  1.50000000E+00  8.00000000E-01  8.00000000E-01  1.50000000E+00
  8.00000000E-01  8.00000000E-01  1.50000000E+00  8.00000000E-01  8.00000000E-01
  1.50000000E+00  8.00000000E-01  8.00000000E-01  1.50000000E+00  8.00000000E-01
  8.00000000E-01  1.50000000E+00  8.00000000E-01  8.00000000E-01  1.50000000E+00
  8.00000000E-01  8.00000000E-01  1.50000000E+00  8.00000000E-01  8.00000000E-01
  1.50000000E+00  8.00000000E-01  8.00000000E-01  1.50000000E+00  8.00000000E-01
  8.00000000E-01  1.50000000E+00  8.00000000E-01  8.00000000E-01  1.50000000E+00
  8.00000000E-01  8.00000000E-01  1.50000000E+00  8.00000000E-01  8.00000000E-01
  1.50000000E+00  8.00000000E-01  8.00000000E-01  1.50000000E+00  8.00000000E-01
  8.00000000E-01  1.50000000E+00  8.00000000E-01  8.00000000E-01  1.50000000E+00
  8.00000000E-01  8.00000000E-01  1.50000000E+00  8.00000000E-01  8.00000000E-01
  1.50000000E+00  8.00000000E-01  8.00000000E-01  1.50000000E+00  8.00000000E-01
  8.00000000E-01  1.50000000E+00  8.00000000E-01  8.00000000E-01  1.50000000E+00
  8.00000000E-01  8.00000000E-01  1.50000000E+00  8.00000000E-01  8.00000000E-01
  1.50000000E+00  8.00000000E-01  8.00000000E-01  1.50000000E+00  8.00000000E-01
  8.00000000E-01  1.50000000E+00  8.00000000E-01  8.00000000E-01  1.50000000E+00
  8.00000000E-01  8.00000000E-01  1.50000000E+00  8.00000000E-01  8.00000000E-01
  1.50000000E+00  8.00000000E-01  8.00000000E-01  1.50000000E+00  8.00000000E-01
  8.00000000E-01  1.50000000E+00  8.00000000E-01  8.00000000E-01  1.50000000E+00
  8.00000000E-01  8.00000000E-01  1.50000000E+00  8.00000000E-01  8.00000000E-01
  1.50000000E+00  8.00000000E-01  8.00000000E-01  1.50000000E+00  8.00000000E-01
  8.00000000E-01  1.50000000E+00  8.00000000E-01  8.00000000E-01  1.50000000E+00
  8.00000000E-01  8.00000000E-01  1.50000000E+00  8.00000000E-01  8.00000000E-01
  1.50000000E+00  8.00000000E-01  8.00000000E-01  1.50000000E+00  8.00000000E-01
  8.00000000E-01  1.50000000E+00  8.00000000E-01  8.00000000E-01  1.50000000E+00
  8.00000000E-01  8.00000000E-01  1.50000000E+00  8.00000000E-01  8.00000000E-01
  1.50000000E+00  8.00000000E-01  8.00000000E-01  1.50000000E+00  8.00000000E-01
  8.00000000E-01  1.50000000E+00  8.00000000E-01  8.00000000E-01  1.50000000E+00
  8.00000000E-01  8.00000000E-01  1.50000000E+00  8.00000000E-01  8.00000000E-01
  1.50000000E+00  8.00000000E-01  8.00000000E-01  1.50000000E+00  8.00000000E-01
  8.00000000E-01  1.50000000E+00  8.00000000E-01  8.00000000E-01  1.50000000E+00
  8.00000000E-01  8.00000000E-01  1.50000000E+00  8.00000000E-01  8.00000000E-01
  1.50000000E+00  8.00000000E-01  8.00000000E-01  1.50000000E+00  8.00000000E-01
  8.00000000E-01  1.50000000E+00  8.00000000E-01  8.00000000E-01  1.50000000E+00
  8.00000000E-01  8.00000000E-01  1.50000000E+00  8.00000000E-01  8.00000000E-01
  1.50000000E+00  8.00000000E-01  8.00000000E-01  1.50000000E+00  8.00000000E-01
  8.00000000E-01  1.50000000E+00  8.00000000E-01  8.00000000E-01  1.50000000E+00
  8.00000000E-01  8.00000000E-01  1.50000000E+00  8.00000000E-01  8.00000000E-01
  1.50000000E+00  8.00000000E-01  8.00000000E-01  1.50000000E+00  8.00000000E-01
  8.00000000E-01  1.50000000E+00  8.00000000E-01  8.00000000E-01  1.50000000E+00
  8.00000000E-01  8.00000000E-01  1.50000000E+00  8.00000000E-01  8.00000000E-01
  1.50000000E+00  8.00000000E-01  8.00000000E-01  1.50000000E+00  8.00000000E-01
  8.00000000E-01  1.50000000E+00  8.00000000E-01  8.00000000E-01  1.50000000E+00
  8.00000000E-01  8.00000000E-01  1.50000000E+00  8.00000000E-01  8.00000000E-01
  1.50000000E+00  8.00000000E-01  8.00000000E-01  1.50000000E+00  8.00000000E-01
  8.00000000E-01  1.50000000E+00  8.00000000E-01  8.00000000E-01  1.50000000E+00
  8.00000000E-01  8.00000000E-01  1.50000000E+00  8.00000000E-01  8.00000000E-01
  1.50000000E+00  8.00000000E-01  8.00000000E-01  1.50000000E+00  8.00000000E-01
  8.00000000E-01  1.50000000E+00  8.00000000E-01  8.00000000E-01  1.50000000E+00
  8.00000000E-01  8.00000000E-01  1.50000000E+00  8.00000000E-01  8.00000000E-01
  1.50000000E+00  8.00000000E-01  8.00000000E-01  1.50000000E+00  8.00000000E-01
  8.00000000E-01  1.50000000E+00  8.00000000E-01  8.00000000E-01  1.50000000E+00
  8.00000000E-01  8.00000000E-01  1.50000000E+00  8.00000000E-01  8.00000000E-01
  1.50000000E+00  8.00000000E-01  8.00000000E-01  1.50000000E+00  8.00000000E-01
  8.00000000E-01  1.50000000E+00  8.00000000E-01  8.00000000E-01  1.50000000E+00
  8.00000000E-01  8.00000000E-01  1.50000000E+00  8.00000000E-01  8.00000000E-01
  1.50000000E+00  8.00000000E-01  8.00000000E-01  1.50000000E+00  8.00000000E-01
  8.00000000E-01  1.50000000E+00  8.00000000E-01  8.00000000E-01  1.50000000E+00
  8.00000000E-01  8.00000000E-01  1.50000000E+00  8.00000000E-01  8.00000000E-01
  1.50000000E+00  8.00000000E-01  8.00000000E-01  1.50000000E+00  8.00000000E-01
  8.00000000E-01  1.50000000E+00  8.00000000E-01  8.00000000E-01  1.50000000E+00
  8.00000000E-01  8.00000000E-01  1.50000000E+00  8.00000000E-01  8.00000000E-01
  1.50000000E+00  8.00000000E-01  8.00000000E-01  1.50000000E+00  8.00000000E-01
  8.00000000E-01  1.50000000E+00  8.00000000E-01  8.00000000E-01  1.50000000E+00
  8.00000000E-01  8.00000000E-01  1.50000000E+00  8.00000000E-01  8.00000000E-01
  1.50000000E+00  8.00000000E-01  8.00000000E-01  1.50000000E+00  8.00000000E-01
  8.00000000E-01  1.50000000E+00  8.00000000E-01  8.00000000E-01  1.50000000E+00
  8.00000000E-01  8.00000000E-01  1.50000000E+00  8.00000000E-01  8.00000000E-01
  1.50000000E+00  8.00000000E-01  8.00000000E-01  1.50000000E+00  8.00000000E-01
  8.00000000E-01  1.50000000E+00  8.00000000E-01  8.00000000E-01  1.50000000E+00
  8.00000000E-01  8.00000000E-01  1.50000000E+00  8.00000000E-01  8.00000000E-01
  1.50000000E+00  8.00000000E-01  8.00000000E-01  1.50000000E+00  8.00000000E-01
  8.00000000E-01  1.50000000E+00  8.00000000E-01  8.00000000E-01  1.50000000E+00
  8.00000000E-01  8.00000000E-01  1.50000000E+00  8.00000000E-01  8.00000000E-01
  1.50000000E+00  8.00000000E-01  8.00000000E-01  1.50000000E+00  8.00000000E-01
  8.00000000E-01  1.50000000E+00  8.00000000E-01  8.00000000E-01  1.50000000E+00
  8.00000000E-01  8.00000000E-01  1.50000000E+00  8.00000000E-01  8.00000000E-01
  1.50000000E+00  8.00000000E-01  8.00000000E-01  1.50000000E+00  8.00000000E-01
  8.00000000E-01  1.50000000E+00  8.00000000E-01  8.00000000E-01  1.50000000E+00
  8.00000000E-01  8.00000000E-01  1.50000000E+00  8.00000000E-01  8.00000000E-01
  1.50000000E+00  8.00000000E-01  8.00000000E-01  1.50000000E+00  8.00000000E-01
  8.00000000E-01  1.50000000E+00  8.00000000E-01  8.00000000E-01  1.50000000E+00
  8.00000000E-01  8.00000000E-01  1.50000000E+00  8.00000000E-01  8.00000000E-01
  1.50000000E+00  8.00000000E-01  8.00000000E-01  1.50000000E+00  8.00000000E-01
  8.00000000E-01  1.50000000E+00  8.00000000E-01  8.00000000E-01  1.50000000E+00
  8.00000000E-01  8.00000000E-01  1.50000000E+00  8.00000000E-01  8.00000000E-01
  1.50000000E+00  8.00000000E-01  8.00000000E-01  1.50000000E+00  8.00000000E-01
  8.00000000E-01  1.50000000E+00  8.00000000E-01  8.00000000E-01  1.50000000E+00
  8.00000000E-01  8.00000000E-01  1.50000000E+00  8.00000000E-01  8.00000000E-01
  1.50000000E+00  8.00000000E-01  8.00000000E-01  1.50000000E+00  8.00000000E-01
  8.00000000E-01  1.50000000E+00  8.00000000E-01  8.00000000E-01  1.50000000E+00
  8.00000000E-01  8.00000000E-01  1.50000000E+00  8.00000000E-01  8.00000000E-01
  1.50000000E+00  8.00000000E-01  8.00000000E-01  1.50000000E+00  8.00000000E-01
  8.00000000E-01  1.50000000E+00  8.00000000E-01  8.00000000E-01  1.50000000E+00
  8.00000000E-01  8.00000000E-01  1.50000000E+00  8.00000000E-01  8.00000000E-01
  1.50000000E+00  8.00000000E-01  8.00000000E-01  1.50000000E+00  8.00000000E-01
  8.00000000E-01  1.50000000E+00  8.00000000E-01  8.00000000E-01  1.50000000E+00
  8.00000000E-01  8.00000000E-01  1.50000000E+00  8.00000000E-01  8.00000000E-01
  1.50000000E+00  8.00000000E-01  8.00000000E-01  1.50000000E+00  8.00000000E-01
  8.00000000E-01  1.50000000E+00  8.00000000E-01  8.00000000E-01  1.50000000E+00
  8.00000000E-01  8.00000000E-01  1.50000000E+00  8.00000000E-01  8.00000000E-01
  1.50000000E+00  8.00000000E-01  8.00000000E-01  1.50000000E+00  8.00000000E-01
  8.00000000E-01  1.50000000E+00  8.00000000E-01  8.00000000E-01  1.50000000E+00
  8.00000000E-01  8.00000000E-01  1.50000000E+00  8.00000000E-01  8.00000000E-01
  1.50000000E+00  8.00000000E-01  8.00000000E-01  1.50000000E+00  8.00000000E-01
  8.00000000E-01  1.50000000E+00  8.00000000E-01  8.00000000E-01  1.50000000E+00
  8.00000000E-01  8.00000000E-01  1.50000000E+00  8.00000000E-01  8.00000000E-01
  1.50000000E+00  8.00000000E-01  8.00000000E-01  1.50000000E+00  8.00000000E-01
  8.00000000E-01  1.50000000E+00  8.00000000E-01  8.00000000E-01  1.50000000E+00
  8.00000000E-01  8.00000000E-01  1.50000000E+00  8.00000000E-01  8.00000000E-01
  1.50000000E+00  8.00000000E-01  8.00000000E-01  1.50000000E+00  8.00000000E-01
  8.00000000E-01  1.50000000E+00  8.00000000E-01  8.00000000E-01  1.50000000E+00
  8.00000000E-01  8.00000000E-01  1.50000000E+00  8.00000000E-01  8.00000000E-01
  1.50000000E+00  8.00000000E-01  8.00000000E-01  1.50000000E+00  8.00000000E-01
  8.00000000E-01  1.50000000E+00  8.00000000E-01  8.00000000E-01  1.50000000E+00
  8.00000000E-01  8.00000000E-01  1.50000000E+00  8.00000000E-01  8.00000000E-01
  1.50000000E+00  8.00000000E-01  8.00000000E-01  1.50000000E+00  8.00000000E-01
  8.00000000E-01  1.50000000E+00  8.00000000E-01  8.00000000E-01  1.50000000E+00
  8.00000000E-01  8.00000000E-01  1.50000000E+00  8.00000000E-01  8.00000000E-01
  1.50000000E+00  8.00000000E-01  8.00000000E-01  1.50000000E+00  8.00000000E-01
  8.00000000E-01  1.50000000E+00  8.00000000E-01  8.00000000E-01  1.50000000E+00
  8.00000000E-01  8.00000000E-01  1.50000000E+00  8.00000000E-01  8.00000000E-01
  1.50000000E+00  8.00000000E-01  8.00000000E-01  1.50000000E+00  8.00000000E-01
  8.00000000E-01  1.50000000E+00  8.00000000E-01  8.00000000E-01  1.50000000E+00
  8.00000000E-01  8.00000000E-01  1.50000000E+00  8.00000000E-01  8.00000000E-01
  1.50000000E+00  8.00000000E-01  8.00000000E-01  1.50000000E+00  8.00000000E-01
  8.00000000E-01  1.50000000E+00  8.00000000E-01  8.00000000E-01  1.50000000E+00
  8.00000000E-01  8.00000000E-01  1.50000000E+00  8.00000000E-01  8.00000000E-01
  1.50000000E+00  8.00000000E-01  8.00000000E-01  1.50000000E+00  8.00000000E-01
  8.00000000E-01  1.50000000E+00  8.00000000E-01  8.00000000E-01  1.50000000E+00
  8.00000000E-01  8.00000000E-01  1.50000000E+00  8.00000000E-01  8.00000000E-01
  1.50000000E+00  8.00000000E-01  8.00000000E-01  1.50000000E+00  8.00000000E-01
  8.00000000E-01  1.50000000E+00  8.00000000E-01  8.00000000E-01  1.50000000E+00
  8.00000000E-01  8.00000000E-01  1.50000000E+00  8.00000000E-01  8.00000000E-01
  1.50000000E+00  8.00000000E-01  8.00000000E-01  1.50000000E+00  8.00000000E-01
  8.00000000E-01  1.50000000E+00  8.00000000E-01  8.00000000E-01  1.50000000E+00
  8.00000000E-01  8.00000000E-01  1.50000000E+00  8.00000000E-01  8.00000000E-01
  1.50000000E+00  8.00000000E-01  8.00000000E-01  1.50000000E+00  8.00000000E-01
  8.00000000E-01  1.50000000E+00  8.00000000E-01  8.00000000E-01  1.50000000E+00
  8.00000000E-01  8.00000000E-01  1.50000000E+00  8.00000000E-01  8.00000000E-01
  1.50000000E+00  8.00000000E-01  8.00000000E-01  1.50000000E+00  8.00000000E-01
  8.00000000E-01  1.50000000E+00  8.00000000E-01  8.00000000E-01  1.50000000E+00
  8.00000000E-01  8.00000000E-01  1.50000000E+00  8.00000000E-01  8.00000000E-01
  1.50000000E+00  8.00000000E-01  8.00000000E-01  1.50000000E+00  8.00000000E-01
  8.00000000E-01  1.50000000E+00  8.00000000E-01  8.00000000E-01  1.50000000E+00
  8.00000000E-01  8.00000000E-01  1.50000000E+00  8.00000000E-01  8.00000000E-01
  1.50000000E+00  8.00000000E-01  8.00000000E-01  1.50000000E+00  8.00000000E-01
  8.00000000E-01  1.50000000E+00  8.00000000E-01  8.00000000E-01  1.50000000E+00
  8.00000000E-01  8.00000000E-01  1.50000000E+00  8.00000000E-01  8.00000000E-01
  1.50000000E+00  8.00000000E-01  8.00000000E-01  1.50000000E+00  8.00000000E-01
  8.00000000E-01  1.50000000E+00  8.00000000E-01  8.00000000E-01  1.50000000E+00
  8.00000000E-01  8.00000000E-01  1.50000000E+00  8.00000000E-01  8.00000000E-01
  1.50000000E+00  8.00000000E-01  8.00000000E-01  1.50000000E+00  8.00000000E-01
  8.00000000E-01  1.50000000E+00  8.00000000E-01  8.00000000E-01  1.50000000E+00
  8.00000000E-01  8.00000000E-01  1.50000000E+00  8.00000000E-01  8.00000000E-01
  1.50000000E+00  8.00000000E-01  8.00000000E-01  1.50000000E+00  8.00000000E-01
  8.00000000E-01  1.50000000E+00  8.00000000E-01  8.00000000E-01  1.50000000E+00
  8.00000000E-01  8.00000000E-01  1.50000000E+00  8.00000000E-01  8.00000000E-01
  1.50000000E+00  8.00000000E-01  8.00000000E-01  1.50000000E+00  8.00000000E-01
  8.00000000E-01  1.50000000E+00  8.00000000E-01  8.00000000E-01  1.50000000E+00
  8.00000000E-01  8.00000000E-01  1.50000000E+00  8.00000000E-01  8.00000000E-01
  1.50000000E+00  8.00000000E-01  8.00000000E-01  1.50000000E+00  8.00000000E-01
  8.00000000E-01  1.50000000E+00  8.00000000E-01  8.00000000E-01  1.50000000E+00
  8.00000000E-01  8.00000000E-01  1.50000000E+00  8.00000000E-01  8.00000000E-01
  1.50000000E+00  8.00000000E-01  8.00000000E-01  1.50000000E+00  8.00000000E-01
  8.00000000E-01  1.50000000E+00  8.00000000E-01  8.00000000E-01  1.50000000E+00
  8.00000000E-01  8.00000000E-01  1.50000000E+00  8.00000000E-01  8.00000000E-01
  1.50000000E+00  8.00000000E-01  8.00000000E-01  1.50000000E+00  8.00000000E-01
  8.00000000E-01  1.50000000E+00  8.00000000E-01  8.00000000E-01  1.50000000E+00
  8.00000000E-01  8.00000000E-01  1.50000000E+00  8.00000000E-01  8.00000000E-01
  1.50000000E+00  8.00000000E-01  8.00000000E-01  1.50000000E+00  8.00000000E-01
  8.00000000E-01  1.50000000E+00  8.00000000E-01  8.00000000E-01  1.50000000E+00
  8.00000000E-01  8.00000000E-01  1.50000000E+00  8.00000000E-01  8.00000000E-01
  1.50000000E+00  8.00000000E-01  8.00000000E-01  1.50000000E+00  8.00000000E-01
  8.00000000E-01  1.50000000E+00  8.00000000E-01  8.00000000E-01  1.50000000E+00
  8.00000000E-01  8.00000000E-01  1.50000000E+00  8.00000000E-01  8.00000000E-01
  1.50000000E+00  8.00000000E-01  8.00000000E-01  1.50000000E+00  8.00000000E-01
  8.00000000E-01  1.50000000E+00  8.00000000E-01  8.00000000E-01  1.50000000E+00
  8.00000000E-01  8.00000000E-01  1.50000000E+00  8.00000000E-01  8.00000000E-01
  1.50000000E+00  8.00000000E-01  8.00000000E-01  1.50000000E+00  8.00000000E-01
  8.00000000E-01  1.50000000E+00  8.00000000E-01  8.00000000E-01  1.50000000E+00
  8.00000000E-01  8.00000000E-01  1.50000000E+00  8.00000000E-01  8.00000000E-01
  1.50000000E+00  8.00000000E-01  8.00000000E-01  1.50000000E+00  8.00000000E-01
  8.00000000E-01  1.50000000E+00  8.00000000E-01  8.00000000E-01  1.50000000E+00
  8.00000000E-01  8.00000000E-01  1.50000000E+00  8.00000000E-01  8.00000000E-01
  1.50000000E+00  8.00000000E-01  8.00000000E-01  1.50000000E+00  8.00000000E-01
  8.00000000E-01  1.50000000E+00  8.00000000E-01  8.00000000E-01  1.50000000E+00
  8.00000000E-01  8.00000000E-01  1.50000000E+00  8.00000000E-01  8.00000000E-01
  1.50000000E+00  8.00000000E-01  8.00000000E-01  1.50000000E+00  8.00000000E-01
  8.00000000E-01  1.50000000E+00  8.00000000E-01  8.00000000E-01  1.50000000E+00
  8.00000000E-01  8.00000000E-01  1.50000000E+00  8.00000000E-01  8.00000000E-01
  1.50000000E+00  8.00000000E-01  8.00000000E-01  1.50000000E+00  8.00000000E-01
  8.00000000E-01  1.50000000E+00  8.00000000E-01  8.00000000E-01  1.50000000E+00
  8.00000000E-01  8.00000000E-01  1.50000000E+00  8.00000000E-01  8.00000000E-01
  1.50000000E+00  8.00000000E-01  8.00000000E-01  1.50000000E+00  8.00000000E-01
  8.00000000E-01  1.50000000E+00  8.00000000E-01  8.00000000E-01  1.50000000E+00
  8.00000000E-01  8.00000000E-01  1.50000000E+00  8.00000000E-01  8.00000000E-01
  1.50000000E+00  8.00000000E-01  8.00000000E-01  1.50000000E+00  8.00000000E-01
  8.00000000E-01  1.50000000E+00  8.00000000E-01  8.00000000E-01  1.50000000E+00
  8.00000000E-01  8.00000000E-01  1.50000000E+00  8.00000000E-01  8.00000000E-01
  1.50000000E+00  8.00000000E-01  8.00000000E-01  1.50000000E+00  8.00000000E-01
  8.00000000E-01  1.50000000E+00  8.00000000E-01  8.00000000E-01  1.50000000E+00
  8.00000000E-01  8.00000000E-01  1.50000000E+00  8.00000000E-01  8.00000000E-01
  1.50000000E+00  8.00000000E-01  8.00000000E-01  1.50000000E+00  8.00000000E-01
  8.00000000E-01  1.50000000E+00  8.00000000E-01  8.00000000E-01  1.50000000E+00
  8.00000000E-01  8.00000000E-01  1.50000000E+00  8.00000000E-01  8.00000000E-01
  1.50000000E+00  8.00000000E-01  8.00000000E-01  1.50000000E+00  8.00000000E-01
  8.00000000E-01  1.50000000E+00  8.00000000E-01  8.00000000E-01  1.50000000E+00
  8.00000000E-01  8.00000000E-01  1.50000000E+00  8.00000000E-01  8.00000000E-01
  1.50000000E+00  8.00000000E-01  8.00000000E-01  1.50000000E+00  8.00000000E-01
  8.00000000E-01  1.50000000E+00  8.00000000E-01  8.00000000E-01  1.50000000E+00
  8.00000000E-01  8.00000000E-01  1.50000000E+00  8.00000000E-01  8.00000000E-01
  1.50000000E+00  8.00000000E-01  8.00000000E-01  1.50000000E+00  8.00000000E-01
  8.00000000E-01  1.50000000E+00  8.00000000E-01  8.00000000E-01  1.50000000E+00
  8.00000000E-01  8.00000000E-01  1.50000000E+00  8.00000000E-01  8.00000000E-01
  1.50000000E+00  8.00000000E-01  8.00000000E-01  1.50000000E+00  8.00000000E-01
  8.00000000E-01  1.50000000E+00  8.00000000E-01  8.00000000E-01  1.50000000E+00
  8.00000000E-01  8.00000000E-01  1.50000000E+00  8.00000000E-01  8.00000000E-01
  1.50000000E+00  8.00000000E-01  8.00000000E-01  1.50000000E+00  8.00000000E-01
  8.00000000E-01  1.50000000E+00  8.00000000E-01  8.00000000E-01  1.50000000E+00
  8.00000000E-01  8.00000000E-01  1.50000000E+00  8.00000000E-01  8.00000000E-01
  1.50000000E+00  8.00000000E-01  8.00000000E-01  1.50000000E+00  8.00000000E-01
  8.00000000E-01  1.50000000E+00  8.00000000E-01  8.00000000E-01  1.50000000E+00
  8.00000000E-01  8.00000000E-01  1.50000000E+00  8.00000000E-01  8.00000000E-01
  1.50000000E+00  8.00000000E-01  8.00000000E-01  1.50000000E+00  8.00000000E-01
  8.00000000E-01  1.50000000E+00  8.00000000E-01  8.00000000E-01  1.50000000E+00
  8.00000000E-01  8.00000000E-01  1.50000000E+00  8.00000000E-01  8.00000000E-01
  1.50000000E+00  8.00000000E-01  8.00000000E-01  1.50000000E+00  8.00000000E-01
  8.00000000E-01  1.50000000E+00  8.00000000E-01  8.00000000E-01  1.50000000E+00
  8.00000000E-01  8.00000000E-01  1.50000000E+00  8.00000000E-01  8.00000000E-01
  1.50000000E+00  8.00000000E-01  8.00000000E-01  1.50000000E+00  8.00000000E-01
  8.00000000E-01  1.50000000E+00  8.00000000E-01  8.00000000E-01  1.50000000E+00
  8.00000000E-01  8.00000000E-01  1.50000000E+00  8.00000000E-01  8.00000000E-01
  1.50000000E+00  8.00000000E-01  8.00000000E-01  1.50000000E+00  8.00000000E-01
  8.00000000E-01  1.50000000E+00  8.00000000E-01  8.00000000E-01  1.50000000E+00
  8.00000000E-01  8.00000000E-01  1.50000000E+00  8.00000000E-01  8.00000000E-01
  1.50000000E+00  8.00000000E-01  8.00000000E-01  1.50000000E+00  8.00000000E-01
  8.00000000E-01  1.50000000E+00  8.00000000E-01  8.00000000E-01  1.50000000E+00
  8.00000000E-01  8.00000000E-01  1.50000000E+00  8.00000000E-01  8.00000000E-01
  1.50000000E+00  8.00000000E-01  8.00000000E-01  1.50000000E+00  8.00000000E-01
  8.00000000E-01  1.50000000E+00  8.00000000E-01  8.00000000E-01  1.50000000E+00
  8.00000000E-01  8.00000000E-01  1.50000000E+00  8.00000000E-01  8.00000000E-01
  1.50000000E+00  8.00000000E-01  8.00000000E-01  1.50000000E+00  8.00000000E-01
  8.00000000E-01  1.50000000E+00  8.00000000E-01  8.00000000E-01  1.50000000E+00
  8.00000000E-01  8.00000000E-01  1.50000000E+00  8.00000000E-01  8.00000000E-01
  1.50000000E+00  8.00000000E-01  8.00000000E-01  1.50000000E+00  8.00000000E-01
  8.00000000E-01  1.50000000E+00  8.00000000E-01  8.00000000E-01  1.50000000E+00
  8.00000000E-01  8.00000000E-01  1.50000000E+00  8.00000000E-01  8.00000000E-01
  1.50000000E+00  8.00000000E-01  8.00000000E-01  1.50000000E+00  8.00000000E-01
  8.00000000E-01  1.50000000E+00  8.00000000E-01  8.00000000E-01  1.50000000E+00
  8.00000000E-01  8.00000000E-01  1.50000000E+00  8.00000000E-01  8.00000000E-01
  1.50000000E+00  8.00000000E-01  8.00000000E-01  1.50000000E+00  8.00000000E-01
  8.00000000E-01  1.50000000E+00  8.00000000E-01  8.00000000E-01  1.50000000E+00
  8.00000000E-01  8.00000000E-01  1.50000000E+00  8.00000000E-01  8.00000000E-01
  1.50000000E+00  8.00000000E-01  8.00000000E-01  1.50000000E+00  8.00000000E-01
  8.00000000E-01  1.50000000E+00  8.00000000E-01  8.00000000E-01  1.50000000E+00
  8.00000000E-01  8.00000000E-01  1.50000000E+00  8.00000000E-01  8.00000000E-01
  1.50000000E+00  8.00000000E-01  8.00000000E-01  1.50000000E+00  8.00000000E-01
  8.00000000E-01  1.50000000E+00  8.00000000E-01  8.00000000E-01  1.50000000E+00
  8.00000000E-01  8.00000000E-01  1.50000000E+00  8.00000000E-01  8.00000000E-01
  1.50000000E+00  8.00000000E-01  8.00000000E-01  1.50000000E+00  8.00000000E-01
  8.00000000E-01  1.50000000E+00  8.00000000E-01  8.00000000E-01  1.50000000E+00
  8.00000000E-01  8.00000000E-01  1.50000000E+00  8.00000000E-01  8.00000000E-01
  1.50000000E+00  8.00000000E-01  8.00000000E-01  1.50000000E+00  8.00000000E-01
  8.00000000E-01  1.50000000E+00  8.00000000E-01  8.00000000E-01  1.50000000E+00
  8.00000000E-01  8.00000000E-01  1.50000000E+00  8.00000000E-01  8.00000000E-01
  1.50000000E+00  8.00000000E-01  8.00000000E-01  1.50000000E+00  8.00000000E-01
  8.00000000E-01  1.50000000E+00  8.00000000E-01  8.00000000E-01  1.50000000E+00
  8.00000000E-01  8.00000000E-01  1.50000000E+00  8.00000000E-01  8.00000000E-01
  1.50000000E+00  8.00000000E-01  8.00000000E-01  1.50000000E+00  8.00000000E-01
  8.00000000E-01  1.50000000E+00  8.00000000E-01  8.00000000E-01  1.50000000E+00
  8.00000000E-01  8.00000000E-01  1.50000000E+00  8.00000000E-01  8.00000000E-01
  1.50000000E+00  8.00000000E-01  8.00000000E-01  1.50000000E+00  8.00000000E-01
  8.00000000E-01  1.50000000E+00  8.00000000E-01  8.00000000E-01  1.50000000E+00
  8.00000000E-01  8.00000000E-01  1.50000000E+00  8.00000000E-01  8.00000000E-01
  1.50000000E+00  8.00000000E-01  8.00000000E-01  1.50000000E+00  8.00000000E-01
  8.00000000E-01  1.50000000E+00  8.00000000E-01  8.00000000E-01  1.50000000E+00
  8.00000000E-01  8.00000000E-01  1.50000000E+00  8.00000000E-01  8.00000000E-01
  1.50000000E+00  8.00000000E-01  8.00000000E-01  1.50000000E+00  8.00000000E-01
  8.00000000E-01  1.50000000E+00  8.00000000E-01  8.00000000E-01  1.50000000E+00
  8.00000000E-01  8.00000000E-01  1.50000000E+00  8.00000000E-01  8.00000000E-01
  1.50000000E+00  8.00000000E-01  8.00000000E-01  1.50000000E+00  8.00000000E-01
  8.00000000E-01  1.50000000E+00  8.00000000E-01  8.00000000E-01  1.50000000E+00
  8.00000000E-01  8.00000000E-01  1.50000000E+00  8.00000000E-01  8.00000000E-01
  1.50000000E+00  8.00000000E-01  8.00000000E-01  1.50000000E+00  8.00000000E-01
  8.00000000E-01  1.50000000E+00  8.00000000E-01  8.00000000E-01  1.50000000E+00
  8.00000000E-01  8.00000000E-01  1.50000000E+00  8.00000000E-01  8.00000000E-01
  1.50000000E+00  8.00000000E-01  8.00000000E-01  1.50000000E+00  8.00000000E-01
  8.00000000E-01  1.50000000E+00  8.00000000E-01  8.00000000E-01  1.50000000E+00
  8.00000000E-01  8.00000000E-01  1.50000000E+00  8.00000000E-01  8.00000000E-01
  1.50000000E+00  8.00000000E-01  8.00000000E-01  1.50000000E+00  8.00000000E-01
  8.00000000E-01  1.50000000E+00  8.00000000E-01  8.00000000E-01  1.50000000E+00
  8.00000000E-01  8.00000000E-01  1.50000000E+00  8.00000000E-01  8.00000000E-01
  1.50000000E+00  8.00000000E-01  8.00000000E-01  1.50000000E+00  8.00000000E-01
  8.00000000E-01  1.50000000E+00  8.00000000E-01  8.00000000E-01  1.50000000E+00
  8.00000000E-01  8.00000000E-01  1.50000000E+00  8.00000000E-01  8.00000000E-01
  1.50000000E+00  8.00000000E-01  8.00000000E-01  1.50000000E+00  8.00000000E-01
  8.00000000E-01  1.50000000E+00  8.00000000E-01  8.00000000E-01  1.50000000E+00
  8.00000000E-01  8.00000000E-01  1.50000000E+00  8.00000000E-01  8.00000000E-01
  1.50000000E+00  8.00000000E-01  8.00000000E-01  1.50000000E+00  8.00000000E-01
  8.00000000E-01  1.50000000E+00  8.00000000E-01  8.00000000E-01  1.50000000E+00
  8.00000000E-01  8.00000000E-01  1.50000000E+00  8.00000000E-01  8.00000000E-01
  1.50000000E+00  8.00000000E-01  8.00000000E-01  1.50000000E+00  8.00000000E-01
  8.00000000E-01  1.50000000E+00  8.00000000E-01  8.00000000E-01  1.50000000E+00
  8.00000000E-01  8.00000000E-01  1.50000000E+00  8.00000000E-01  8.00000000E-01
  1.50000000E+00  8.00000000E-01  8.00000000E-01  1.50000000E+00  8.00000000E-01
  8.00000000E-01  1.50000000E+00  8.00000000E-01  8.00000000E-01  1.50000000E+00
  8.00000000E-01  8.00000000E-01  1.50000000E+00  8.00000000E-01  8.00000000E-01
  1.50000000E+00  8.00000000E-01  8.00000000E-01  1.50000000E+00  8.00000000E-01
  8.00000000E-01  1.50000000E+00  8.00000000E-01  8.00000000E-01  1.50000000E+00
  8.00000000E-01  8.00000000E-01  1.50000000E+00  8.00000000E-01  8.00000000E-01
  1.50000000E+00  8.00000000E-01  8.00000000E-01  1.50000000E+00  8.00000000E-01
  8.00000000E-01  1.50000000E+00  8.00000000E-01  8.00000000E-01  1.50000000E+00
  8.00000000E-01  8.00000000E-01  1.50000000E+00  8.00000000E-01  8.00000000E-01
  1.50000000E+00  8.00000000E-01  8.00000000E-01  1.50000000E+00  8.00000000E-01
  8.00000000E-01  1.50000000E+00  8.00000000E-01  8.00000000E-01  1.50000000E+00
  8.00000000E-01  8.00000000E-01  1.50000000E+00  8.00000000E-01  8.00000000E-01
  1.50000000E+00  8.00000000E-01  8.00000000E-01  1.50000000E+00  8.00000000E-01
  8.00000000E-01  1.50000000E+00  8.00000000E-01  8.00000000E-01  1.50000000E+00
  8.00000000E-01  8.00000000E-01  1.50000000E+00  8.00000000E-01  8.00000000E-01
  1.50000000E+00  8.00000000E-01  8.00000000E-01  1.50000000E+00  8.00000000E-01
  8.00000000E-01  1.50000000E+00  8.00000000E-01  8.00000000E-01  1.50000000E+00
  8.00000000E-01  8.00000000E-01  1.50000000E+00  8.00000000E-01  8.00000000E-01
  1.50000000E+00  8.00000000E-01  8.00000000E-01  1.50000000E+00  8.00000000E-01
  8.00000000E-01  1.50000000E+00  8.00000000E-01  8.00000000E-01  1.50000000E+00
  8.00000000E-01  8.00000000E-01  1.50000000E+00  8.00000000E-01  8.00000000E-01
  1.50000000E+00  8.00000000E-01  8.00000000E-01  1.50000000E+00  8.00000000E-01
  8.00000000E-01  1.50000000E+00  8.00000000E-01  8.00000000E-01  1.50000000E+00
  8.00000000E-01  8.00000000E-01  1.50000000E+00  8.00000000E-01  8.00000000E-01
  1.50000000E+00  8.00000000E-01  8.00000000E-01  1.50000000E+00  8.00000000E-01
  8.00000000E-01  1.50000000E+00  8.00000000E-01  8.00000000E-01  1.50000000E+00
  8.00000000E-01  8.00000000E-01  1.50000000E+00  8.00000000E-01  8.00000000E-01
  1.50000000E+00  8.00000000E-01  8.00000000E-01  1.50000000E+00  8.00000000E-01
  8.00000000E-01  1.50000000E+00  8.00000000E-01  8.00000000E-01  1.50000000E+00
  8.00000000E-01  8.00000000E-01  1.50000000E+00  8.00000000E-01  8.00000000E-01
  1.50000000E+00  8.00000000E-01  8.00000000E-01  1.50000000E+00  8.00000000E-01
  8.00000000E-01  1.50000000E+00  8.00000000E-01  8.00000000E-01  1.50000000E+00
  8.00000000E-01  8.00000000E-01  1.50000000E+00  8.00000000E-01  8.00000000E-01
  1.50000000E+00  8.00000000E-01  8.00000000E-01  1.50000000E+00  8.00000000E-01
  8.00000000E-01  1.50000000E+00  8.00000000E-01  8.00000000E-01  1.50000000E+00
  8.00000000E-01  8.00000000E-01  1.50000000E+00  8.00000000E-01  8.00000000E-01
  1.50000000E+00  8.00000000E-01  8.00000000E-01  1.50000000E+00  8.00000000E-01
  8.00000000E-01  1.50000000E+00  8.00000000E-01  8.00000000E-01  1.50000000E+00
  8.00000000E-01  8.00000000E-01  1.50000000E+00  8.00000000E-01  8.00000000E-01
  1.50000000E+00  8.00000000E-01  8.00000000E-01  1.50000000E+00  8.00000000E-01
  8.00000000E-01  1.50000000E+00  8.00000000E-01  8.00000000E-01  1.50000000E+00
  8.00000000E-01  8.00000000E-01  1.50000000E+00  8.00000000E-01  8.00000000E-01
  1.50000000E+00  8.00000000E-01  8.00000000E-01  1.50000000E+00  8.00000000E-01
  8.00000000E-01  1.50000000E+00  8.00000000E-01  8.00000000E-01  1.50000000E+00
  8.00000000E-01  8.00000000E-01  1.50000000E+00  8.00000000E-01  8.00000000E-01
  1.50000000E+00  8.00000000E-01  8.00000000E-01  1.50000000E+00  8.00000000E-01
  8.00000000E-01  1.50000000E+00  8.00000000E-01  8.00000000E-01  1.50000000E+00
  8.00000000E-01  8.00000000E-01  1.50000000E+00  8.00000000E-01  8.00000000E-01
  1.50000000E+00  8.00000000E-01  8.00000000E-01  1.50000000E+00  8.00000000E-01
  8.00000000E-01  1.50000000E+00  8.00000000E-01  8.00000000E-01  1.50000000E+00
  8.00000000E-01  8.00000000E-01  1.50000000E+00  8.00000000E-01  8.00000000E-01
  1.50000000E+00  8.00000000E-01  8.00000000E-01  1.50000000E+00  8.00000000E-01
  8.00000000E-01  1.50000000E+00  8.00000000E-01  8.00000000E-01  1.50000000E+00
  8.00000000E-01  8.00000000E-01  1.50000000E+00  8.00000000E-01  8.00000000E-01
  1.50000000E+00  8.00000000E-01  8.00000000E-01  1.50000000E+00  8.00000000E-01
  8.00000000E-01  1.50000000E+00  8.00000000E-01  8.00000000E-01  1.50000000E+00
  8.00000000E-01  8.00000000E-01  1.50000000E+00  8.00000000E-01  8.00000000E-01
  1.50000000E+00  8.00000000E-01  8.00000000E-01  1.50000000E+00  8.00000000E-01
  8.00000000E-01  1.50000000E+00  8.00000000E-01  8.00000000E-01  1.50000000E+00
  8.00000000E-01  8.00000000E-01  1.50000000E+00  8.00000000E-01  8.00000000E-01
  1.50000000E+00  8.00000000E-01  8.00000000E-01  1.50000000E+00  8.00000000E-01
  8.00000000E-01  1.50000000E+00  8.00000000E-01  8.00000000E-01  1.50000000E+00
  8.00000000E-01  8.00000000E-01  1.50000000E+00  8.00000000E-01  8.00000000E-01
  1.50000000E+00  8.00000000E-01  8.00000000E-01  1.50000000E+00  8.00000000E-01
  8.00000000E-01  1.50000000E+00  8.00000000E-01  8.00000000E-01  1.50000000E+00
  8.00000000E-01  8.00000000E-01  1.50000000E+00  8.00000000E-01  8.00000000E-01
  1.50000000E+00  8.00000000E-01  8.00000000E-01  1.50000000E+00  8.00000000E-01
  8.00000000E-01  1.50000000E+00  8.00000000E-01  8.00000000E-01  1.50000000E+00
  8.00000000E-01  8.00000000E-01  1.50000000E+00  8.00000000E-01  8.00000000E-01
  1.50000000E+00  8.00000000E-01  8.00000000E-01  1.50000000E+00  8.00000000E-01
  8.00000000E-01  1.50000000E+00  8.00000000E-01  8.00000000E-01  1.50000000E+00
  8.00000000E-01  8.00000000E-01  1.50000000E+00  8.00000000E-01  8.00000000E-01
  1.50000000E+00  8.00000000E-01  8.00000000E-01  1.50000000E+00  8.00000000E-01
  8.00000000E-01  1.50000000E+00  8.00000000E-01  8.00000000E-01  1.50000000E+00
  8.00000000E-01  8.00000000E-01  1.50000000E+00  8.00000000E-01  8.00000000E-01
  1.50000000E+00  8.00000000E-01  8.00000000E-01  1.50000000E+00  8.00000000E-01
  8.00000000E-01  1.50000000E+00  8.00000000E-01  8.00000000E-01  1.50000000E+00
  8.00000000E-01  8.00000000E-01  1.50000000E+00  8.00000000E-01  8.00000000E-01
  1.50000000E+00  8.00000000E-01  8.00000000E-01  1.50000000E+00  8.00000000E-01
  8.00000000E-01  1.50000000E+00  8.00000000E-01  8.00000000E-01  1.50000000E+00
  8.00000000E-01  8.00000000E-01  1.50000000E+00  8.00000000E-01  8.00000000E-01
  1.50000000E+00  8.00000000E-01  8.00000000E-01  1.50000000E+00  8.00000000E-01
  8.00000000E-01  1.50000000E+00  8.00000000E-01  8.00000000E-01  1.50000000E+00
  8.00000000E-01  8.00000000E-01  1.50000000E+00  8.00000000E-01  8.00000000E-01
  1.50000000E+00  8.00000000E-01  8.00000000E-01  1.50000000E+00  8.00000000E-01
  8.00000000E-01  1.50000000E+00  8.00000000E-01  8.00000000E-01  1.50000000E+00
  8.00000000E-01  8.00000000E-01  1.50000000E+00  8.00000000E-01  8.00000000E-01
  1.50000000E+00  8.00000000E-01  8.00000000E-01  1.50000000E+00  8.00000000E-01
  8.00000000E-01  1.50000000E+00  8.00000000E-01  8.00000000E-01  1.50000000E+00
  8.00000000E-01  8.00000000E-01  1.50000000E+00  8.00000000E-01  8.00000000E-01
  1.50000000E+00  8.00000000E-01  8.00000000E-01  1.50000000E+00  8.00000000E-01
  8.00000000E-01  1.50000000E+00  8.00000000E-01  8.00000000E-01  1.50000000E+00
  8.00000000E-01  8.00000000E-01  1.50000000E+00  8.00000000E-01  8.00000000E-01
  1.50000000E+00  8.00000000E-01  8.00000000E-01  1.50000000E+00  8.00000000E-01
  8.00000000E-01  1.50000000E+00  8.00000000E-01  8.00000000E-01  1.50000000E+00
  8.00000000E-01  8.00000000E-01  1.50000000E+00  8.00000000E-01  8.00000000E-01
  1.50000000E+00  8.00000000E-01  8.00000000E-01  1.50000000E+00  8.00000000E-01
  8.00000000E-01  1.50000000E+00  8.00000000E-01  8.00000000E-01  1.50000000E+00
  8.00000000E-01  8.00000000E-01  1.50000000E+00  8.00000000E-01  8.00000000E-01
  1.50000000E+00  8.00000000E-01  8.00000000E-01  1.50000000E+00  8.00000000E-01
  8.00000000E-01  1.50000000E+00  8.00000000E-01  8.00000000E-01  1.50000000E+00
  8.00000000E-01  8.00000000E-01  1.50000000E+00  8.00000000E-01  8.00000000E-01
  1.50000000E+00  8.00000000E-01  8.00000000E-01  1.50000000E+00  8.00000000E-01
  8.00000000E-01  1.50000000E+00  8.00000000E-01  8.00000000E-01  1.50000000E+00
  8.00000000E-01  8.00000000E-01  1.50000000E+00  8.00000000E-01  8.00000000E-01
  1.50000000E+00  8.00000000E-01  8.00000000E-01  1.50000000E+00  8.00000000E-01
  8.00000000E-01  1.50000000E+00  8.00000000E-01  8.00000000E-01  1.50000000E+00
  8.00000000E-01  8.00000000E-01  1.50000000E+00  8.00000000E-01  8.00000000E-01
  1.50000000E+00  8.00000000E-01  8.00000000E-01  1.50000000E+00  8.00000000E-01
  8.00000000E-01  1.50000000E+00  8.00000000E-01  8.00000000E-01  1.50000000E+00
  8.00000000E-01  8.00000000E-01  1.50000000E+00  8.00000000E-01  8.00000000E-01
  1.50000000E+00  8.00000000E-01  8.00000000E-01  1.50000000E+00  8.00000000E-01
  8.00000000E-01  1.50000000E+00  8.00000000E-01  8.00000000E-01  1.50000000E+00
  8.00000000E-01  8.00000000E-01  1.50000000E+00  8.00000000E-01  8.00000000E-01
  1.50000000E+00  8.00000000E-01  8.00000000E-01  1.50000000E+00  8.00000000E-01
  8.00000000E-01  1.50000000E+00  8.00000000E-01  8.00000000E-01  1.50000000E+00
  8.00000000E-01  8.00000000E-01  1.50000000E+00  8.00000000E-01  8.00000000E-01
  1.50000000E+00  8.00000000E-01  8.00000000E-01  1.50000000E+00  8.00000000E-01
  8.00000000E-01  1.50000000E+00  8.00000000E-01  8.00000000E-01  1.50000000E+00
  8.00000000E-01  8.00000000E-01  1.50000000E+00  8.00000000E-01  8.00000000E-01
  1.50000000E+00  8.00000000E-01  8.00000000E-01  1.50000000E+00  8.00000000E-01
  8.00000000E-01  1.50000000E+00  8.00000000E-01  8.00000000E-01  1.50000000E+00
  8.00000000E-01  8.00000000E-01  1.50000000E+00  8.00000000E-01  8.00000000E-01
  1.50000000E+00  8.00000000E-01  8.00000000E-01  1.50000000E+00  8.00000000E-01
  8.00000000E-01  1.50000000E+00  8.00000000E-01  8.00000000E-01  1.50000000E+00
  8.00000000E-01  8.00000000E-01  1.50000000E+00  8.00000000E-01  8.00000000E-01
  1.50000000E+00  8.00000000E-01  8.00000000E-01  1.50000000E+00  8.00000000E-01
  8.00000000E-01  1.50000000E+00  8.00000000E-01  8.00000000E-01  1.50000000E+00
  8.00000000E-01  8.00000000E-01  1.50000000E+00  8.00000000E-01  8.00000000E-01
  1.50000000E+00  8.00000000E-01  8.00000000E-01  1.50000000E+00  8.00000000E-01
  8.00000000E-01  1.50000000E+00  8.00000000E-01  8.00000000E-01  1.50000000E+00
  8.00000000E-01  8.00000000E-01  1.50000000E+00  8.00000000E-01  8.00000000E-01
  1.50000000E+00  8.00000000E-01  8.00000000E-01  1.50000000E+00  8.00000000E-01
  8.00000000E-01  1.50000000E+00  8.00000000E-01  8.00000000E-01  1.50000000E+00
  8.00000000E-01  8.00000000E-01  1.50000000E+00  8.00000000E-01  8.00000000E-01
  1.50000000E+00  8.00000000E-01  8.00000000E-01  1.50000000E+00  8.00000000E-01
  8.00000000E-01  1.50000000E+00  8.00000000E-01  8.00000000E-01  1.50000000E+00
  8.00000000E-01  8.00000000E-01  1.50000000E+00  8.00000000E-01  8.00000000E-01
  1.50000000E+00  8.00000000E-01  8.00000000E-01  1.50000000E+00  8.00000000E-01
  8.00000000E-01  1.50000000E+00  8.00000000E-01  8.00000000E-01  1.50000000E+00
  8.00000000E-01  8.00000000E-01  1.50000000E+00  8.00000000E-01  8.00000000E-01
  1.50000000E+00  8.00000000E-01  8.00000000E-01  1.50000000E+00  8.00000000E-01
  8.00000000E-01  1.50000000E+00  8.00000000E-01  8.00000000E-01  1.50000000E+00
  8.00000000E-01  8.00000000E-01  1.50000000E+00  8.00000000E-01  8.00000000E-01
  1.50000000E+00  8.00000000E-01  8.00000000E-01  1.50000000E+00  8.00000000E-01
  8.00000000E-01  1.50000000E+00  8.00000000E-01  8.00000000E-01  1.50000000E+00
  8.00000000E-01  8.00000000E-01  1.50000000E+00  8.00000000E-01  8.00000000E-01
  1.50000000E+00  8.00000000E-01  8.00000000E-01  1.50000000E+00  8.00000000E-01
  8.00000000E-01  1.50000000E+00  8.00000000E-01  8.00000000E-01  1.50000000E+00
  8.00000000E-01  8.00000000E-01  1.50000000E+00  8.00000000E-01  8.00000000E-01
  1.50000000E+00  8.00000000E-01  8.00000000E-01  1.50000000E+00  8.00000000E-01
  8.00000000E-01  1.50000000E+00  8.00000000E-01  8.00000000E-01  1.50000000E+00
  8.00000000E-01  8.00000000E-01  1.50000000E+00  8.00000000E-01  8.00000000E-01
  1.50000000E+00  8.00000000E-01  8.00000000E-01  1.50000000E+00  8.00000000E-01
  8.00000000E-01  1.50000000E+00  8.00000000E-01  8.00000000E-01  1.50000000E+00
  8.00000000E-01  8.00000000E-01  1.50000000E+00  8.00000000E-01  8.00000000E-01
  1.50000000E+00  8.00000000E-01  8.00000000E-01  1.50000000E+00  8.00000000E-01
  8.00000000E-01  1.50000000E+00  8.00000000E-01  8.00000000E-01  1.50000000E+00
  8.00000000E-01  8.00000000E-01  1.50000000E+00  8.00000000E-01  8.00000000E-01
  1.50000000E+00  8.00000000E-01  8.00000000E-01  1.50000000E+00  8.00000000E-01
  8.00000000E-01  1.50000000E+00  8.00000000E-01  8.00000000E-01  1.50000000E+00
  8.00000000E-01  8.00000000E-01  1.50000000E+00  8.00000000E-01  8.00000000E-01
  1.50000000E+00  8.00000000E-01  8.00000000E-01  1.50000000E+00  8.00000000E-01
  8.00000000E-01  1.50000000E+00  8.00000000E-01  8.00000000E-01  1.50000000E+00
  8.00000000E-01  8.00000000E-01  1.50000000E+00  8.00000000E-01  8.00000000E-01
  1.50000000E+00  8.00000000E-01  8.00000000E-01  1.50000000E+00  8.00000000E-01
  8.00000000E-01  1.50000000E+00  8.00000000E-01  8.00000000E-01  1.50000000E+00
  8.00000000E-01  8.00000000E-01  1.50000000E+00  8.00000000E-01  8.00000000E-01
  1.50000000E+00  8.00000000E-01  8.00000000E-01  1.50000000E+00  8.00000000E-01
  8.00000000E-01  1.50000000E+00  8.00000000E-01  8.00000000E-01  1.50000000E+00
  8.00000000E-01  8.00000000E-01  1.50000000E+00  8.00000000E-01  8.00000000E-01
  1.50000000E+00  8.00000000E-01  8.00000000E-01  1.50000000E+00  8.00000000E-01
  8.00000000E-01  1.50000000E+00  8.00000000E-01  8.00000000E-01  1.50000000E+00
  8.00000000E-01  8.00000000E-01  1.50000000E+00  8.00000000E-01  8.00000000E-01
  1.50000000E+00  8.00000000E-01  8.00000000E-01  1.50000000E+00  8.00000000E-01
  8.00000000E-01  1.50000000E+00  8.00000000E-01  8.00000000E-01  1.50000000E+00
  8.00000000E-01  8.00000000E-01  1.50000000E+00  8.00000000E-01  8.00000000E-01
  1.50000000E+00  8.00000000E-01  8.00000000E-01  1.50000000E+00  8.00000000E-01
  8.00000000E-01  1.50000000E+00  8.00000000E-01  8.00000000E-01  1.50000000E+00
  8.00000000E-01  8.00000000E-01  1.50000000E+00  8.00000000E-01  8.00000000E-01
  1.50000000E+00  8.00000000E-01  8.00000000E-01  1.50000000E+00  8.00000000E-01
  8.00000000E-01  1.50000000E+00  8.00000000E-01  8.00000000E-01  1.50000000E+00
  8.00000000E-01  8.00000000E-01  1.50000000E+00  8.00000000E-01  8.00000000E-01
  1.50000000E+00  8.00000000E-01  8.00000000E-01  1.50000000E+00  8.00000000E-01
  8.00000000E-01  1.50000000E+00  8.00000000E-01  8.00000000E-01  1.50000000E+00
  8.00000000E-01  8.00000000E-01  1.50000000E+00  8.00000000E-01  8.00000000E-01
  1.50000000E+00  8.00000000E-01  8.00000000E-01  1.50000000E+00  8.00000000E-01
  8.00000000E-01  1.50000000E+00  8.00000000E-01  8.00000000E-01  1.50000000E+00
  8.00000000E-01  8.00000000E-01  1.50000000E+00  8.00000000E-01  8.00000000E-01
  1.50000000E+00  8.00000000E-01  8.00000000E-01  1.50000000E+00  8.00000000E-01
  8.00000000E-01  1.50000000E+00  8.00000000E-01  8.00000000E-01  1.50000000E+00
  8.00000000E-01  8.00000000E-01  1.50000000E+00  8.00000000E-01  8.00000000E-01
  1.50000000E+00  8.00000000E-01  8.00000000E-01  1.50000000E+00  8.00000000E-01
  8.00000000E-01  1.50000000E+00  8.00000000E-01  8.00000000E-01  1.50000000E+00
  8.00000000E-01  8.00000000E-01  1.50000000E+00  8.00000000E-01  8.00000000E-01
  1.50000000E+00  8.00000000E-01  8.00000000E-01  1.50000000E+00  8.00000000E-01
  8.00000000E-01  1.50000000E+00  8.00000000E-01  8.00000000E-01  1.50000000E+00
  8.00000000E-01  8.00000000E-01  1.50000000E+00  8.00000000E-01  8.00000000E-01
  1.50000000E+00  8.00000000E-01  8.00000000E-01  1.50000000E+00  8.00000000E-01
  8.00000000E-01  1.50000000E+00  8.00000000E-01  8.00000000E-01  1.50000000E+00
  8.00000000E-01  8.00000000E-01  1.50000000E+00  8.00000000E-01  8.00000000E-01
  1.50000000E+00  8.00000000E-01  8.00000000E-01  1.50000000E+00  8.00000000E-01
  8.00000000E-01  1.50000000E+00  8.00000000E-01  8.00000000E-01  1.50000000E+00
  8.00000000E-01  8.00000000E-01  1.50000000E+00  8.00000000E-01  8.00000000E-01
  1.50000000E+00  8.00000000E-01  8.00000000E-01  1.50000000E+00  8.00000000E-01
  8.00000000E-01  1.50000000E+00  8.00000000E-01  8.00000000E-01  1.50000000E+00
  8.00000000E-01  8.00000000E-01  1.50000000E+00  8.00000000E-01  8.00000000E-01
  1.50000000E+00  8.00000000E-01  8.00000000E-01  1.50000000E+00  8.00000000E-01
  8.00000000E-01  1.50000000E+00  8.00000000E-01  8.00000000E-01  1.50000000E+00
  8.00000000E-01  8.00000000E-01  1.50000000E+00  8.00000000E-01  8.00000000E-01
  1.50000000E+00  8.00000000E-01  8.00000000E-01  1.50000000E+00  8.00000000E-01
  8.00000000E-01  1.50000000E+00  8.00000000E-01  8.00000000E-01  1.50000000E+00
  8.00000000E-01  8.00000000E-01  1.50000000E+00  8.00000000E-01  8.00000000E-01
  1.50000000E+00  8.00000000E-01  8.00000000E-01  1.50000000E+00  8.00000000E-01
  8.00000000E-01  1.50000000E+00  8.00000000E-01  8.00000000E-01  1.50000000E+00
  8.00000000E-01  8.00000000E-01  1.50000000E+00  8.00000000E-01  8.00000000E-01
  1.50000000E+00  8.00000000E-01  8.00000000E-01  1.50000000E+00  8.00000000E-01
  8.00000000E-01  1.50000000E+00  8.00000000E-01  8.00000000E-01  1.50000000E+00
  8.00000000E-01  8.00000000E-01  1.50000000E+00  8.00000000E-01  8.00000000E-01
  1.50000000E+00  8.00000000E-01  8.00000000E-01  1.50000000E+00  8.00000000E-01
  8.00000000E-01  1.50000000E+00  8.00000000E-01  8.00000000E-01  1.50000000E+00
  8.00000000E-01  8.00000000E-01  1.50000000E+00  8.00000000E-01  8.00000000E-01
  1.50000000E+00  8.00000000E-01  8.00000000E-01  1.50000000E+00  8.00000000E-01
  8.00000000E-01  1.50000000E+00  8.00000000E-01  8.00000000E-01  1.50000000E+00
  8.00000000E-01  8.00000000E-01  1.50000000E+00  8.00000000E-01  8.00000000E-01
  1.50000000E+00  8.00000000E-01  8.00000000E-01  1.50000000E+00  8.00000000E-01
  8.00000000E-01  1.50000000E+00  8.00000000E-01  8.00000000E-01  1.50000000E+00
  8.00000000E-01  8.00000000E-01  1.50000000E+00  8.00000000E-01  8.00000000E-01
  1.50000000E+00  8.00000000E-01  8.00000000E-01  1.50000000E+00  8.00000000E-01
  8.00000000E-01  1.50000000E+00  8.00000000E-01  8.00000000E-01  1.50000000E+00
  8.00000000E-01  8.00000000E-01  1.50000000E+00  8.00000000E-01  8.00000000E-01
  1.50000000E+00  8.00000000E-01  8.00000000E-01  1.50000000E+00  8.00000000E-01
  8.00000000E-01  1.50000000E+00  8.00000000E-01  8.00000000E-01  1.50000000E+00
  8.00000000E-01  8.00000000E-01  1.50000000E+00  8.00000000E-01  8.00000000E-01
  1.50000000E+00  8.00000000E-01  8.00000000E-01  1.50000000E+00  8.00000000E-01
  8.00000000E-01  1.50000000E+00  8.00000000E-01  8.00000000E-01  1.50000000E+00
  8.00000000E-01  8.00000000E-01  1.50000000E+00  8.00000000E-01  8.00000000E-01
  1.50000000E+00  8.00000000E-01  8.00000000E-01  1.50000000E+00  8.00000000E-01
  8.00000000E-01  1.50000000E+00  8.00000000E-01  8.00000000E-01  1.50000000E+00
  8.00000000E-01  8.00000000E-01  1.50000000E+00  8.00000000E-01  8.00000000E-01
  1.50000000E+00  8.00000000E-01  8.00000000E-01  1.50000000E+00  8.00000000E-01
  8.00000000E-01  1.50000000E+00  8.00000000E-01  8.00000000E-01  1.50000000E+00
  8.00000000E-01  8.00000000E-01  1.50000000E+00  8.00000000E-01  8.00000000E-01
  1.50000000E+00  8.00000000E-01  8.00000000E-01  1.50000000E+00  8.00000000E-01
  8.00000000E-01  1.50000000E+00  8.00000000E-01  8.00000000E-01  1.50000000E+00
  8.00000000E-01  8.00000000E-01  1.50000000E+00  8.00000000E-01  8.00000000E-01
  1.50000000E+00  8.00000000E-01  8.00000000E-01  1.50000000E+00  8.00000000E-01
  8.00000000E-01  1.50000000E+00  8.00000000E-01  8.00000000E-01  1.50000000E+00
  8.00000000E-01  8.00000000E-01  1.50000000E+00  8.00000000E-01  8.00000000E-01
  1.50000000E+00  8.00000000E-01  8.00000000E-01  1.50000000E+00  8.00000000E-01
  8.00000000E-01  1.50000000E+00  8.00000000E-01  8.00000000E-01  1.50000000E+00
  8.00000000E-01  8.00000000E-01  1.50000000E+00  8.00000000E-01  8.00000000E-01
  1.50000000E+00  8.00000000E-01  8.00000000E-01  1.50000000E+00  8.00000000E-01
  8.00000000E-01  1.50000000E+00  8.00000000E-01  8.00000000E-01  1.50000000E+00
  8.00000000E-01  8.00000000E-01  1.50000000E+00  8.00000000E-01  8.00000000E-01
  1.50000000E+00  8.00000000E-01  8.00000000E-01  1.50000000E+00  8.00000000E-01
  8.00000000E-01  1.50000000E+00  8.00000000E-01  8.00000000E-01  1.50000000E+00
  8.00000000E-01  8.00000000E-01  1.50000000E+00  8.00000000E-01  8.00000000E-01
  1.50000000E+00  8.00000000E-01  8.00000000E-01  1.50000000E+00  8.00000000E-01
  8.00000000E-01  1.50000000E+00  8.00000000E-01  8.00000000E-01  1.50000000E+00
  8.00000000E-01  8.00000000E-01  1.50000000E+00  8.00000000E-01  8.00000000E-01
  1.50000000E+00  8.00000000E-01  8.00000000E-01  1.50000000E+00  8.00000000E-01
  8.00000000E-01  1.50000000E+00  8.00000000E-01  8.00000000E-01  1.50000000E+00
  8.00000000E-01  8.00000000E-01  1.50000000E+00  8.00000000E-01  8.00000000E-01
  1.50000000E+00  8.00000000E-01  8.00000000E-01  1.50000000E+00  8.00000000E-01
  8.00000000E-01  1.50000000E+00  8.00000000E-01  8.00000000E-01  1.50000000E+00
  8.00000000E-01  8.00000000E-01  1.50000000E+00  8.00000000E-01  8.00000000E-01
  1.50000000E+00  8.00000000E-01  8.00000000E-01  1.50000000E+00  8.00000000E-01
  8.00000000E-01  1.50000000E+00  8.00000000E-01  8.00000000E-01  1.50000000E+00
  8.00000000E-01  8.00000000E-01  1.50000000E+00  8.00000000E-01  8.00000000E-01
  1.50000000E+00  8.00000000E-01  8.00000000E-01  1.50000000E+00  8.00000000E-01
  8.00000000E-01  1.50000000E+00  8.00000000E-01  8.00000000E-01  1.50000000E+00
  8.00000000E-01  8.00000000E-01  1.50000000E+00  8.00000000E-01  8.00000000E-01
  1.50000000E+00  8.00000000E-01  8.00000000E-01  1.50000000E+00  8.00000000E-01
  8.00000000E-01  1.50000000E+00  8.00000000E-01  8.00000000E-01  1.50000000E+00
  8.00000000E-01  8.00000000E-01  1.50000000E+00  8.00000000E-01  8.00000000E-01
  1.50000000E+00  8.00000000E-01  8.00000000E-01  1.50000000E+00  8.00000000E-01
  8.00000000E-01  1.50000000E+00  8.00000000E-01  8.00000000E-01  1.50000000E+00
  8.00000000E-01  8.00000000E-01  1.50000000E+00  8.00000000E-01  8.00000000E-01
  1.50000000E+00  8.00000000E-01  8.00000000E-01  1.50000000E+00  8.00000000E-01
  8.00000000E-01  1.50000000E+00  8.00000000E-01  8.00000000E-01  1.50000000E+00
  8.00000000E-01  8.00000000E-01  1.50000000E+00  8.00000000E-01  8.00000000E-01
  1.50000000E+00  8.00000000E-01  8.00000000E-01  1.50000000E+00  8.00000000E-01
  8.00000000E-01  1.50000000E+00  8.00000000E-01  8.00000000E-01  1.50000000E+00
  8.00000000E-01  8.00000000E-01  1.50000000E+00  8.00000000E-01  8.00000000E-01
  1.50000000E+00  8.00000000E-01  8.00000000E-01  1.50000000E+00  8.00000000E-01
  8.00000000E-01  1.50000000E+00  8.00000000E-01  8.00000000E-01  1.50000000E+00
  8.00000000E-01  8.00000000E-01  1.50000000E+00  8.00000000E-01  8.00000000E-01
  1.50000000E+00  8.00000000E-01  8.00000000E-01  1.50000000E+00  8.00000000E-01
  8.00000000E-01  1.50000000E+00  8.00000000E-01  8.00000000E-01  1.50000000E+00
  8.00000000E-01  8.00000000E-01  1.50000000E+00  8.00000000E-01  8.00000000E-01
  1.50000000E+00  8.00000000E-01  8.00000000E-01  1.50000000E+00  8.00000000E-01
  8.00000000E-01  1.50000000E+00  8.00000000E-01  8.00000000E-01  1.50000000E+00
  8.00000000E-01  8.00000000E-01  1.50000000E+00  8.00000000E-01  8.00000000E-01
  1.50000000E+00  8.00000000E-01  8.00000000E-01  1.50000000E+00  8.00000000E-01
  8.00000000E-01  1.50000000E+00  8.00000000E-01  8.00000000E-01  1.50000000E+00
  8.00000000E-01  8.00000000E-01  1.50000000E+00  8.00000000E-01  8.00000000E-01
  1.50000000E+00  8.00000000E-01  8.00000000E-01  1.50000000E+00  8.00000000E-01
  8.00000000E-01  1.50000000E+00  8.00000000E-01  8.00000000E-01  1.50000000E+00
  8.00000000E-01  8.00000000E-01  1.50000000E+00  8.00000000E-01  8.00000000E-01
  1.50000000E+00  8.00000000E-01  8.00000000E-01  1.50000000E+00  8.00000000E-01
  8.00000000E-01  1.50000000E+00  8.00000000E-01  8.00000000E-01  1.50000000E+00
  8.00000000E-01  8.00000000E-01  1.50000000E+00  8.00000000E-01  8.00000000E-01
  1.50000000E+00  8.00000000E-01  8.00000000E-01  1.50000000E+00  8.00000000E-01
  8.00000000E-01  1.50000000E+00  8.00000000E-01  8.00000000E-01  1.50000000E+00
  8.00000000E-01  8.00000000E-01  1.50000000E+00  8.00000000E-01  8.00000000E-01
  1.50000000E+00  8.00000000E-01  8.00000000E-01  1.50000000E+00  8.00000000E-01
  8.00000000E-01  1.50000000E+00  8.00000000E-01  8.00000000E-01  1.50000000E+00
  8.00000000E-01  8.00000000E-01  1.50000000E+00  8.00000000E-01  8.00000000E-01
  1.50000000E+00  8.00000000E-01  8.00000000E-01  1.50000000E+00  8.00000000E-01
  8.00000000E-01  1.50000000E+00  8.00000000E-01  8.00000000E-01  1.50000000E+00
  8.00000000E-01  8.00000000E-01  1.50000000E+00  8.00000000E-01  8.00000000E-01
  1.50000000E+00  8.00000000E-01  8.00000000E-01  1.50000000E+00  8.00000000E-01
  8.00000000E-01  1.50000000E+00  8.00000000E-01  8.00000000E-01  1.50000000E+00
  8.00000000E-01  8.00000000E-01  1.50000000E+00  8.00000000E-01  8.00000000E-01
  1.50000000E+00  8.00000000E-01  8.00000000E-01  1.50000000E+00  8.00000000E-01
  8.00000000E-01  1.50000000E+00  8.00000000E-01  8.00000000E-01  1.50000000E+00
  8.00000000E-01  8.00000000E-01  1.50000000E+00  8.00000000E-01  8.00000000E-01
  1.50000000E+00  8.00000000E-01  8.00000000E-01  1.50000000E+00  8.00000000E-01
  8.00000000E-01  1.50000000E+00  8.00000000E-01  8.00000000E-01  1.50000000E+00
  8.00000000E-01  8.00000000E-01  1.50000000E+00  8.00000000E-01  8.00000000E-01
  1.50000000E+00  8.00000000E-01  8.00000000E-01  1.50000000E+00  8.00000000E-01
  8.00000000E-01  1.50000000E+00  8.00000000E-01  8.00000000E-01  1.50000000E+00
  8.00000000E-01  8.00000000E-01  1.50000000E+00  8.00000000E-01  8.00000000E-01
  1.50000000E+00  8.00000000E-01  8.00000000E-01  1.50000000E+00  8.00000000E-01
  8.00000000E-01  1.50000000E+00  8.00000000E-01  8.00000000E-01  1.50000000E+00
  8.00000000E-01  8.00000000E-01  1.50000000E+00  8.00000000E-01  8.00000000E-01
  1.50000000E+00  8.00000000E-01  8.00000000E-01  1.50000000E+00  8.00000000E-01
  8.00000000E-01  1.50000000E+00  8.00000000E-01  8.00000000E-01  1.50000000E+00
  8.00000000E-01  8.00000000E-01  1.50000000E+00  8.00000000E-01  8.00000000E-01
  1.50000000E+00  8.00000000E-01  8.00000000E-01  1.50000000E+00  8.00000000E-01
  8.00000000E-01  1.50000000E+00  8.00000000E-01  8.00000000E-01  1.50000000E+00
  8.00000000E-01  8.00000000E-01  1.50000000E+00  8.00000000E-01  8.00000000E-01
  1.50000000E+00  8.00000000E-01  8.00000000E-01  1.50000000E+00  8.00000000E-01
  8.00000000E-01  1.50000000E+00  8.00000000E-01  8.00000000E-01  1.50000000E+00
  8.00000000E-01  8.00000000E-01  1.50000000E+00  8.00000000E-01  8.00000000E-01
  1.50000000E+00  8.00000000E-01  8.00000000E-01  1.50000000E+00  8.00000000E-01
  8.00000000E-01  1.50000000E+00  8.00000000E-01  8.00000000E-01  1.50000000E+00
  8.00000000E-01  8.00000000E-01  1.50000000E+00  8.00000000E-01  8.00000000E-01
  1.50000000E+00  8.00000000E-01  8.00000000E-01  1.50000000E+00  8.00000000E-01
  8.00000000E-01  1.50000000E+00  8.00000000E-01  8.00000000E-01  1.50000000E+00
  8.00000000E-01  8.00000000E-01  1.50000000E+00  8.00000000E-01  8.00000000E-01
  1.50000000E+00  8.00000000E-01  8.00000000E-01  1.50000000E+00  8.00000000E-01
  8.00000000E-01  1.50000000E+00  8.00000000E-01  8.00000000E-01  1.50000000E+00
  8.00000000E-01  8.00000000E-01  1.50000000E+00  8.00000000E-01  8.00000000E-01
  1.50000000E+00  8.00000000E-01  8.00000000E-01  1.50000000E+00  8.00000000E-01
  8.00000000E-01  1.50000000E+00  8.00000000E-01  8.00000000E-01  1.50000000E+00
  8.00000000E-01  8.00000000E-01  1.50000000E+00  8.00000000E-01  8.00000000E-01
  1.50000000E+00  8.00000000E-01  8.00000000E-01  1.50000000E+00  8.00000000E-01
  8.00000000E-01  1.50000000E+00  8.00000000E-01  8.00000000E-01  1.50000000E+00
  8.00000000E-01  8.00000000E-01  1.50000000E+00  8.00000000E-01  8.00000000E-01
  1.50000000E+00  8.00000000E-01  8.00000000E-01  1.50000000E+00  8.00000000E-01
  8.00000000E-01  1.50000000E+00  8.00000000E-01  8.00000000E-01  1.50000000E+00
  8.00000000E-01  8.00000000E-01  1.50000000E+00  8.00000000E-01  8.00000000E-01
  1.50000000E+00  8.00000000E-01  8.00000000E-01  1.50000000E+00  8.00000000E-01
  8.00000000E-01  1.50000000E+00  8.00000000E-01  8.00000000E-01  1.50000000E+00
  8.00000000E-01  8.00000000E-01  1.50000000E+00  8.00000000E-01  8.00000000E-01
  1.50000000E+00  8.00000000E-01  8.00000000E-01  1.50000000E+00  8.00000000E-01
  8.00000000E-01  1.50000000E+00  8.00000000E-01  8.00000000E-01  1.50000000E+00
  8.00000000E-01  8.00000000E-01  1.50000000E+00  8.00000000E-01  8.00000000E-01
  1.50000000E+00  8.00000000E-01  8.00000000E-01  1.50000000E+00  8.00000000E-01
  8.00000000E-01  1.50000000E+00  8.00000000E-01  8.00000000E-01  1.50000000E+00
  8.00000000E-01  8.00000000E-01  1.50000000E+00  8.00000000E-01  8.00000000E-01
  1.50000000E+00  8.00000000E-01  8.00000000E-01  1.50000000E+00  8.00000000E-01
  8.00000000E-01  1.50000000E+00  8.00000000E-01  8.00000000E-01  1.50000000E+00
  8.00000000E-01  8.00000000E-01  1.50000000E+00  8.00000000E-01  8.00000000E-01
  1.50000000E+00  8.00000000E-01  8.00000000E-01  1.50000000E+00  8.00000000E-01
  8.00000000E-01  1.50000000E+00  8.00000000E-01  8.00000000E-01  1.50000000E+00
  8.00000000E-01  8.00000000E-01  1.50000000E+00  8.00000000E-01  8.00000000E-01
  1.50000000E+00  8.00000000E-01  8.00000000E-01  1.50000000E+00  8.00000000E-01
  8.00000000E-01  1.50000000E+00  8.00000000E-01  8.00000000E-01  1.50000000E+00
  8.00000000E-01  8.00000000E-01  1.50000000E+00  8.00000000E-01  8.00000000E-01
  1.50000000E+00  8.00000000E-01  8.00000000E-01  1.50000000E+00  8.00000000E-01
  8.00000000E-01  1.50000000E+00  8.00000000E-01  8.00000000E-01  1.50000000E+00
  8.00000000E-01  8.00000000E-01  1.50000000E+00  8.00000000E-01  8.00000000E-01
  1.50000000E+00  8.00000000E-01  8.00000000E-01  1.50000000E+00  8.00000000E-01
  8.00000000E-01  1.50000000E+00  8.00000000E-01  8.00000000E-01  1.50000000E+00
  8.00000000E-01  8.00000000E-01  1.50000000E+00  8.00000000E-01  8.00000000E-01
  1.50000000E+00  8.00000000E-01  8.00000000E-01  1.50000000E+00  8.00000000E-01
  8.00000000E-01  1.50000000E+00  8.00000000E-01  8.00000000E-01  1.50000000E+00
  8.00000000E-01  8.00000000E-01  1.50000000E+00  8.00000000E-01  8.00000000E-01
  1.50000000E+00  8.00000000E-01  8.00000000E-01  1.50000000E+00  8.00000000E-01
  8.00000000E-01  1.50000000E+00  8.00000000E-01  8.00000000E-01  1.50000000E+00
  8.00000000E-01  8.00000000E-01  1.50000000E+00  8.00000000E-01  8.00000000E-01
  1.50000000E+00  8.00000000E-01  8.00000000E-01  1.50000000E+00  8.00000000E-01
  8.00000000E-01  1.50000000E+00  8.00000000E-01  8.00000000E-01  1.50000000E+00
  8.00000000E-01  8.00000000E-01  1.50000000E+00  8.00000000E-01  8.00000000E-01
  1.50000000E+00  8.00000000E-01  8.00000000E-01  1.50000000E+00  8.00000000E-01
  8.00000000E-01  1.50000000E+00  8.00000000E-01  8.00000000E-01  1.50000000E+00
  8.00000000E-01  8.00000000E-01  1.50000000E+00  8.00000000E-01  8.00000000E-01
  1.50000000E+00  8.00000000E-01  8.00000000E-01  1.50000000E+00  8.00000000E-01
  8.00000000E-01  1.50000000E+00  8.00000000E-01  8.00000000E-01  1.50000000E+00
  8.00000000E-01  8.00000000E-01  1.50000000E+00  8.00000000E-01  8.00000000E-01
  1.50000000E+00  8.00000000E-01  8.00000000E-01  1.50000000E+00  8.00000000E-01
  8.00000000E-01  1.50000000E+00  8.00000000E-01  8.00000000E-01  1.50000000E+00
  8.00000000E-01  8.00000000E-01  1.50000000E+00  8.00000000E-01  8.00000000E-01
  1.50000000E+00  8.00000000E-01  8.00000000E-01  1.50000000E+00  8.00000000E-01
  8.00000000E-01  1.50000000E+00  8.00000000E-01  8.00000000E-01  1.50000000E+00
  8.00000000E-01  8.00000000E-01  1.50000000E+00  8.00000000E-01  8.00000000E-01
  1.50000000E+00  8.00000000E-01  8.00000000E-01  1.50000000E+00  8.00000000E-01
  8.00000000E-01  1.50000000E+00  8.00000000E-01  8.00000000E-01  1.50000000E+00
  8.00000000E-01  8.00000000E-01  1.50000000E+00  8.00000000E-01  8.00000000E-01
  1.50000000E+00  8.00000000E-01  8.00000000E-01  1.50000000E+00  8.00000000E-01
  8.00000000E-01  1.50000000E+00  8.00000000E-01  8.00000000E-01  1.50000000E+00
  8.00000000E-01  8.00000000E-01  1.50000000E+00  8.00000000E-01  8.00000000E-01
  1.50000000E+00  8.00000000E-01  8.00000000E-01  1.50000000E+00  8.00000000E-01
  8.00000000E-01  1.50000000E+00  8.00000000E-01  8.00000000E-01  1.50000000E+00
  8.00000000E-01  8.00000000E-01  1.50000000E+00  8.00000000E-01  8.00000000E-01
  1.50000000E+00  8.00000000E-01  8.00000000E-01  1.50000000E+00  8.00000000E-01
  8.00000000E-01  1.50000000E+00  8.00000000E-01  8.00000000E-01  1.50000000E+00
  8.00000000E-01  8.00000000E-01  1.50000000E+00  8.00000000E-01  8.00000000E-01
  1.50000000E+00  8.00000000E-01  8.00000000E-01  1.50000000E+00  8.00000000E-01
  8.00000000E-01  1.50000000E+00  8.00000000E-01  8.00000000E-01  1.50000000E+00
  8.00000000E-01  8.00000000E-01  1.50000000E+00  8.00000000E-01  8.00000000E-01
  1.50000000E+00  8.00000000E-01  8.00000000E-01  1.50000000E+00  8.00000000E-01
  8.00000000E-01  1.50000000E+00  8.00000000E-01  8.00000000E-01  1.50000000E+00
  8.00000000E-01  8.00000000E-01  1.50000000E+00  8.00000000E-01  8.00000000E-01
  1.50000000E+00  8.00000000E-01  8.00000000E-01  1.50000000E+00  8.00000000E-01
  8.00000000E-01  1.50000000E+00  8.00000000E-01  8.00000000E-01  1.50000000E+00
  8.00000000E-01  8.00000000E-01  1.50000000E+00  8.00000000E-01  8.00000000E-01
  1.50000000E+00  8.00000000E-01  8.00000000E-01  1.50000000E+00  8.00000000E-01
  8.00000000E-01  1.50000000E+00  8.00000000E-01  8.00000000E-01  1.50000000E+00
  8.00000000E-01  8.00000000E-01  1.50000000E+00  8.00000000E-01  8.00000000E-01
  1.50000000E+00  8.00000000E-01  8.00000000E-01  1.50000000E+00  8.00000000E-01
  8.00000000E-01  1.50000000E+00  8.00000000E-01  8.00000000E-01  1.50000000E+00
  8.00000000E-01  8.00000000E-01  1.50000000E+00  8.00000000E-01  8.00000000E-01
  1.50000000E+00  8.00000000E-01  8.00000000E-01  1.50000000E+00  8.00000000E-01
  8.00000000E-01  1.50000000E+00  8.00000000E-01  8.00000000E-01  1.50000000E+00
  8.00000000E-01  8.00000000E-01  1.50000000E+00  8.00000000E-01  8.00000000E-01
  1.50000000E+00  8.00000000E-01  8.00000000E-01  1.50000000E+00  8.00000000E-01
  8.00000000E-01  1.50000000E+00  8.00000000E-01  8.00000000E-01  1.50000000E+00
  8.00000000E-01  8.00000000E-01  1.50000000E+00  8.00000000E-01  8.00000000E-01
  1.50000000E+00  8.00000000E-01  8.00000000E-01  1.50000000E+00  8.00000000E-01
  8.00000000E-01  1.50000000E+00  8.00000000E-01  8.00000000E-01  1.50000000E+00
  8.00000000E-01  8.00000000E-01  1.50000000E+00  8.00000000E-01  8.00000000E-01
  1.50000000E+00  8.00000000E-01  8.00000000E-01  1.50000000E+00  8.00000000E-01
  8.00000000E-01  1.50000000E+00  8.00000000E-01  8.00000000E-01  1.50000000E+00
  8.00000000E-01  8.00000000E-01  1.50000000E+00  8.00000000E-01  8.00000000E-01
  1.50000000E+00  8.00000000E-01  8.00000000E-01  1.50000000E+00  8.00000000E-01
  8.00000000E-01  1.50000000E+00  8.00000000E-01  8.00000000E-01  1.50000000E+00
  8.00000000E-01  8.00000000E-01  1.50000000E+00  8.00000000E-01  8.00000000E-01
  1.50000000E+00  8.00000000E-01  8.00000000E-01  1.50000000E+00  8.00000000E-01
  8.00000000E-01  1.50000000E+00  8.00000000E-01  8.00000000E-01  1.50000000E+00
  8.00000000E-01  8.00000000E-01  1.50000000E+00  8.00000000E-01  8.00000000E-01
  1.50000000E+00  8.00000000E-01  8.00000000E-01  1.50000000E+00  8.00000000E-01
  8.00000000E-01  1.50000000E+00  8.00000000E-01  8.00000000E-01  1.50000000E+00
  8.00000000E-01  8.00000000E-01  1.50000000E+00  8.00000000E-01  8.00000000E-01
  1.50000000E+00  8.00000000E-01  8.00000000E-01  1.50000000E+00  8.00000000E-01
  8.00000000E-01  1.50000000E+00  8.00000000E-01  8.00000000E-01  1.50000000E+00
  8.00000000E-01  8.00000000E-01  1.50000000E+00  8.00000000E-01  8.00000000E-01
  1.50000000E+00  8.00000000E-01  8.00000000E-01  1.50000000E+00  8.00000000E-01
  8.00000000E-01  1.50000000E+00  8.00000000E-01  8.00000000E-01  1.50000000E+00
  8.00000000E-01  8.00000000E-01  1.50000000E+00  8.00000000E-01  8.00000000E-01
  1.50000000E+00  8.00000000E-01  8.00000000E-01  1.50000000E+00  8.00000000E-01
  8.00000000E-01  1.50000000E+00  8.00000000E-01  8.00000000E-01  1.50000000E+00
  8.00000000E-01  8.00000000E-01  1.50000000E+00  8.00000000E-01  8.00000000E-01
  1.50000000E+00  8.00000000E-01  8.00000000E-01  1.50000000E+00  8.00000000E-01
  8.00000000E-01  1.50000000E+00  8.00000000E-01  8.00000000E-01  1.50000000E+00
  8.00000000E-01  8.00000000E-01  1.50000000E+00  8.00000000E-01  8.00000000E-01
  1.50000000E+00  8.00000000E-01  8.00000000E-01  1.50000000E+00  8.00000000E-01
  8.00000000E-01  1.50000000E+00  8.00000000E-01  8.00000000E-01  1.50000000E+00
  8.00000000E-01  8.00000000E-01  1.50000000E+00  8.00000000E-01  8.00000000E-01
  1.50000000E+00  8.00000000E-01  8.00000000E-01  1.50000000E+00  8.00000000E-01
  8.00000000E-01  1.50000000E+00  8.00000000E-01  8.00000000E-01  1.50000000E+00
  8.00000000E-01  8.00000000E-01  1.50000000E+00  8.00000000E-01  8.00000000E-01
  1.50000000E+00  8.00000000E-01  8.00000000E-01  1.50000000E+00  8.00000000E-01
  8.00000000E-01  1.50000000E+00  8.00000000E-01  8.00000000E-01  1.50000000E+00
  8.00000000E-01  8.00000000E-01  1.50000000E+00  8.00000000E-01  8.00000000E-01
  1.50000000E+00  8.00000000E-01  8.00000000E-01  1.50000000E+00  8.00000000E-01
  8.00000000E-01  1.50000000E+00  8.00000000E-01  8.00000000E-01  1.50000000E+00
  8.00000000E-01  8.00000000E-01  1.50000000E+00  8.00000000E-01  8.00000000E-01
  1.50000000E+00  8.00000000E-01  8.00000000E-01  1.50000000E+00  8.00000000E-01
  8.00000000E-01  1.50000000E+00  8.00000000E-01  8.00000000E-01  1.50000000E+00
  8.00000000E-01  8.00000000E-01  1.50000000E+00  8.00000000E-01  8.00000000E-01
  1.50000000E+00  8.00000000E-01  8.00000000E-01  1.50000000E+00  8.00000000E-01
  8.00000000E-01  1.50000000E+00  8.00000000E-01  8.00000000E-01  1.50000000E+00
  8.00000000E-01  8.00000000E-01  1.50000000E+00  8.00000000E-01  8.00000000E-01
  1.50000000E+00  8.00000000E-01  8.00000000E-01  1.50000000E+00  8.00000000E-01
  8.00000000E-01  1.50000000E+00  8.00000000E-01  8.00000000E-01  1.50000000E+00
  8.00000000E-01  8.00000000E-01  1.50000000E+00  8.00000000E-01  8.00000000E-01
  1.50000000E+00  8.00000000E-01  8.00000000E-01  1.50000000E+00  8.00000000E-01
  8.00000000E-01  1.50000000E+00  8.00000000E-01  8.00000000E-01  1.50000000E+00
  8.00000000E-01  8.00000000E-01  1.50000000E+00  8.00000000E-01  8.00000000E-01
  1.50000000E+00  8.00000000E-01  8.00000000E-01  1.50000000E+00  8.00000000E-01
  8.00000000E-01  1.50000000E+00  8.00000000E-01  8.00000000E-01  1.50000000E+00
  8.00000000E-01  8.00000000E-01  1.50000000E+00  8.00000000E-01  8.00000000E-01
  1.50000000E+00  8.00000000E-01  8.00000000E-01  1.50000000E+00  8.00000000E-01
  8.00000000E-01  1.50000000E+00  8.00000000E-01  8.00000000E-01  1.50000000E+00
  8.00000000E-01  8.00000000E-01  1.50000000E+00  8.00000000E-01  8.00000000E-01
  1.50000000E+00  8.00000000E-01  8.00000000E-01  1.50000000E+00  8.00000000E-01
  8.00000000E-01  1.50000000E+00  8.00000000E-01  8.00000000E-01  1.50000000E+00
  8.00000000E-01  8.00000000E-01  1.50000000E+00  8.00000000E-01  8.00000000E-01
  1.50000000E+00  8.00000000E-01  8.00000000E-01  1.50000000E+00  8.00000000E-01
  8.00000000E-01  1.50000000E+00  8.00000000E-01  8.00000000E-01  1.50000000E+00
  8.00000000E-01  8.00000000E-01  1.50000000E+00  8.00000000E-01  8.00000000E-01
  1.50000000E+00  8.00000000E-01  8.00000000E-01  1.50000000E+00  8.00000000E-01
  8.00000000E-01  1.50000000E+00  8.00000000E-01  8.00000000E-01  1.50000000E+00
  8.00000000E-01  8.00000000E-01  1.50000000E+00  8.00000000E-01  8.00000000E-01
  1.50000000E+00  8.00000000E-01  8.00000000E-01  1.50000000E+00  8.00000000E-01
  8.00000000E-01  1.50000000E+00  8.00000000E-01  8.00000000E-01  1.50000000E+00
  8.00000000E-01  8.00000000E-01  1.50000000E+00  8.00000000E-01  8.00000000E-01
  1.50000000E+00  8.00000000E-01  8.00000000E-01  1.50000000E+00  8.00000000E-01
  8.00000000E-01  1.50000000E+00  8.00000000E-01  8.00000000E-01  1.50000000E+00
  8.00000000E-01  8.00000000E-01  1.50000000E+00  8.00000000E-01  8.00000000E-01
  1.50000000E+00  8.00000000E-01  8.00000000E-01  1.50000000E+00  8.00000000E-01
  8.00000000E-01  1.50000000E+00  8.00000000E-01  8.00000000E-01  1.50000000E+00
  8.00000000E-01  8.00000000E-01  1.50000000E+00  8.00000000E-01  8.00000000E-01
  1.50000000E+00  8.00000000E-01  8.00000000E-01  1.50000000E+00  8.00000000E-01
  8.00000000E-01  1.50000000E+00  8.00000000E-01  8.00000000E-01  1.50000000E+00
  8.00000000E-01  8.00000000E-01  1.50000000E+00  8.00000000E-01  8.00000000E-01
  1.50000000E+00  8.00000000E-01  8.00000000E-01  1.50000000E+00  8.00000000E-01
  8.00000000E-01  1.50000000E+00  8.00000000E-01  8.00000000E-01  1.50000000E+00
  8.00000000E-01  8.00000000E-01  1.50000000E+00  8.00000000E-01  8.00000000E-01
  1.50000000E+00  8.00000000E-01  8.00000000E-01  1.50000000E+00  8.00000000E-01
  8.00000000E-01  1.50000000E+00  8.00000000E-01  8.00000000E-01  1.50000000E+00
  8.00000000E-01  8.00000000E-01  1.50000000E+00  8.00000000E-01  8.00000000E-01
  1.50000000E+00  8.00000000E-01  8.00000000E-01  1.50000000E+00  8.00000000E-01
  8.00000000E-01  1.50000000E+00  8.00000000E-01  8.00000000E-01  1.50000000E+00
  8.00000000E-01  8.00000000E-01  1.50000000E+00  8.00000000E-01  8.00000000E-01
  1.50000000E+00  8.00000000E-01  8.00000000E-01  1.50000000E+00  8.00000000E-01
  8.00000000E-01  1.50000000E+00  8.00000000E-01  8.00000000E-01  1.50000000E+00
  8.00000000E-01  8.00000000E-01  1.50000000E+00  8.00000000E-01  8.00000000E-01
  1.50000000E+00  8.00000000E-01  8.00000000E-01  1.50000000E+00  8.00000000E-01
  8.00000000E-01  1.50000000E+00  8.00000000E-01  8.00000000E-01  1.50000000E+00
  8.00000000E-01  8.00000000E-01  1.50000000E+00  8.00000000E-01  8.00000000E-01
  1.50000000E+00  8.00000000E-01  8.00000000E-01  1.50000000E+00  8.00000000E-01
  8.00000000E-01  1.50000000E+00  8.00000000E-01  8.00000000E-01  1.50000000E+00
  8.00000000E-01  8.00000000E-01  1.50000000E+00  8.00000000E-01  8.00000000E-01
  1.50000000E+00  8.00000000E-01  8.00000000E-01  1.50000000E+00  8.00000000E-01
  8.00000000E-01  1.50000000E+00  8.00000000E-01  8.00000000E-01  1.50000000E+00
  8.00000000E-01  8.00000000E-01  1.50000000E+00  8.00000000E-01  8.00000000E-01
  1.50000000E+00  8.00000000E-01  8.00000000E-01  1.50000000E+00  8.00000000E-01
  8.00000000E-01  1.50000000E+00  8.00000000E-01  8.00000000E-01  1.50000000E+00
  8.00000000E-01  8.00000000E-01  1.50000000E+00  8.00000000E-01  8.00000000E-01
  1.50000000E+00  8.00000000E-01  8.00000000E-01  1.50000000E+00  8.00000000E-01
  8.00000000E-01  1.50000000E+00  8.00000000E-01  8.00000000E-01  1.50000000E+00
  8.00000000E-01  8.00000000E-01  1.50000000E+00  8.00000000E-01  8.00000000E-01
  1.50000000E+00  8.00000000E-01  8.00000000E-01  1.50000000E+00  8.00000000E-01
  8.00000000E-01  1.50000000E+00  8.00000000E-01  8.00000000E-01  1.50000000E+00
  8.00000000E-01  8.00000000E-01  1.50000000E+00  8.00000000E-01  8.00000000E-01
  1.50000000E+00  8.00000000E-01  8.00000000E-01  1.50000000E+00  8.00000000E-01
  8.00000000E-01  1.50000000E+00  8.00000000E-01  8.00000000E-01  1.50000000E+00
  8.00000000E-01  8.00000000E-01  1.50000000E+00  8.00000000E-01  8.00000000E-01
  1.50000000E+00  8.00000000E-01  8.00000000E-01  1.50000000E+00  8.00000000E-01
  8.00000000E-01  1.50000000E+00  8.00000000E-01  8.00000000E-01  1.50000000E+00
  8.00000000E-01  8.00000000E-01  1.50000000E+00  8.00000000E-01  8.00000000E-01
  1.50000000E+00  8.00000000E-01  8.00000000E-01  1.50000000E+00  8.00000000E-01
  8.00000000E-01  1.50000000E+00  8.00000000E-01  8.00000000E-01  1.50000000E+00
  8.00000000E-01  8.00000000E-01  1.50000000E+00  8.00000000E-01  8.00000000E-01
  1.50000000E+00  8.00000000E-01  8.00000000E-01  1.50000000E+00  8.00000000E-01
  8.00000000E-01  1.50000000E+00  8.00000000E-01  8.00000000E-01  1.50000000E+00
  8.00000000E-01  8.00000000E-01  1.50000000E+00  8.00000000E-01  8.00000000E-01
  1.50000000E+00  8.00000000E-01  8.00000000E-01  1.50000000E+00  8.00000000E-01
  8.00000000E-01  1.50000000E+00  8.00000000E-01  8.00000000E-01  1.50000000E+00
  8.00000000E-01  8.00000000E-01  1.50000000E+00  8.00000000E-01  8.00000000E-01
  1.50000000E+00  8.00000000E-01  8.00000000E-01  1.50000000E+00  8.00000000E-01
  8.00000000E-01  1.50000000E+00  8.00000000E-01  8.00000000E-01  1.50000000E+00
  8.00000000E-01  8.00000000E-01  1.50000000E+00  8.00000000E-01  8.00000000E-01
  1.50000000E+00  8.00000000E-01  8.00000000E-01  1.50000000E+00  8.00000000E-01
  8.00000000E-01  1.50000000E+00  8.00000000E-01  8.00000000E-01  1.50000000E+00
  8.00000000E-01  8.00000000E-01  1.50000000E+00  8.00000000E-01  8.00000000E-01
  1.50000000E+00  8.00000000E-01  8.00000000E-01  1.50000000E+00  8.00000000E-01
  8.00000000E-01  1.50000000E+00  8.00000000E-01  8.00000000E-01  1.50000000E+00
  8.00000000E-01  8.00000000E-01  1.50000000E+00  8.00000000E-01  8.00000000E-01
  1.50000000E+00  8.00000000E-01  8.00000000E-01  1.50000000E+00  8.00000000E-01
  8.00000000E-01  1.50000000E+00  8.00000000E-01  8.00000000E-01  1.50000000E+00
  8.00000000E-01  8.00000000E-01  1.50000000E+00  8.00000000E-01  8.00000000E-01
  1.50000000E+00  8.00000000E-01  8.00000000E-01  1.50000000E+00  8.00000000E-01
  8.00000000E-01  1.50000000E+00  8.00000000E-01  8.00000000E-01  1.50000000E+00
  8.00000000E-01  8.00000000E-01  1.50000000E+00  8.00000000E-01  8.00000000E-01
  1.50000000E+00  8.00000000E-01  8.00000000E-01  1.50000000E+00  8.00000000E-01
  8.00000000E-01  1.50000000E+00  8.00000000E-01  8.00000000E-01  1.50000000E+00
  8.00000000E-01  8.00000000E-01  1.50000000E+00  8.00000000E-01  8.00000000E-01
  1.50000000E+00  8.00000000E-01  8.00000000E-01  1.50000000E+00  8.00000000E-01
  8.00000000E-01  1.50000000E+00  8.00000000E-01  8.00000000E-01  1.50000000E+00
  8.00000000E-01  8.00000000E-01  1.50000000E+00  8.00000000E-01  8.00000000E-01
  1.50000000E+00  8.00000000E-01  8.00000000E-01  1.50000000E+00  8.00000000E-01
  8.00000000E-01  1.50000000E+00  8.00000000E-01  8.00000000E-01  1.50000000E+00
  8.00000000E-01  8.00000000E-01  1.50000000E+00  8.00000000E-01  8.00000000E-01
  1.50000000E+00  8.00000000E-01  8.00000000E-01  1.50000000E+00  8.00000000E-01
  8.00000000E-01  1.50000000E+00  8.00000000E-01  8.00000000E-01  1.50000000E+00
  8.00000000E-01  8.00000000E-01  1.50000000E+00  8.00000000E-01  8.00000000E-01
  1.50000000E+00  8.00000000E-01  8.00000000E-01  1.50000000E+00  8.00000000E-01
  8.00000000E-01  1.50000000E+00  8.00000000E-01  8.00000000E-01  1.50000000E+00
  8.00000000E-01  8.00000000E-01  1.50000000E+00  8.00000000E-01  8.00000000E-01
  1.50000000E+00  8.00000000E-01  8.00000000E-01  1.50000000E+00  8.00000000E-01
  8.00000000E-01  1.50000000E+00  8.00000000E-01  8.00000000E-01  1.50000000E+00
  8.00000000E-01  8.00000000E-01  1.50000000E+00  8.00000000E-01  8.00000000E-01
  1.50000000E+00  8.00000000E-01  8.00000000E-01  1.50000000E+00  8.00000000E-01
  8.00000000E-01  1.50000000E+00  8.00000000E-01  8.00000000E-01  1.50000000E+00
  8.00000000E-01  8.00000000E-01  1.50000000E+00  8.00000000E-01  8.00000000E-01
  1.50000000E+00  8.00000000E-01  8.00000000E-01  1.50000000E+00  8.00000000E-01
  8.00000000E-01  1.50000000E+00  8.00000000E-01  8.00000000E-01  1.50000000E+00
  8.00000000E-01  8.00000000E-01  1.50000000E+00  8.00000000E-01  8.00000000E-01
  1.50000000E+00  8.00000000E-01  8.00000000E-01  1.50000000E+00  8.00000000E-01
  8.00000000E-01  1.50000000E+00  8.00000000E-01  8.00000000E-01  1.50000000E+00
  8.00000000E-01  8.00000000E-01  1.50000000E+00  8.00000000E-01  8.00000000E-01
  1.50000000E+00  8.00000000E-01  8.00000000E-01  1.50000000E+00  8.00000000E-01
  8.00000000E-01  1.50000000E+00  8.00000000E-01  8.00000000E-01  1.50000000E+00
  8.00000000E-01  8.00000000E-01  1.50000000E+00  8.00000000E-01  8.00000000E-01
  1.50000000E+00  8.00000000E-01  8.00000000E-01  1.50000000E+00  8.00000000E-01
  8.00000000E-01  1.50000000E+00  8.00000000E-01  8.00000000E-01  1.50000000E+00
  8.00000000E-01  8.00000000E-01  1.50000000E+00  8.00000000E-01  8.00000000E-01
  1.50000000E+00  8.00000000E-01  8.00000000E-01  1.50000000E+00  8.00000000E-01
  8.00000000E-01  1.50000000E+00  8.00000000E-01  8.00000000E-01  1.50000000E+00
  8.00000000E-01  8.00000000E-01  1.50000000E+00  8.00000000E-01  8.00000000E-01
  1.50000000E+00  8.00000000E-01  8.00000000E-01  1.50000000E+00  8.00000000E-01
  8.00000000E-01  1.50000000E+00  8.00000000E-01  8.00000000E-01  1.50000000E+00
  8.00000000E-01  8.00000000E-01  1.50000000E+00  8.00000000E-01  8.00000000E-01
  1.50000000E+00  8.00000000E-01  8.00000000E-01  1.50000000E+00  8.00000000E-01
  8.00000000E-01  1.50000000E+00  8.00000000E-01  8.00000000E-01  1.50000000E+00
  8.00000000E-01  8.00000000E-01  1.50000000E+00  8.00000000E-01  8.00000000E-01
  1.50000000E+00  8.00000000E-01  8.00000000E-01  1.50000000E+00  8.00000000E-01
  8.00000000E-01  1.50000000E+00  8.00000000E-01  8.00000000E-01  1.50000000E+00
  8.00000000E-01  8.00000000E-01  1.50000000E+00  8.00000000E-01  8.00000000E-01
  1.50000000E+00  8.00000000E-01  8.00000000E-01  1.50000000E+00  8.00000000E-01
  8.00000000E-01  1.50000000E+00  8.00000000E-01  8.00000000E-01  1.50000000E+00
  8.00000000E-01  8.00000000E-01  1.50000000E+00  8.00000000E-01  8.00000000E-01
  1.50000000E+00  8.00000000E-01  8.00000000E-01  1.50000000E+00  8.00000000E-01
  8.00000000E-01  1.50000000E+00  8.00000000E-01  8.00000000E-01  1.50000000E+00
  8.00000000E-01  8.00000000E-01  1.50000000E+00  8.00000000E-01  8.00000000E-01
  1.50000000E+00  8.00000000E-01  8.00000000E-01  1.50000000E+00  8.00000000E-01
  8.00000000E-01  1.50000000E+00  8.00000000E-01  8.00000000E-01  1.50000000E+00
  8.00000000E-01  8.00000000E-01  1.50000000E+00  8.00000000E-01  8.00000000E-01
  1.50000000E+00  8.00000000E-01  8.00000000E-01  1.50000000E+00  8.00000000E-01
  8.00000000E-01  1.50000000E+00  8.00000000E-01  8.00000000E-01  1.50000000E+00
  8.00000000E-01  8.00000000E-01  1.50000000E+00  8.00000000E-01  8.00000000E-01
  1.50000000E+00  8.00000000E-01  8.00000000E-01  1.50000000E+00  8.00000000E-01
  8.00000000E-01  1.50000000E+00  8.00000000E-01  8.00000000E-01  1.50000000E+00
  8.00000000E-01  8.00000000E-01  1.50000000E+00  8.00000000E-01  8.00000000E-01
  1.50000000E+00  8.00000000E-01  8.00000000E-01  1.50000000E+00  8.00000000E-01
  8.00000000E-01  1.50000000E+00  8.00000000E-01  8.00000000E-01  1.50000000E+00
  8.00000000E-01  8.00000000E-01  1.50000000E+00  8.00000000E-01  8.00000000E-01
  1.50000000E+00  8.00000000E-01  8.00000000E-01  1.50000000E+00  8.00000000E-01
  8.00000000E-01  1.50000000E+00  8.00000000E-01  8.00000000E-01  1.50000000E+00
  8.00000000E-01  8.00000000E-01  1.50000000E+00  8.00000000E-01  8.00000000E-01
  1.50000000E+00  8.00000000E-01  8.00000000E-01  1.50000000E+00  8.00000000E-01
  8.00000000E-01  1.50000000E+00  8.00000000E-01  8.00000000E-01  1.50000000E+00
  8.00000000E-01  8.00000000E-01  1.50000000E+00  8.00000000E-01  8.00000000E-01
  1.50000000E+00  8.00000000E-01  8.00000000E-01  1.50000000E+00  8.00000000E-01
  8.00000000E-01  1.50000000E+00  8.00000000E-01  8.00000000E-01  1.50000000E+00
  8.00000000E-01  8.00000000E-01  1.50000000E+00  8.00000000E-01  8.00000000E-01
  1.50000000E+00  8.00000000E-01  8.00000000E-01  1.50000000E+00  8.00000000E-01
  8.00000000E-01  1.50000000E+00  8.00000000E-01  8.00000000E-01  1.50000000E+00
  8.00000000E-01  8.00000000E-01  1.50000000E+00  8.00000000E-01  8.00000000E-01
  1.50000000E+00  8.00000000E-01  8.00000000E-01  1.50000000E+00  8.00000000E-01
  8.00000000E-01  1.50000000E+00  8.00000000E-01  8.00000000E-01  1.50000000E+00
  8.00000000E-01  8.00000000E-01  1.50000000E+00  8.00000000E-01  8.00000000E-01
  1.50000000E+00  8.00000000E-01  8.00000000E-01  1.50000000E+00  8.00000000E-01
  8.00000000E-01  1.50000000E+00  8.00000000E-01  8.00000000E-01  1.50000000E+00
  8.00000000E-01  8.00000000E-01  1.50000000E+00  8.00000000E-01  8.00000000E-01
  1.50000000E+00  8.00000000E-01  8.00000000E-01  1.50000000E+00  8.00000000E-01
  8.00000000E-01  1.50000000E+00  8.00000000E-01  8.00000000E-01  1.50000000E+00
  8.00000000E-01  8.00000000E-01  1.50000000E+00  8.00000000E-01  8.00000000E-01
  1.50000000E+00  8.00000000E-01  8.00000000E-01  1.50000000E+00  8.00000000E-01
  8.00000000E-01  1.50000000E+00  8.00000000E-01  8.00000000E-01  1.50000000E+00
  8.00000000E-01  8.00000000E-01  1.50000000E+00  8.00000000E-01  8.00000000E-01
  1.50000000E+00  8.00000000E-01  8.00000000E-01  1.50000000E+00  8.00000000E-01
  8.00000000E-01  1.50000000E+00  8.00000000E-01  8.00000000E-01  1.50000000E+00
  8.00000000E-01  8.00000000E-01  1.50000000E+00  8.00000000E-01  8.00000000E-01
  1.50000000E+00  8.00000000E-01  8.00000000E-01  1.50000000E+00  8.00000000E-01
  8.00000000E-01  1.50000000E+00  8.00000000E-01  8.00000000E-01  1.50000000E+00
  8.00000000E-01  8.00000000E-01  1.50000000E+00  8.00000000E-01  8.00000000E-01
  1.50000000E+00  8.00000000E-01  8.00000000E-01  1.50000000E+00  8.00000000E-01
  8.00000000E-01  1.50000000E+00  8.00000000E-01  8.00000000E-01  1.50000000E+00
  8.00000000E-01  8.00000000E-01  1.50000000E+00  8.00000000E-01  8.00000000E-01
  1.50000000E+00  8.00000000E-01  8.00000000E-01  1.50000000E+00  8.00000000E-01
  8.00000000E-01  1.50000000E+00  8.00000000E-01  8.00000000E-01  1.50000000E+00
  8.00000000E-01  8.00000000E-01  1.50000000E+00  8.00000000E-01  8.00000000E-01
  1.50000000E+00  8.00000000E-01  8.00000000E-01  1.50000000E+00  8.00000000E-01
  8.00000000E-01  1.50000000E+00  8.00000000E-01  8.00000000E-01  1.50000000E+00
  8.00000000E-01  8.00000000E-01  1.50000000E+00  8.00000000E-01  8.00000000E-01
  1.50000000E+00  8.00000000E-01  8.00000000E-01  1.50000000E+00  8.00000000E-01
  8.00000000E-01  1.50000000E+00  8.00000000E-01  8.00000000E-01  1.50000000E+00
  8.00000000E-01  8.00000000E-01  1.50000000E+00  8.00000000E-01  8.00000000E-01
  1.50000000E+00  8.00000000E-01  8.00000000E-01  1.50000000E+00  8.00000000E-01
  8.00000000E-01  1.50000000E+00  8.00000000E-01  8.00000000E-01  1.50000000E+00
  8.00000000E-01  8.00000000E-01  1.50000000E+00  8.00000000E-01  8.00000000E-01
  1.50000000E+00  8.00000000E-01  8.00000000E-01  1.50000000E+00  8.00000000E-01
  8.00000000E-01  1.50000000E+00  8.00000000E-01  8.00000000E-01  1.50000000E+00
  8.00000000E-01  8.00000000E-01  1.50000000E+00  8.00000000E-01  8.00000000E-01
  1.50000000E+00  8.00000000E-01  8.00000000E-01  1.50000000E+00  8.00000000E-01
  8.00000000E-01  1.50000000E+00  8.00000000E-01  8.00000000E-01  1.50000000E+00
  8.00000000E-01  8.00000000E-01  1.50000000E+00  8.00000000E-01  8.00000000E-01
  1.50000000E+00  8.00000000E-01  8.00000000E-01  1.50000000E+00  8.00000000E-01
  8.00000000E-01  1.50000000E+00  8.00000000E-01  8.00000000E-01  1.50000000E+00
  8.00000000E-01  8.00000000E-01  1.50000000E+00  8.00000000E-01  8.00000000E-01
  1.50000000E+00  8.00000000E-01  8.00000000E-01  1.50000000E+00  8.00000000E-01
  8.00000000E-01  1.50000000E+00  8.00000000E-01  8.00000000E-01  1.50000000E+00
  8.00000000E-01  8.00000000E-01  1.50000000E+00  8.00000000E-01  8.00000000E-01
  1.50000000E+00  8.00000000E-01  8.00000000E-01  1.50000000E+00  8.00000000E-01
  8.00000000E-01  1.50000000E+00  8.00000000E-01  8.00000000E-01  1.50000000E+00
  8.00000000E-01  8.00000000E-01  1.50000000E+00  8.00000000E-01  8.00000000E-01
  1.50000000E+00  8.00000000E-01  8.00000000E-01  1.50000000E+00  8.00000000E-01
  8.00000000E-01  1.50000000E+00  8.00000000E-01  8.00000000E-01  1.50000000E+00
  8.00000000E-01  8.00000000E-01  1.50000000E+00  8.00000000E-01  8.00000000E-01
  1.50000000E+00  8.00000000E-01  8.00000000E-01  1.50000000E+00  8.00000000E-01
  8.00000000E-01  1.50000000E+00  8.00000000E-01  8.00000000E-01  1.50000000E+00
  8.00000000E-01  8.00000000E-01  1.50000000E+00  8.00000000E-01  8.00000000E-01
  1.50000000E+00  8.00000000E-01  8.00000000E-01  1.50000000E+00  8.00000000E-01
  8.00000000E-01  1.50000000E+00  8.00000000E-01  8.00000000E-01  1.50000000E+00
  8.00000000E-01  8.00000000E-01  1.50000000E+00  8.00000000E-01  8.00000000E-01
  1.50000000E+00  8.00000000E-01  8.00000000E-01  1.50000000E+00  8.00000000E-01
  8.00000000E-01  1.50000000E+00  8.00000000E-01  8.00000000E-01  1.50000000E+00
  8.00000000E-01  8.00000000E-01  1.50000000E+00  8.00000000E-01  8.00000000E-01
  1.50000000E+00  8.00000000E-01  8.00000000E-01  1.50000000E+00  8.00000000E-01
  8.00000000E-01  1.50000000E+00  8.00000000E-01  8.00000000E-01  1.50000000E+00
  8.00000000E-01  8.00000000E-01  1.50000000E+00  8.00000000E-01  8.00000000E-01
  1.50000000E+00  8.00000000E-01  8.00000000E-01  1.50000000E+00  8.00000000E-01
  8.00000000E-01  1.50000000E+00  8.00000000E-01  8.00000000E-01  1.50000000E+00
  8.00000000E-01  8.00000000E-01  1.50000000E+00  8.00000000E-01  8.00000000E-01
  1.50000000E+00  8.00000000E-01  8.00000000E-01  1.50000000E+00  8.00000000E-01
  8.00000000E-01  1.50000000E+00  8.00000000E-01  8.00000000E-01  1.50000000E+00
  8.00000000E-01  8.00000000E-01  1.50000000E+00  8.00000000E-01  8.00000000E-01
  1.50000000E+00  8.00000000E-01  8.00000000E-01  1.50000000E+00  8.00000000E-01
  8.00000000E-01  1.50000000E+00  8.00000000E-01  8.00000000E-01  1.50000000E+00
  8.00000000E-01  8.00000000E-01  1.50000000E+00  8.00000000E-01  8.00000000E-01
  1.50000000E+00  8.00000000E-01  8.00000000E-01  1.50000000E+00  8.00000000E-01
  8.00000000E-01  1.50000000E+00  8.00000000E-01  8.00000000E-01  1.50000000E+00
  8.00000000E-01  8.00000000E-01  1.50000000E+00  8.00000000E-01  8.00000000E-01
  1.50000000E+00  8.00000000E-01  8.00000000E-01  1.50000000E+00  8.00000000E-01
  8.00000000E-01  1.50000000E+00  8.00000000E-01  8.00000000E-01  1.50000000E+00
  8.00000000E-01  8.00000000E-01  1.50000000E+00  8.00000000E-01  8.00000000E-01
  1.50000000E+00  8.00000000E-01  8.00000000E-01  1.50000000E+00  8.00000000E-01
  8.00000000E-01  1.50000000E+00  8.00000000E-01  8.00000000E-01  1.50000000E+00
  8.00000000E-01  8.00000000E-01  1.50000000E+00  8.00000000E-01  8.00000000E-01
  1.50000000E+00  8.00000000E-01  8.00000000E-01  1.50000000E+00  8.00000000E-01
  8.00000000E-01  1.50000000E+00  8.00000000E-01  8.00000000E-01  1.50000000E+00
  8.00000000E-01  8.00000000E-01  1.50000000E+00  8.00000000E-01  8.00000000E-01
  1.50000000E+00  8.00000000E-01  8.00000000E-01  1.50000000E+00  8.00000000E-01
  8.00000000E-01  1.50000000E+00  8.00000000E-01  8.00000000E-01  1.50000000E+00
  8.00000000E-01  8.00000000E-01  1.50000000E+00  8.00000000E-01  8.00000000E-01
  1.50000000E+00  8.00000000E-01  8.00000000E-01  1.50000000E+00  8.00000000E-01
  8.00000000E-01  1.50000000E+00  8.00000000E-01  8.00000000E-01  1.50000000E+00
  8.00000000E-01  8.00000000E-01  1.50000000E+00  8.00000000E-01  8.00000000E-01
  1.50000000E+00  8.00000000E-01  8.00000000E-01  1.50000000E+00  8.00000000E-01
  8.00000000E-01  1.50000000E+00  8.00000000E-01  8.00000000E-01  1.50000000E+00
  8.00000000E-01  8.00000000E-01  1.50000000E+00  8.00000000E-01  8.00000000E-01
  1.50000000E+00  8.00000000E-01  8.00000000E-01  1.50000000E+00  8.00000000E-01
  8.00000000E-01  1.50000000E+00  8.00000000E-01  8.00000000E-01  1.50000000E+00
  8.00000000E-01  8.00000000E-01  1.50000000E+00  8.00000000E-01  8.00000000E-01
  1.50000000E+00  8.00000000E-01  8.00000000E-01  1.50000000E+00  8.00000000E-01
  8.00000000E-01  1.50000000E+00  8.00000000E-01  8.00000000E-01  1.50000000E+00
  8.00000000E-01  8.00000000E-01  1.50000000E+00  8.00000000E-01  8.00000000E-01
  1.50000000E+00  8.00000000E-01  8.00000000E-01  1.50000000E+00  8.00000000E-01
  8.00000000E-01  1.50000000E+00  8.00000000E-01  8.00000000E-01  1.50000000E+00
  8.00000000E-01  8.00000000E-01  1.50000000E+00  8.00000000E-01  8.00000000E-01
  1.50000000E+00  8.00000000E-01  8.00000000E-01  1.50000000E+00  8.00000000E-01
  8.00000000E-01  1.50000000E+00  8.00000000E-01  8.00000000E-01  1.50000000E+00
  8.00000000E-01  8.00000000E-01  1.50000000E+00  8.00000000E-01  8.00000000E-01
  1.50000000E+00  8.00000000E-01  8.00000000E-01  1.50000000E+00  8.00000000E-01
  8.00000000E-01  1.50000000E+00  8.00000000E-01  8.00000000E-01  1.50000000E+00
  8.00000000E-01  8.00000000E-01  1.50000000E+00  8.00000000E-01  8.00000000E-01
  1.50000000E+00  8.00000000E-01  8.00000000E-01  1.50000000E+00  8.00000000E-01
  8.00000000E-01  1.50000000E+00  8.00000000E-01  8.00000000E-01  1.50000000E+00
  8.00000000E-01  8.00000000E-01  1.50000000E+00  8.00000000E-01  8.00000000E-01
  1.50000000E+00  8.00000000E-01  8.00000000E-01  1.50000000E+00  8.00000000E-01
  8.00000000E-01  1.50000000E+00  8.00000000E-01  8.00000000E-01  1.50000000E+00
  8.00000000E-01  8.00000000E-01  1.50000000E+00  8.00000000E-01  8.00000000E-01
  1.50000000E+00  8.00000000E-01  8.00000000E-01  1.50000000E+00  8.00000000E-01
  8.00000000E-01  1.50000000E+00  8.00000000E-01  8.00000000E-01  1.50000000E+00
  8.00000000E-01  8.00000000E-01  1.50000000E+00  8.00000000E-01  8.00000000E-01
  1.50000000E+00  8.00000000E-01  8.00000000E-01  1.50000000E+00  8.00000000E-01
  8.00000000E-01  1.50000000E+00  8.00000000E-01  8.00000000E-01  1.50000000E+00
  8.00000000E-01  8.00000000E-01  1.50000000E+00  8.00000000E-01  8.00000000E-01
  1.50000000E+00  8.00000000E-01  8.00000000E-01  1.50000000E+00  8.00000000E-01
  8.00000000E-01  1.50000000E+00  8.00000000E-01  8.00000000E-01  1.50000000E+00
  8.00000000E-01  8.00000000E-01  1.50000000E+00  8.00000000E-01  8.00000000E-01
  1.50000000E+00  8.00000000E-01  8.00000000E-01  1.50000000E+00  8.00000000E-01
  8.00000000E-01  1.50000000E+00  8.00000000E-01  8.00000000E-01  1.50000000E+00
  8.00000000E-01  8.00000000E-01  1.50000000E+00  8.00000000E-01  8.00000000E-01
  1.50000000E+00  8.00000000E-01  8.00000000E-01  1.50000000E+00  8.00000000E-01
  8.00000000E-01  1.50000000E+00  8.00000000E-01  8.00000000E-01  1.50000000E+00
  8.00000000E-01  8.00000000E-01  1.50000000E+00  8.00000000E-01  8.00000000E-01
  1.50000000E+00  8.00000000E-01  8.00000000E-01  1.50000000E+00  8.00000000E-01
  8.00000000E-01  1.50000000E+00  8.00000000E-01  8.00000000E-01  1.50000000E+00
  8.00000000E-01  8.00000000E-01  1.50000000E+00  8.00000000E-01  8.00000000E-01
  1.50000000E+00  8.00000000E-01  8.00000000E-01  1.50000000E+00  8.00000000E-01
  8.00000000E-01  1.50000000E+00  8.00000000E-01  8.00000000E-01  1.50000000E+00
  8.00000000E-01  8.00000000E-01  1.50000000E+00  8.00000000E-01  8.00000000E-01
  1.50000000E+00  8.00000000E-01  8.00000000E-01  1.50000000E+00  8.00000000E-01
  8.00000000E-01  1.50000000E+00  8.00000000E-01  8.00000000E-01  1.50000000E+00
  8.00000000E-01  8.00000000E-01  1.50000000E+00  8.00000000E-01  8.00000000E-01
  1.50000000E+00  8.00000000E-01  8.00000000E-01  1.50000000E+00  8.00000000E-01
  8.00000000E-01  1.50000000E+00  8.00000000E-01  8.00000000E-01  1.50000000E+00
  8.00000000E-01  8.00000000E-01  1.50000000E+00  8.00000000E-01  8.00000000E-01
  1.50000000E+00  8.00000000E-01  8.00000000E-01  1.50000000E+00  8.00000000E-01
  8.00000000E-01  1.50000000E+00  8.00000000E-01  8.00000000E-01  1.50000000E+00
  8.00000000E-01  8.00000000E-01  1.50000000E+00  8.00000000E-01  8.00000000E-01
  1.50000000E+00  8.00000000E-01  8.00000000E-01  1.50000000E+00  8.00000000E-01
  8.00000000E-01  1.50000000E+00  8.00000000E-01  8.00000000E-01  1.50000000E+00
  8.00000000E-01  8.00000000E-01  1.50000000E+00  8.00000000E-01  8.00000000E-01
  1.50000000E+00  8.00000000E-01  8.00000000E-01  1.50000000E+00  8.00000000E-01
  8.00000000E-01  1.50000000E+00  8.00000000E-01  8.00000000E-01  1.50000000E+00
  8.00000000E-01  8.00000000E-01  1.50000000E+00  8.00000000E-01  8.00000000E-01
  1.50000000E+00  8.00000000E-01  8.00000000E-01  1.50000000E+00  8.00000000E-01
  8.00000000E-01  1.50000000E+00  8.00000000E-01  8.00000000E-01  1.50000000E+00
  8.00000000E-01  8.00000000E-01  1.50000000E+00  8.00000000E-01  8.00000000E-01
  1.50000000E+00  8.00000000E-01  8.00000000E-01  1.50000000E+00  8.00000000E-01
  8.00000000E-01  1.50000000E+00  8.00000000E-01  8.00000000E-01  1.50000000E+00
  8.00000000E-01  8.00000000E-01  1.50000000E+00  8.00000000E-01  8.00000000E-01
  1.50000000E+00  8.00000000E-01  8.00000000E-01  1.50000000E+00  8.00000000E-01
  8.00000000E-01  1.50000000E+00  8.00000000E-01  8.00000000E-01  1.50000000E+00
  8.00000000E-01  8.00000000E-01  1.50000000E+00  8.00000000E-01  8.00000000E-01
  1.50000000E+00  8.00000000E-01  8.00000000E-01  1.50000000E+00  8.00000000E-01
  8.00000000E-01  1.50000000E+00  8.00000000E-01  8.00000000E-01  1.50000000E+00
  8.00000000E-01  8.00000000E-01  1.50000000E+00  8.00000000E-01  8.00000000E-01
  1.50000000E+00  8.00000000E-01  8.00000000E-01  1.50000000E+00  8.00000000E-01
  8.00000000E-01  1.50000000E+00  8.00000000E-01  8.00000000E-01  1.50000000E+00
  8.00000000E-01  8.00000000E-01  1.50000000E+00  8.00000000E-01  8.00000000E-01
  1.50000000E+00  8.00000000E-01  8.00000000E-01  1.50000000E+00  8.00000000E-01
  8.00000000E-01  1.50000000E+00  8.00000000E-01  8.00000000E-01  1.50000000E+00
  8.00000000E-01  8.00000000E-01  1.50000000E+00  8.00000000E-01  8.00000000E-01
  1.50000000E+00  8.00000000E-01  8.00000000E-01  1.50000000E+00  8.00000000E-01
  8.00000000E-01  1.50000000E+00  8.00000000E-01  8.00000000E-01  1.50000000E+00
  8.00000000E-01  8.00000000E-01  1.50000000E+00  8.00000000E-01  8.00000000E-01
  1.50000000E+00  8.00000000E-01  8.00000000E-01  1.50000000E+00  8.00000000E-01
  8.00000000E-01  1.50000000E+00  8.00000000E-01  8.00000000E-01  1.50000000E+00
  8.00000000E-01  8.00000000E-01  1.50000000E+00  8.00000000E-01  8.00000000E-01
  1.50000000E+00  8.00000000E-01  8.00000000E-01  1.50000000E+00  8.00000000E-01
  8.00000000E-01  1.50000000E+00  8.00000000E-01  8.00000000E-01  1.50000000E+00
  8.00000000E-01  8.00000000E-01  1.50000000E+00  8.00000000E-01  8.00000000E-01
  1.50000000E+00  8.00000000E-01  8.00000000E-01  1.50000000E+00  8.00000000E-01
  8.00000000E-01  1.50000000E+00  8.00000000E-01  8.00000000E-01  1.50000000E+00
  8.00000000E-01  8.00000000E-01  1.50000000E+00  8.00000000E-01  8.00000000E-01
  1.50000000E+00  8.00000000E-01  8.00000000E-01  1.50000000E+00  8.00000000E-01
  8.00000000E-01  1.50000000E+00  8.00000000E-01  8.00000000E-01  1.50000000E+00
  8.00000000E-01  8.00000000E-01  1.50000000E+00  8.00000000E-01  8.00000000E-01
  1.50000000E+00  8.00000000E-01  8.00000000E-01  1.50000000E+00  8.00000000E-01
  8.00000000E-01  1.50000000E+00  8.00000000E-01  8.00000000E-01  1.50000000E+00
  8.00000000E-01  8.00000000E-01  1.50000000E+00  8.00000000E-01  8.00000000E-01
  1.50000000E+00  8.00000000E-01  8.00000000E-01  1.50000000E+00  8.00000000E-01
  8.00000000E-01  1.50000000E+00  8.00000000E-01  8.00000000E-01  1.50000000E+00
  8.00000000E-01  8.00000000E-01  1.50000000E+00  8.00000000E-01  8.00000000E-01
  1.50000000E+00  8.00000000E-01  8.00000000E-01  1.50000000E+00  8.00000000E-01
  8.00000000E-01  1.50000000E+00  8.00000000E-01  8.00000000E-01  1.50000000E+00
  8.00000000E-01  8.00000000E-01  1.50000000E+00  8.00000000E-01  8.00000000E-01
  1.50000000E+00  8.00000000E-01  8.00000000E-01  1.50000000E+00  8.00000000E-01
  8.00000000E-01  1.50000000E+00  8.00000000E-01  8.00000000E-01  1.50000000E+00
  8.00000000E-01  8.00000000E-01  1.50000000E+00  8.00000000E-01  8.00000000E-01
  1.50000000E+00  8.00000000E-01  8.00000000E-01  1.50000000E+00  8.00000000E-01
  8.00000000E-01  1.50000000E+00  8.00000000E-01  8.00000000E-01  1.50000000E+00
  8.00000000E-01  8.00000000E-01  1.50000000E+00  8.00000000E-01  8.00000000E-01
  1.50000000E+00  8.00000000E-01  8.00000000E-01  1.50000000E+00  8.00000000E-01
  8.00000000E-01  1.50000000E+00  8.00000000E-01  8.00000000E-01  1.50000000E+00
  8.00000000E-01  8.00000000E-01  1.50000000E+00  8.00000000E-01  8.00000000E-01
  1.50000000E+00  8.00000000E-01  8.00000000E-01  1.50000000E+00  8.00000000E-01
  8.00000000E-01  1.50000000E+00  8.00000000E-01  8.00000000E-01  1.50000000E+00
  8.00000000E-01  8.00000000E-01  1.50000000E+00  8.00000000E-01  8.00000000E-01
  1.50000000E+00  8.00000000E-01  8.00000000E-01  1.50000000E+00  8.00000000E-01
  8.00000000E-01  1.50000000E+00  8.00000000E-01  8.00000000E-01  1.50000000E+00
  8.00000000E-01  8.00000000E-01  1.50000000E+00  8.00000000E-01  8.00000000E-01
  1.50000000E+00  8.00000000E-01  8.00000000E-01  1.50000000E+00  8.00000000E-01
  8.00000000E-01  1.50000000E+00  8.00000000E-01  8.00000000E-01  1.50000000E+00
  8.00000000E-01  8.00000000E-01  1.50000000E+00  8.00000000E-01  8.00000000E-01
  1.50000000E+00  8.00000000E-01  8.00000000E-01  1.50000000E+00  8.00000000E-01
  8.00000000E-01  1.50000000E+00  8.00000000E-01  8.00000000E-01  1.50000000E+00
  8.00000000E-01  8.00000000E-01  1.50000000E+00  8.00000000E-01  8.00000000E-01
  1.50000000E+00  8.00000000E-01  8.00000000E-01  1.50000000E+00  8.00000000E-01
  8.00000000E-01  1.50000000E+00  8.00000000E-01  8.00000000E-01  1.50000000E+00
  8.00000000E-01  8.00000000E-01  1.50000000E+00  8.00000000E-01  8.00000000E-01
  1.50000000E+00  8.00000000E-01  8.00000000E-01  1.50000000E+00  8.00000000E-01
  8.00000000E-01  1.50000000E+00  8.00000000E-01  8.00000000E-01  1.50000000E+00
  8.00000000E-01  8.00000000E-01  1.50000000E+00  8.00000000E-01  8.00000000E-01
  1.50000000E+00  8.00000000E-01  8.00000000E-01  1.50000000E+00  8.00000000E-01
  8.00000000E-01  1.50000000E+00  8.00000000E-01  8.00000000E-01  1.50000000E+00
  8.00000000E-01  8.00000000E-01  1.50000000E+00  8.00000000E-01  8.00000000E-01
  1.50000000E+00  8.00000000E-01  8.00000000E-01  1.50000000E+00  8.00000000E-01
  8.00000000E-01  1.50000000E+00  8.00000000E-01  8.00000000E-01  1.50000000E+00
  8.00000000E-01  8.00000000E-01  1.50000000E+00  8.00000000E-01  8.00000000E-01
  1.50000000E+00  8.00000000E-01  8.00000000E-01  1.50000000E+00  8.00000000E-01
  8.00000000E-01  1.50000000E+00  8.00000000E-01  8.00000000E-01  1.50000000E+00
  8.00000000E-01  8.00000000E-01  1.50000000E+00  8.00000000E-01  8.00000000E-01
  1.50000000E+00  8.00000000E-01  8.00000000E-01  1.50000000E+00  8.00000000E-01
  8.00000000E-01  1.50000000E+00  8.00000000E-01  8.00000000E-01  1.50000000E+00
  8.00000000E-01  8.00000000E-01  1.50000000E+00  8.00000000E-01  8.00000000E-01
  1.50000000E+00  8.00000000E-01  8.00000000E-01  1.50000000E+00  8.00000000E-01
  8.00000000E-01  1.50000000E+00  8.00000000E-01  8.00000000E-01  1.50000000E+00
  8.00000000E-01  8.00000000E-01  1.50000000E+00  8.00000000E-01  8.00000000E-01
  1.50000000E+00  8.00000000E-01  8.00000000E-01  1.50000000E+00  8.00000000E-01
  8.00000000E-01  1.50000000E+00  8.00000000E-01  8.00000000E-01  1.50000000E+00
  8.00000000E-01  8.00000000E-01  1.50000000E+00  8.00000000E-01  8.00000000E-01
  1.50000000E+00  8.00000000E-01  8.00000000E-01  1.50000000E+00  8.00000000E-01
  8.00000000E-01  1.50000000E+00  8.00000000E-01  8.00000000E-01  1.50000000E+00
  8.00000000E-01  8.00000000E-01  1.50000000E+00  8.00000000E-01  8.00000000E-01
  1.50000000E+00  8.00000000E-01  8.00000000E-01  1.50000000E+00  8.00000000E-01
  8.00000000E-01  1.50000000E+00  8.00000000E-01  8.00000000E-01  1.50000000E+00
  8.00000000E-01  8.00000000E-01  1.50000000E+00  8.00000000E-01  8.00000000E-01
  1.50000000E+00  8.00000000E-01  8.00000000E-01  1.50000000E+00  8.00000000E-01
  8.00000000E-01  1.50000000E+00  8.00000000E-01  8.00000000E-01  1.50000000E+00
  8.00000000E-01  8.00000000E-01  1.50000000E+00  8.00000000E-01  8.00000000E-01
  1.50000000E+00  8.00000000E-01  8.00000000E-01  1.50000000E+00  8.00000000E-01
  8.00000000E-01  1.50000000E+00  8.00000000E-01  8.00000000E-01  1.50000000E+00
  8.00000000E-01  8.00000000E-01  1.50000000E+00  8.00000000E-01  8.00000000E-01
  1.50000000E+00  8.00000000E-01  8.00000000E-01  1.50000000E+00  8.00000000E-01
  8.00000000E-01  1.50000000E+00  8.00000000E-01  8.00000000E-01  1.50000000E+00
  8.00000000E-01  8.00000000E-01  1.50000000E+00  8.00000000E-01  8.00000000E-01
  1.50000000E+00  8.00000000E-01  8.00000000E-01  1.50000000E+00  8.00000000E-01
  8.00000000E-01  1.50000000E+00  8.00000000E-01  8.00000000E-01  1.50000000E+00
  8.00000000E-01  8.00000000E-01  1.50000000E+00  8.00000000E-01  8.00000000E-01
  1.50000000E+00  8.00000000E-01  8.00000000E-01  1.50000000E+00  8.00000000E-01
  8.00000000E-01  1.50000000E+00  8.00000000E-01  8.00000000E-01  1.50000000E+00
  8.00000000E-01  8.00000000E-01  1.50000000E+00  8.00000000E-01  8.00000000E-01
  1.50000000E+00  8.00000000E-01  8.00000000E-01  1.50000000E+00  8.00000000E-01
  8.00000000E-01  1.50000000E+00  8.00000000E-01  8.00000000E-01  1.50000000E+00
  8.00000000E-01  8.00000000E-01  1.50000000E+00  8.00000000E-01  8.00000000E-01
  1.50000000E+00  8.00000000E-01  8.00000000E-01  1.50000000E+00  8.00000000E-01
  8.00000000E-01  1.50000000E+00  8.00000000E-01  8.00000000E-01  1.50000000E+00
  8.00000000E-01  8.00000000E-01  1.50000000E+00  8.00000000E-01  8.00000000E-01
  1.50000000E+00  8.00000000E-01  8.00000000E-01  1.50000000E+00  8.00000000E-01
  8.00000000E-01  1.50000000E+00  8.00000000E-01  8.00000000E-01  1.50000000E+00
  8.00000000E-01  8.00000000E-01  1.50000000E+00  8.00000000E-01  8.00000000E-01
  1.50000000E+00  8.00000000E-01  8.00000000E-01  1.50000000E+00  8.00000000E-01
  8.00000000E-01  1.50000000E+00  8.00000000E-01  8.00000000E-01  1.50000000E+00
  8.00000000E-01  8.00000000E-01  1.50000000E+00  8.00000000E-01  8.00000000E-01
  1.50000000E+00  8.00000000E-01  8.00000000E-01  1.50000000E+00  8.00000000E-01
  8.00000000E-01  1.50000000E+00  8.00000000E-01  8.00000000E-01  1.50000000E+00
  8.00000000E-01  8.00000000E-01  1.50000000E+00  8.00000000E-01  8.00000000E-01
  1.50000000E+00  8.00000000E-01  8.00000000E-01  1.50000000E+00  8.00000000E-01
  8.00000000E-01  1.50000000E+00  8.00000000E-01  8.00000000E-01  1.50000000E+00
  8.00000000E-01  8.00000000E-01  1.50000000E+00  8.00000000E-01  8.00000000E-01
  1.50000000E+00  8.00000000E-01  8.00000000E-01  1.50000000E+00  8.00000000E-01
  8.00000000E-01  1.50000000E+00  8.00000000E-01  8.00000000E-01  1.50000000E+00
  8.00000000E-01  8.00000000E-01  1.50000000E+00  8.00000000E-01  8.00000000E-01
  1.50000000E+00  8.00000000E-01  8.00000000E-01  1.50000000E+00  8.00000000E-01
  8.00000000E-01  1.50000000E+00  8.00000000E-01  8.00000000E-01  1.50000000E+00
  8.00000000E-01  8.00000000E-01  1.50000000E+00  8.00000000E-01  8.00000000E-01
  1.50000000E+00  8.00000000E-01  8.00000000E-01  1.50000000E+00  8.00000000E-01
  8.00000000E-01  1.50000000E+00  8.00000000E-01  8.00000000E-01  1.50000000E+00
  8.00000000E-01  8.00000000E-01  1.50000000E+00  8.00000000E-01  8.00000000E-01
  1.50000000E+00  8.00000000E-01  8.00000000E-01  1.50000000E+00  8.00000000E-01
  8.00000000E-01  1.50000000E+00  8.00000000E-01  8.00000000E-01  1.50000000E+00
  8.00000000E-01  8.00000000E-01  1.50000000E+00  8.00000000E-01  8.00000000E-01
  1.50000000E+00  8.00000000E-01  8.00000000E-01  1.50000000E+00  8.00000000E-01
  8.00000000E-01  1.50000000E+00  8.00000000E-01  8.00000000E-01  1.50000000E+00
  8.00000000E-01  8.00000000E-01  1.50000000E+00  8.00000000E-01  8.00000000E-01
  1.50000000E+00  8.00000000E-01  8.00000000E-01  1.50000000E+00  8.00000000E-01
  8.00000000E-01  1.50000000E+00  8.00000000E-01  8.00000000E-01  1.50000000E+00
  8.00000000E-01  8.00000000E-01  1.50000000E+00  8.00000000E-01  8.00000000E-01
  1.50000000E+00  8.00000000E-01  8.00000000E-01  1.50000000E+00  8.00000000E-01
  8.00000000E-01  1.50000000E+00  8.00000000E-01  8.00000000E-01  1.50000000E+00
  8.00000000E-01  8.00000000E-01  1.50000000E+00  8.00000000E-01  8.00000000E-01
  1.50000000E+00  8.00000000E-01  8.00000000E-01  1.50000000E+00  8.00000000E-01
  8.00000000E-01  1.50000000E+00  8.00000000E-01  8.00000000E-01  1.50000000E+00
  8.00000000E-01  8.00000000E-01  1.50000000E+00  8.00000000E-01  8.00000000E-01
  1.50000000E+00  8.00000000E-01  8.00000000E-01  1.50000000E+00  8.00000000E-01
  8.00000000E-01  1.50000000E+00  8.00000000E-01  8.00000000E-01  1.50000000E+00
  8.00000000E-01  8.00000000E-01  1.50000000E+00  8.00000000E-01  8.00000000E-01
  1.50000000E+00  8.00000000E-01  8.00000000E-01  1.50000000E+00  8.00000000E-01
  8.00000000E-01  1.50000000E+00  8.00000000E-01  8.00000000E-01  1.50000000E+00
  8.00000000E-01  8.00000000E-01  1.50000000E+00  8.00000000E-01  8.00000000E-01
  1.50000000E+00  8.00000000E-01  8.00000000E-01  1.50000000E+00  8.00000000E-01
  8.00000000E-01  1.50000000E+00  8.00000000E-01  8.00000000E-01  1.50000000E+00
  8.00000000E-01  8.00000000E-01  1.50000000E+00  8.00000000E-01  8.00000000E-01
  1.50000000E+00  8.00000000E-01  8.00000000E-01  1.50000000E+00  8.00000000E-01
  8.00000000E-01  1.50000000E+00  8.00000000E-01  8.00000000E-01  1.50000000E+00
  8.00000000E-01  8.00000000E-01  1.50000000E+00  8.00000000E-01  8.00000000E-01
  1.50000000E+00  8.00000000E-01  8.00000000E-01  1.50000000E+00  8.00000000E-01
  8.00000000E-01  1.50000000E+00  8.00000000E-01  8.00000000E-01  1.50000000E+00
  8.00000000E-01  8.00000000E-01  1.50000000E+00  8.00000000E-01  8.00000000E-01
  1.50000000E+00  8.00000000E-01  8.00000000E-01  1.50000000E+00  8.00000000E-01
  8.00000000E-01  1.50000000E+00  8.00000000E-01  8.00000000E-01  1.50000000E+00
  8.00000000E-01  8.00000000E-01  1.50000000E+00  8.00000000E-01  8.00000000E-01
  1.50000000E+00  8.00000000E-01  8.00000000E-01  1.50000000E+00  8.00000000E-01
  8.00000000E-01  1.50000000E+00  8.00000000E-01  8.00000000E-01  1.50000000E+00
  8.00000000E-01  8.00000000E-01  1.50000000E+00  8.00000000E-01  8.00000000E-01
  1.50000000E+00  8.00000000E-01  8.00000000E-01  1.50000000E+00  8.00000000E-01
  8.00000000E-01  1.50000000E+00  8.00000000E-01  8.00000000E-01  1.50000000E+00
  8.00000000E-01  8.00000000E-01  1.50000000E+00  8.00000000E-01  8.00000000E-01
  1.50000000E+00  8.00000000E-01  8.00000000E-01  1.50000000E+00  8.00000000E-01
  8.00000000E-01  1.50000000E+00  8.00000000E-01  8.00000000E-01  1.50000000E+00
  8.00000000E-01  8.00000000E-01  1.50000000E+00  8.00000000E-01  8.00000000E-01
  1.50000000E+00  8.00000000E-01  8.00000000E-01  1.50000000E+00  8.00000000E-01
  8.00000000E-01  1.50000000E+00  8.00000000E-01  8.00000000E-01  1.50000000E+00
  8.00000000E-01  8.00000000E-01  1.50000000E+00  8.00000000E-01  8.00000000E-01
  1.50000000E+00  8.00000000E-01  8.00000000E-01  1.50000000E+00  8.00000000E-01
  8.00000000E-01  1.50000000E+00  8.00000000E-01  8.00000000E-01  1.50000000E+00
  8.00000000E-01  8.00000000E-01  1.50000000E+00  8.00000000E-01  8.00000000E-01
  1.50000000E+00  8.00000000E-01  8.00000000E-01  1.50000000E+00  8.00000000E-01
  8.00000000E-01  1.50000000E+00  8.00000000E-01  8.00000000E-01  1.50000000E+00
  8.00000000E-01  8.00000000E-01  1.50000000E+00  8.00000000E-01  8.00000000E-01
  1.50000000E+00  8.00000000E-01  8.00000000E-01  1.50000000E+00  8.00000000E-01
  8.00000000E-01  1.50000000E+00  8.00000000E-01  8.00000000E-01  1.50000000E+00
  8.00000000E-01  8.00000000E-01  1.50000000E+00  8.00000000E-01  8.00000000E-01
  1.50000000E+00  8.00000000E-01  8.00000000E-01  1.50000000E+00  8.00000000E-01
  8.00000000E-01  1.50000000E+00  8.00000000E-01  8.00000000E-01  1.50000000E+00
  8.00000000E-01  8.00000000E-01  1.50000000E+00  8.00000000E-01  8.00000000E-01
  1.50000000E+00  8.00000000E-01  8.00000000E-01  1.50000000E+00  8.00000000E-01
  8.00000000E-01  1.50000000E+00  8.00000000E-01  8.00000000E-01  1.50000000E+00
  8.00000000E-01  8.00000000E-01  1.50000000E+00  8.00000000E-01  8.00000000E-01
  1.50000000E+00  8.00000000E-01  8.00000000E-01  1.50000000E+00  8.00000000E-01
  8.00000000E-01  1.50000000E+00  8.00000000E-01  8.00000000E-01  1.50000000E+00
  8.00000000E-01  8.00000000E-01  1.50000000E+00  8.00000000E-01  8.00000000E-01
  1.50000000E+00  8.00000000E-01  8.00000000E-01  1.50000000E+00  8.00000000E-01
  8.00000000E-01  1.50000000E+00  8.00000000E-01  8.00000000E-01  1.50000000E+00
  8.00000000E-01  8.00000000E-01  1.50000000E+00  8.00000000E-01  8.00000000E-01
  1.50000000E+00  8.00000000E-01  8.00000000E-01  1.50000000E+00  8.00000000E-01
  8.00000000E-01  1.50000000E+00  8.00000000E-01  8.00000000E-01  1.50000000E+00
  8.00000000E-01  8.00000000E-01  1.50000000E+00  8.00000000E-01  8.00000000E-01
  1.50000000E+00  8.00000000E-01  8.00000000E-01  1.50000000E+00  8.00000000E-01
  8.00000000E-01  1.50000000E+00  8.00000000E-01  8.00000000E-01  1.50000000E+00
  8.00000000E-01  8.00000000E-01  1.50000000E+00  8.00000000E-01  8.00000000E-01
  1.50000000E+00  8.00000000E-01  8.00000000E-01  1.50000000E+00  8.00000000E-01
  8.00000000E-01  1.50000000E+00  8.00000000E-01  8.00000000E-01  1.50000000E+00
  8.00000000E-01  8.00000000E-01  1.50000000E+00  8.00000000E-01  8.00000000E-01
  1.50000000E+00  8.00000000E-01  8.00000000E-01  1.50000000E+00  8.00000000E-01
  8.00000000E-01  1.50000000E+00  8.00000000E-01  8.00000000E-01  1.50000000E+00
  8.00000000E-01  8.00000000E-01  1.50000000E+00  8.00000000E-01  8.00000000E-01
  1.50000000E+00  8.00000000E-01  8.00000000E-01  1.50000000E+00  8.00000000E-01
  8.00000000E-01  1.50000000E+00  8.00000000E-01  8.00000000E-01  1.50000000E+00
  8.00000000E-01  8.00000000E-01  1.50000000E+00  8.00000000E-01  8.00000000E-01
  1.50000000E+00  8.00000000E-01  8.00000000E-01  1.50000000E+00  8.00000000E-01
  8.00000000E-01  1.50000000E+00  8.00000000E-01  8.00000000E-01  1.50000000E+00
  8.00000000E-01  8.00000000E-01  1.50000000E+00  8.00000000E-01  8.00000000E-01
  1.50000000E+00  8.00000000E-01  8.00000000E-01  1.50000000E+00  8.00000000E-01
  8.00000000E-01  1.50000000E+00  8.00000000E-01  8.00000000E-01  1.50000000E+00
  8.00000000E-01  8.00000000E-01  1.50000000E+00  8.00000000E-01  8.00000000E-01
  1.50000000E+00  8.00000000E-01  8.00000000E-01  1.50000000E+00  8.00000000E-01
  8.00000000E-01  1.50000000E+00  8.00000000E-01  8.00000000E-01  1.50000000E+00
  8.00000000E-01  8.00000000E-01  1.50000000E+00  8.00000000E-01  8.00000000E-01
  1.50000000E+00  8.00000000E-01  8.00000000E-01  1.50000000E+00  8.00000000E-01
  8.00000000E-01  1.50000000E+00  8.00000000E-01  8.00000000E-01  1.50000000E+00
  8.00000000E-01  8.00000000E-01  1.50000000E+00  8.00000000E-01  8.00000000E-01
  1.50000000E+00  8.00000000E-01  8.00000000E-01  1.50000000E+00  8.00000000E-01
  8.00000000E-01  1.50000000E+00  8.00000000E-01  8.00000000E-01  1.50000000E+00
  8.00000000E-01  8.00000000E-01  1.50000000E+00  8.00000000E-01  8.00000000E-01
  1.50000000E+00  8.00000000E-01  8.00000000E-01  1.50000000E+00  8.00000000E-01
  8.00000000E-01  1.50000000E+00  8.00000000E-01  8.00000000E-01  1.50000000E+00
  8.00000000E-01  8.00000000E-01  1.50000000E+00  8.00000000E-01  8.00000000E-01
  1.50000000E+00  8.00000000E-01  8.00000000E-01  1.50000000E+00  8.00000000E-01
  8.00000000E-01  1.50000000E+00  8.00000000E-01  8.00000000E-01  1.50000000E+00
  8.00000000E-01  8.00000000E-01  1.50000000E+00  8.00000000E-01  8.00000000E-01
  1.50000000E+00  8.00000000E-01  8.00000000E-01  1.50000000E+00  8.00000000E-01
  8.00000000E-01  1.50000000E+00  8.00000000E-01  8.00000000E-01  1.50000000E+00
  8.00000000E-01  8.00000000E-01  1.50000000E+00  8.00000000E-01  8.00000000E-01
  1.50000000E+00  8.00000000E-01  8.00000000E-01  1.50000000E+00  8.00000000E-01
  8.00000000E-01  1.50000000E+00  8.00000000E-01  8.00000000E-01  1.50000000E+00
  8.00000000E-01  8.00000000E-01  1.50000000E+00  8.00000000E-01  8.00000000E-01
  1.50000000E+00  8.00000000E-01  8.00000000E-01  1.50000000E+00  8.00000000E-01
  8.00000000E-01  1.50000000E+00  8.00000000E-01  8.00000000E-01  1.50000000E+00
  8.00000000E-01  8.00000000E-01  1.50000000E+00  8.00000000E-01  8.00000000E-01
  1.50000000E+00  8.00000000E-01  8.00000000E-01  1.50000000E+00  8.00000000E-01
  8.00000000E-01  1.50000000E+00  8.00000000E-01  8.00000000E-01  1.50000000E+00
  8.00000000E-01  8.00000000E-01  1.50000000E+00  8.00000000E-01  8.00000000E-01
  1.50000000E+00  8.00000000E-01  8.00000000E-01  1.50000000E+00  8.00000000E-01
  8.00000000E-01  1.50000000E+00  8.00000000E-01  8.00000000E-01  1.50000000E+00
  8.00000000E-01  8.00000000E-01  1.50000000E+00  8.00000000E-01  8.00000000E-01
  1.50000000E+00  8.00000000E-01  8.00000000E-01  1.50000000E+00  8.00000000E-01
  8.00000000E-01  1.50000000E+00  8.00000000E-01  8.00000000E-01  1.50000000E+00
  8.00000000E-01  8.00000000E-01  1.50000000E+00  8.00000000E-01  8.00000000E-01
  1.50000000E+00  8.00000000E-01  8.00000000E-01  1.50000000E+00  8.00000000E-01
  8.00000000E-01  1.50000000E+00  8.00000000E-01  8.00000000E-01  1.50000000E+00
  8.00000000E-01  8.00000000E-01  1.50000000E+00  8.00000000E-01  8.00000000E-01
  1.50000000E+00  8.00000000E-01  8.00000000E-01  1.50000000E+00  8.00000000E-01
  8.00000000E-01  1.50000000E+00  8.00000000E-01  8.00000000E-01  1.50000000E+00
  8.00000000E-01  8.00000000E-01  1.50000000E+00  8.00000000E-01  8.00000000E-01
  1.50000000E+00  8.00000000E-01  8.00000000E-01  1.50000000E+00  8.00000000E-01
  8.00000000E-01  1.50000000E+00  8.00000000E-01  8.00000000E-01  1.50000000E+00
  8.00000000E-01  8.00000000E-01  1.50000000E+00  8.00000000E-01  8.00000000E-01
  1.50000000E+00  8.00000000E-01  8.00000000E-01  1.50000000E+00  8.00000000E-01
  8.00000000E-01  1.50000000E+00  8.00000000E-01  8.00000000E-01  1.50000000E+00
  8.00000000E-01  8.00000000E-01  1.50000000E+00  8.00000000E-01  8.00000000E-01
  1.50000000E+00  8.00000000E-01  8.00000000E-01  1.50000000E+00  8.00000000E-01
  8.00000000E-01  1.50000000E+00  8.00000000E-01  8.00000000E-01  1.50000000E+00
  8.00000000E-01  8.00000000E-01  1.50000000E+00  8.00000000E-01  8.00000000E-01
  1.50000000E+00  8.00000000E-01  8.00000000E-01  1.50000000E+00  8.00000000E-01
  8.00000000E-01  1.50000000E+00  8.00000000E-01  8.00000000E-01  1.50000000E+00
  8.00000000E-01  8.00000000E-01  1.50000000E+00  8.00000000E-01  8.00000000E-01
  1.50000000E+00  8.00000000E-01  8.00000000E-01  1.50000000E+00  8.00000000E-01
  8.00000000E-01  1.50000000E+00  8.00000000E-01  8.00000000E-01  1.50000000E+00
  8.00000000E-01  8.00000000E-01  1.50000000E+00  8.00000000E-01  8.00000000E-01
  1.50000000E+00  8.00000000E-01  8.00000000E-01  1.50000000E+00  8.00000000E-01
  8.00000000E-01  1.50000000E+00  8.00000000E-01  8.00000000E-01  1.50000000E+00
  8.00000000E-01  8.00000000E-01  1.50000000E+00  8.00000000E-01  8.00000000E-01
  1.50000000E+00  8.00000000E-01  8.00000000E-01  1.50000000E+00  8.00000000E-01
  8.00000000E-01  1.50000000E+00  8.00000000E-01  8.00000000E-01  1.50000000E+00
  8.00000000E-01  8.00000000E-01  1.50000000E+00  8.00000000E-01  8.00000000E-01
  1.50000000E+00  8.00000000E-01  8.00000000E-01  1.50000000E+00  8.00000000E-01
  8.00000000E-01  1.50000000E+00  8.00000000E-01  8.00000000E-01  1.50000000E+00
  8.00000000E-01  8.00000000E-01  1.50000000E+00  8.00000000E-01  8.00000000E-01
  1.50000000E+00  8.00000000E-01  8.00000000E-01  1.50000000E+00  8.00000000E-01
  8.00000000E-01  1.50000000E+00  8.00000000E-01  8.00000000E-01  1.50000000E+00
  8.00000000E-01  8.00000000E-01  1.50000000E+00  8.00000000E-01  8.00000000E-01
  1.50000000E+00  8.00000000E-01  8.00000000E-01  1.50000000E+00  8.00000000E-01
  8.00000000E-01  1.50000000E+00  8.00000000E-01  8.00000000E-01  1.50000000E+00
  8.00000000E-01  8.00000000E-01  1.50000000E+00  8.00000000E-01  8.00000000E-01
  1.50000000E+00  8.00000000E-01  8.00000000E-01  1.50000000E+00  8.00000000E-01
  8.00000000E-01  1.50000000E+00  8.00000000E-01  8.00000000E-01  1.50000000E+00
  8.00000000E-01  8.00000000E-01  1.50000000E+00  8.00000000E-01  8.00000000E-01
  1.50000000E+00  8.00000000E-01  8.00000000E-01  1.50000000E+00  8.00000000E-01
  8.00000000E-01  1.50000000E+00  8.00000000E-01  8.00000000E-01  1.50000000E+00
  8.00000000E-01  8.00000000E-01  1.50000000E+00  8.00000000E-01  8.00000000E-01
  1.50000000E+00  8.00000000E-01  8.00000000E-01  1.50000000E+00  8.00000000E-01
  8.00000000E-01  1.50000000E+00  8.00000000E-01  8.00000000E-01  1.50000000E+00
  8.00000000E-01  8.00000000E-01  1.50000000E+00  8.00000000E-01  8.00000000E-01
  1.50000000E+00  8.00000000E-01  8.00000000E-01  1.50000000E+00  8.00000000E-01
  8.00000000E-01  1.50000000E+00  8.00000000E-01  8.00000000E-01  1.50000000E+00
  8.00000000E-01  8.00000000E-01  1.50000000E+00  8.00000000E-01  8.00000000E-01
  1.50000000E+00  8.00000000E-01  8.00000000E-01  1.50000000E+00  8.00000000E-01
  8.00000000E-01  1.50000000E+00  8.00000000E-01  8.00000000E-01  1.50000000E+00
  8.00000000E-01  8.00000000E-01  1.50000000E+00  8.00000000E-01  8.00000000E-01
  1.50000000E+00  8.00000000E-01  8.00000000E-01  1.50000000E+00  8.00000000E-01
  8.00000000E-01  1.50000000E+00  8.00000000E-01  8.00000000E-01  1.50000000E+00
  8.00000000E-01  8.00000000E-01  1.50000000E+00  8.00000000E-01  8.00000000E-01
  1.50000000E+00  8.00000000E-01  8.00000000E-01  1.50000000E+00  8.00000000E-01
  8.00000000E-01  1.50000000E+00  8.00000000E-01  8.00000000E-01  1.50000000E+00
  8.00000000E-01  8.00000000E-01  1.50000000E+00  8.00000000E-01  8.00000000E-01
  1.50000000E+00  8.00000000E-01  8.00000000E-01  1.50000000E+00  8.00000000E-01
  8.00000000E-01  1.50000000E+00  8.00000000E-01  8.00000000E-01  1.50000000E+00
  8.00000000E-01  8.00000000E-01  1.50000000E+00  8.00000000E-01  8.00000000E-01
  1.50000000E+00  8.00000000E-01  8.00000000E-01  1.50000000E+00  8.00000000E-01
  8.00000000E-01  1.50000000E+00  8.00000000E-01  8.00000000E-01  1.50000000E+00
  8.00000000E-01  8.00000000E-01  1.50000000E+00  8.00000000E-01  8.00000000E-01
  1.50000000E+00  8.00000000E-01  8.00000000E-01  1.50000000E+00  8.00000000E-01
  8.00000000E-01  1.50000000E+00  8.00000000E-01  8.00000000E-01  1.50000000E+00
  8.00000000E-01  8.00000000E-01  1.50000000E+00  8.00000000E-01  8.00000000E-01
  1.50000000E+00  8.00000000E-01  8.00000000E-01  1.50000000E+00  8.00000000E-01
  8.00000000E-01  1.50000000E+00  8.00000000E-01  8.00000000E-01  1.50000000E+00
  8.00000000E-01  8.00000000E-01  1.50000000E+00  8.00000000E-01  8.00000000E-01
  1.50000000E+00  8.00000000E-01  8.00000000E-01  1.50000000E+00  8.00000000E-01
  8.00000000E-01  1.50000000E+00  8.00000000E-01  8.00000000E-01  1.50000000E+00
  8.00000000E-01  8.00000000E-01  1.50000000E+00  8.00000000E-01  8.00000000E-01
  1.50000000E+00  8.00000000E-01  8.00000000E-01  1.50000000E+00  8.00000000E-01
  8.00000000E-01  1.50000000E+00  8.00000000E-01  8.00000000E-01  1.50000000E+00
  8.00000000E-01  8.00000000E-01  1.50000000E+00  8.00000000E-01  8.00000000E-01
  1.50000000E+00  8.00000000E-01  8.00000000E-01  1.50000000E+00  8.00000000E-01
  8.00000000E-01  1.50000000E+00  8.00000000E-01  8.00000000E-01  1.50000000E+00
  8.00000000E-01  8.00000000E-01  1.50000000E+00  8.00000000E-01  8.00000000E-01
  1.50000000E+00  8.00000000E-01  8.00000000E-01  1.50000000E+00  8.00000000E-01
  8.00000000E-01  1.50000000E+00  8.00000000E-01  8.00000000E-01  1.50000000E+00
  8.00000000E-01  8.00000000E-01  1.50000000E+00  8.00000000E-01  8.00000000E-01
  1.50000000E+00  8.00000000E-01  8.00000000E-01  1.50000000E+00  8.00000000E-01
  8.00000000E-01  1.50000000E+00  8.00000000E-01  8.00000000E-01  1.50000000E+00
  8.00000000E-01  8.00000000E-01  1.50000000E+00  8.00000000E-01  8.00000000E-01
  1.50000000E+00  8.00000000E-01  8.00000000E-01  1.50000000E+00  8.00000000E-01
  8.00000000E-01  1.50000000E+00  8.00000000E-01  8.00000000E-01  1.50000000E+00
  8.00000000E-01  8.00000000E-01  1.50000000E+00  8.00000000E-01  8.00000000E-01
  1.50000000E+00  8.00000000E-01  8.00000000E-01  1.50000000E+00  8.00000000E-01
  8.00000000E-01  1.50000000E+00  8.00000000E-01  8.00000000E-01  1.50000000E+00
  8.00000000E-01  8.00000000E-01  1.50000000E+00  8.00000000E-01  8.00000000E-01
  1.50000000E+00  8.00000000E-01  8.00000000E-01  1.50000000E+00  8.00000000E-01
  8.00000000E-01  1.50000000E+00  8.00000000E-01  8.00000000E-01  1.50000000E+00
  8.00000000E-01  8.00000000E-01  1.50000000E+00  8.00000000E-01  8.00000000E-01
  1.50000000E+00  8.00000000E-01  8.00000000E-01  1.50000000E+00  8.00000000E-01
  8.00000000E-01  1.50000000E+00  8.00000000E-01  8.00000000E-01  1.50000000E+00
  8.00000000E-01  8.00000000E-01  1.50000000E+00  8.00000000E-01  8.00000000E-01
  1.50000000E+00  8.00000000E-01  8.00000000E-01  1.50000000E+00  8.00000000E-01
  8.00000000E-01  1.50000000E+00  8.00000000E-01  8.00000000E-01  1.50000000E+00
  8.00000000E-01  8.00000000E-01  1.50000000E+00  8.00000000E-01  8.00000000E-01
  1.50000000E+00  8.00000000E-01  8.00000000E-01  1.50000000E+00  8.00000000E-01
  8.00000000E-01  1.50000000E+00  8.00000000E-01  8.00000000E-01  1.50000000E+00
  8.00000000E-01  8.00000000E-01  1.50000000E+00  8.00000000E-01  8.00000000E-01
  1.50000000E+00  8.00000000E-01  8.00000000E-01  1.50000000E+00  8.00000000E-01
  8.00000000E-01  1.50000000E+00  8.00000000E-01  8.00000000E-01  1.50000000E+00
  8.00000000E-01  8.00000000E-01  1.50000000E+00  8.00000000E-01  8.00000000E-01
  1.50000000E+00  8.00000000E-01  8.00000000E-01  1.50000000E+00  8.00000000E-01
  8.00000000E-01  1.50000000E+00  8.00000000E-01  8.00000000E-01  1.50000000E+00
  8.00000000E-01  8.00000000E-01  1.50000000E+00  8.00000000E-01  8.00000000E-01
  1.50000000E+00  8.00000000E-01  8.00000000E-01  1.50000000E+00  8.00000000E-01
  8.00000000E-01  1.50000000E+00  8.00000000E-01  8.00000000E-01  1.50000000E+00
  8.00000000E-01  8.00000000E-01  1.50000000E+00  8.00000000E-01  8.00000000E-01
  1.50000000E+00  8.00000000E-01  8.00000000E-01  1.50000000E+00  8.00000000E-01
  8.00000000E-01  1.50000000E+00  8.00000000E-01  8.00000000E-01  1.50000000E+00
  8.00000000E-01  8.00000000E-01  1.50000000E+00  8.00000000E-01  8.00000000E-01
  1.50000000E+00  8.00000000E-01  8.00000000E-01  1.50000000E+00  8.00000000E-01
  8.00000000E-01  1.50000000E+00  8.00000000E-01  8.00000000E-01  1.50000000E+00
  8.00000000E-01  8.00000000E-01  1.50000000E+00  8.00000000E-01  8.00000000E-01
  1.50000000E+00  8.00000000E-01  8.00000000E-01  1.50000000E+00  8.00000000E-01
  8.00000000E-01  1.50000000E+00  8.00000000E-01  8.00000000E-01  1.50000000E+00
  8.00000000E-01  8.00000000E-01  1.50000000E+00  8.00000000E-01  8.00000000E-01
  1.50000000E+00  8.00000000E-01  8.00000000E-01  1.50000000E+00  8.00000000E-01
  8.00000000E-01  1.50000000E+00  8.00000000E-01  8.00000000E-01  1.50000000E+00
  8.00000000E-01  8.00000000E-01  1.50000000E+00  8.00000000E-01  8.00000000E-01
  1.50000000E+00  8.00000000E-01  8.00000000E-01  1.50000000E+00  8.00000000E-01
  8.00000000E-01  1.50000000E+00  8.00000000E-01  8.00000000E-01  1.50000000E+00
  8.00000000E-01  8.00000000E-01  1.50000000E+00  8.00000000E-01  8.00000000E-01
  1.50000000E+00  8.00000000E-01  8.00000000E-01  1.50000000E+00  8.00000000E-01
  8.00000000E-01  1.50000000E+00  8.00000000E-01  8.00000000E-01  1.50000000E+00
  8.00000000E-01  8.00000000E-01  1.50000000E+00  8.00000000E-01  8.00000000E-01
  1.50000000E+00  8.00000000E-01  8.00000000E-01  1.50000000E+00  8.00000000E-01
  8.00000000E-01  1.50000000E+00  8.00000000E-01  8.00000000E-01  1.50000000E+00
  8.00000000E-01  8.00000000E-01  1.50000000E+00  8.00000000E-01  8.00000000E-01
  1.50000000E+00  8.00000000E-01  8.00000000E-01  1.50000000E+00  8.00000000E-01
  8.00000000E-01  1.50000000E+00  8.00000000E-01  8.00000000E-01  1.50000000E+00
  8.00000000E-01  8.00000000E-01  1.50000000E+00  8.00000000E-01  8.00000000E-01
  1.50000000E+00  8.00000000E-01  8.00000000E-01  1.50000000E+00  8.00000000E-01
  8.00000000E-01  1.50000000E+00  8.00000000E-01  8.00000000E-01  1.50000000E+00
  8.00000000E-01  8.00000000E-01  1.50000000E+00  8.00000000E-01  8.00000000E-01
  1.50000000E+00  8.00000000E-01  8.00000000E-01  1.50000000E+00  8.00000000E-01
  8.00000000E-01  1.50000000E+00  8.00000000E-01  8.00000000E-01  1.50000000E+00
  8.00000000E-01  8.00000000E-01  1.50000000E+00  8.00000000E-01  8.00000000E-01
  1.50000000E+00  8.00000000E-01  8.00000000E-01  1.50000000E+00  8.00000000E-01
  8.00000000E-01  1.50000000E+00  8.00000000E-01  8.00000000E-01  1.50000000E+00
  8.00000000E-01  8.00000000E-01  1.50000000E+00  8.00000000E-01  8.00000000E-01
  1.50000000E+00  8.00000000E-01  8.00000000E-01  1.50000000E+00  8.00000000E-01
  8.00000000E-01  1.50000000E+00  8.00000000E-01  8.00000000E-01  1.50000000E+00
  8.00000000E-01  8.00000000E-01  1.50000000E+00  8.00000000E-01  8.00000000E-01
  1.50000000E+00  8.00000000E-01  8.00000000E-01  1.50000000E+00  8.00000000E-01
  8.00000000E-01  1.50000000E+00  8.00000000E-01  8.00000000E-01  1.50000000E+00
  8.00000000E-01  8.00000000E-01  1.50000000E+00  8.00000000E-01  8.00000000E-01
  1.50000000E+00  8.00000000E-01  8.00000000E-01  1.50000000E+00  8.00000000E-01
  8.00000000E-01  1.50000000E+00  8.00000000E-01  8.00000000E-01  1.50000000E+00
  8.00000000E-01  8.00000000E-01  1.50000000E+00  8.00000000E-01  8.00000000E-01
  1.50000000E+00  8.00000000E-01  8.00000000E-01  1.50000000E+00  8.00000000E-01
  8.00000000E-01  1.50000000E+00  8.00000000E-01  8.00000000E-01  1.50000000E+00
  8.00000000E-01  8.00000000E-01  1.50000000E+00  8.00000000E-01  8.00000000E-01
  1.50000000E+00  8.00000000E-01  8.00000000E-01  1.50000000E+00  8.00000000E-01
  8.00000000E-01  1.50000000E+00  8.00000000E-01  8.00000000E-01  1.50000000E+00
  8.00000000E-01  8.00000000E-01  1.50000000E+00  8.00000000E-01  8.00000000E-01
  1.50000000E+00  8.00000000E-01  8.00000000E-01  1.50000000E+00  8.00000000E-01
  8.00000000E-01  1.50000000E+00  8.00000000E-01  8.00000000E-01  1.50000000E+00
  8.00000000E-01  8.00000000E-01  1.50000000E+00  8.00000000E-01  8.00000000E-01
  1.50000000E+00  8.00000000E-01  8.00000000E-01  1.50000000E+00  8.00000000E-01
  8.00000000E-01  1.50000000E+00  8.00000000E-01  8.00000000E-01  1.50000000E+00
  8.00000000E-01  8.00000000E-01  1.50000000E+00  8.00000000E-01  8.00000000E-01
  1.50000000E+00  8.00000000E-01  8.00000000E-01  1.50000000E+00  8.00000000E-01
  8.00000000E-01  1.50000000E+00  8.00000000E-01  8.00000000E-01  1.50000000E+00
  8.00000000E-01  8.00000000E-01  1.50000000E+00  8.00000000E-01  8.00000000E-01
  1.50000000E+00  8.00000000E-01  8.00000000E-01  1.50000000E+00  8.00000000E-01
  8.00000000E-01  1.50000000E+00  8.00000000E-01  8.00000000E-01  1.50000000E+00
  8.00000000E-01  8.00000000E-01  1.50000000E+00  8.00000000E-01  8.00000000E-01
  1.50000000E+00  8.00000000E-01  8.00000000E-01  1.50000000E+00  8.00000000E-01
  8.00000000E-01  1.50000000E+00  8.00000000E-01  8.00000000E-01  1.50000000E+00
  8.00000000E-01  8.00000000E-01  1.50000000E+00  8.00000000E-01  8.00000000E-01
  1.50000000E+00  8.00000000E-01  8.00000000E-01  1.50000000E+00  8.00000000E-01
  8.00000000E-01  1.50000000E+00  8.00000000E-01  8.00000000E-01  1.50000000E+00
  8.00000000E-01  8.00000000E-01  1.50000000E+00  8.00000000E-01  8.00000000E-01
  1.50000000E+00  8.00000000E-01  8.00000000E-01  1.50000000E+00  8.00000000E-01
  8.00000000E-01  1.50000000E+00  8.00000000E-01  8.00000000E-01  1.50000000E+00
  8.00000000E-01  8.00000000E-01  1.50000000E+00  8.00000000E-01  8.00000000E-01
  1.50000000E+00  8.00000000E-01  8.00000000E-01  1.50000000E+00  8.00000000E-01
  8.00000000E-01  1.50000000E+00  8.00000000E-01  8.00000000E-01  1.50000000E+00
  8.00000000E-01  8.00000000E-01  1.50000000E+00  8.00000000E-01  8.00000000E-01
  1.50000000E+00  8.00000000E-01  8.00000000E-01  1.50000000E+00  8.00000000E-01
  8.00000000E-01  1.50000000E+00  8.00000000E-01  8.00000000E-01  1.50000000E+00
  8.00000000E-01  8.00000000E-01  1.50000000E+00  8.00000000E-01  8.00000000E-01
  1.50000000E+00  8.00000000E-01  8.00000000E-01  1.50000000E+00  8.00000000E-01
  8.00000000E-01  1.50000000E+00  8.00000000E-01  8.00000000E-01  1.50000000E+00
  8.00000000E-01  8.00000000E-01  1.50000000E+00  8.00000000E-01  8.00000000E-01
  1.50000000E+00  8.00000000E-01  8.00000000E-01  1.50000000E+00  8.00000000E-01
  8.00000000E-01  1.50000000E+00  8.00000000E-01  8.00000000E-01  1.50000000E+00
  8.00000000E-01  8.00000000E-01  1.50000000E+00  8.00000000E-01  8.00000000E-01
  1.50000000E+00  8.00000000E-01  8.00000000E-01  1.50000000E+00  8.00000000E-01
  8.00000000E-01  1.50000000E+00  8.00000000E-01  8.00000000E-01  1.50000000E+00
  8.00000000E-01  8.00000000E-01  1.50000000E+00  8.00000000E-01  8.00000000E-01
  1.50000000E+00  8.00000000E-01  8.00000000E-01  1.50000000E+00  8.00000000E-01
  8.00000000E-01  1.50000000E+00  8.00000000E-01  8.00000000E-01  1.50000000E+00
  8.00000000E-01  8.00000000E-01  1.50000000E+00  8.00000000E-01  8.00000000E-01
  1.50000000E+00  8.00000000E-01  8.00000000E-01  1.50000000E+00  8.00000000E-01
  8.00000000E-01  1.50000000E+00  8.00000000E-01  8.00000000E-01  1.50000000E+00
  8.00000000E-01  8.00000000E-01  1.50000000E+00  8.00000000E-01  8.00000000E-01
  1.50000000E+00  8.00000000E-01  8.00000000E-01  1.50000000E+00  8.00000000E-01
  8.00000000E-01  1.50000000E+00  8.00000000E-01  8.00000000E-01  1.50000000E+00
  8.00000000E-01  8.00000000E-01  1.50000000E+00  8.00000000E-01  8.00000000E-01
  1.50000000E+00  8.00000000E-01  8.00000000E-01  1.50000000E+00  8.00000000E-01
  8.00000000E-01  1.50000000E+00  8.00000000E-01  8.00000000E-01  1.50000000E+00
  8.00000000E-01  8.00000000E-01  1.50000000E+00  8.00000000E-01  8.00000000E-01
  1.50000000E+00  8.00000000E-01  8.00000000E-01  1.50000000E+00  8.00000000E-01
  8.00000000E-01  1.50000000E+00  8.00000000E-01  8.00000000E-01  1.50000000E+00
  8.00000000E-01  8.00000000E-01  1.50000000E+00  8.00000000E-01  8.00000000E-01
  1.50000000E+00  8.00000000E-01  8.00000000E-01  1.50000000E+00  8.00000000E-01
  8.00000000E-01  1.50000000E+00  8.00000000E-01  8.00000000E-01  1.50000000E+00
  8.00000000E-01  8.00000000E-01  1.50000000E+00  8.00000000E-01  8.00000000E-01
  1.50000000E+00  8.00000000E-01  8.00000000E-01  1.50000000E+00  8.00000000E-01
  8.00000000E-01  1.50000000E+00  8.00000000E-01  8.00000000E-01  1.50000000E+00
  8.00000000E-01  8.00000000E-01  1.50000000E+00  8.00000000E-01  8.00000000E-01
  1.50000000E+00  8.00000000E-01  8.00000000E-01  1.50000000E+00  8.00000000E-01
  8.00000000E-01  1.50000000E+00  8.00000000E-01  8.00000000E-01  1.50000000E+00
  8.00000000E-01  8.00000000E-01  1.50000000E+00  8.00000000E-01  8.00000000E-01
  1.50000000E+00  8.00000000E-01  8.00000000E-01  1.50000000E+00  8.00000000E-01
  8.00000000E-01  1.50000000E+00  8.00000000E-01  8.00000000E-01  1.50000000E+00
  8.00000000E-01  8.00000000E-01  1.50000000E+00  8.00000000E-01  8.00000000E-01
  1.50000000E+00  8.00000000E-01  8.00000000E-01  1.50000000E+00  8.00000000E-01
  8.00000000E-01  1.50000000E+00  8.00000000E-01  8.00000000E-01  1.50000000E+00
  8.00000000E-01  8.00000000E-01  1.50000000E+00  8.00000000E-01  8.00000000E-01
  1.50000000E+00  8.00000000E-01  8.00000000E-01  1.50000000E+00  8.00000000E-01
  8.00000000E-01  1.50000000E+00  8.00000000E-01  8.00000000E-01  1.50000000E+00
  8.00000000E-01  8.00000000E-01  1.50000000E+00  8.00000000E-01  8.00000000E-01
  1.50000000E+00  8.00000000E-01  8.00000000E-01  1.50000000E+00  8.00000000E-01
  8.00000000E-01  1.50000000E+00  8.00000000E-01  8.00000000E-01  1.50000000E+00
  8.00000000E-01  8.00000000E-01  1.50000000E+00  8.00000000E-01  8.00000000E-01
  1.50000000E+00  8.00000000E-01  8.00000000E-01  1.50000000E+00  8.00000000E-01
  8.00000000E-01  1.50000000E+00  8.00000000E-01  8.00000000E-01  1.50000000E+00
  8.00000000E-01  8.00000000E-01  1.50000000E+00  8.00000000E-01  8.00000000E-01
  1.50000000E+00  8.00000000E-01  8.00000000E-01  1.50000000E+00  8.00000000E-01
  8.00000000E-01  1.50000000E+00  8.00000000E-01  8.00000000E-01  1.50000000E+00
  8.00000000E-01  8.00000000E-01  1.50000000E+00  8.00000000E-01  8.00000000E-01
  1.50000000E+00  8.00000000E-01  8.00000000E-01  1.50000000E+00  8.00000000E-01
  8.00000000E-01  1.50000000E+00  8.00000000E-01  8.00000000E-01  1.50000000E+00
  8.00000000E-01  8.00000000E-01  1.50000000E+00  8.00000000E-01  8.00000000E-01
  1.50000000E+00  8.00000000E-01  8.00000000E-01  1.50000000E+00  8.00000000E-01
  8.00000000E-01  1.50000000E+00  8.00000000E-01  8.00000000E-01  1.50000000E+00
  8.00000000E-01  8.00000000E-01  1.50000000E+00  8.00000000E-01  8.00000000E-01
  1.50000000E+00  8.00000000E-01  8.00000000E-01  1.50000000E+00  8.00000000E-01
  8.00000000E-01  1.50000000E+00  8.00000000E-01  8.00000000E-01  1.50000000E+00
  8.00000000E-01  8.00000000E-01  1.50000000E+00  8.00000000E-01  8.00000000E-01
  1.50000000E+00  8.00000000E-01  8.00000000E-01  1.50000000E+00  8.00000000E-01
  8.00000000E-01  1.50000000E+00  8.00000000E-01  8.00000000E-01  1.50000000E+00
  8.00000000E-01  8.00000000E-01  1.50000000E+00  8.00000000E-01  8.00000000E-01
  1.50000000E+00  8.00000000E-01  8.00000000E-01  1.50000000E+00  8.00000000E-01
  8.00000000E-01  1.50000000E+00  8.00000000E-01  8.00000000E-01  1.50000000E+00
  8.00000000E-01  8.00000000E-01  1.50000000E+00  8.00000000E-01  8.00000000E-01
  1.50000000E+00  8.00000000E-01  8.00000000E-01  1.50000000E+00  8.00000000E-01
  8.00000000E-01  1.50000000E+00  8.00000000E-01  8.00000000E-01  1.50000000E+00
  8.00000000E-01  8.00000000E-01  1.50000000E+00  8.00000000E-01  8.00000000E-01
  1.50000000E+00  8.00000000E-01  8.00000000E-01  1.50000000E+00  8.00000000E-01
  8.00000000E-01  1.50000000E+00  8.00000000E-01  8.00000000E-01  1.50000000E+00
  8.00000000E-01  8.00000000E-01  1.50000000E+00  8.00000000E-01  8.00000000E-01
  1.50000000E+00  8.00000000E-01  8.00000000E-01  1.50000000E+00  8.00000000E-01
  8.00000000E-01  1.50000000E+00  8.00000000E-01  8.00000000E-01  1.50000000E+00
  8.00000000E-01  8.00000000E-01  1.50000000E+00  8.00000000E-01  8.00000000E-01
  1.50000000E+00  8.00000000E-01  8.00000000E-01  1.50000000E+00  8.00000000E-01
  8.00000000E-01  1.50000000E+00  8.00000000E-01  8.00000000E-01  1.50000000E+00
  8.00000000E-01  8.00000000E-01  1.50000000E+00  8.00000000E-01  8.00000000E-01
  1.50000000E+00  8.00000000E-01  8.00000000E-01  1.50000000E+00  8.00000000E-01
  8.00000000E-01  1.50000000E+00  8.00000000E-01  8.00000000E-01  1.50000000E+00
  8.00000000E-01  8.00000000E-01  1.50000000E+00  8.00000000E-01  8.00000000E-01
  1.50000000E+00  8.00000000E-01  8.00000000E-01  1.50000000E+00  8.00000000E-01
  8.00000000E-01  1.50000000E+00  8.00000000E-01  8.00000000E-01  1.50000000E+00
  8.00000000E-01  8.00000000E-01  1.50000000E+00  8.00000000E-01  8.00000000E-01
  1.50000000E+00  8.00000000E-01  8.00000000E-01  1.50000000E+00  8.00000000E-01
  8.00000000E-01  1.50000000E+00  8.00000000E-01  8.00000000E-01  1.50000000E+00
  8.00000000E-01  8.00000000E-01  1.50000000E+00  8.00000000E-01  8.00000000E-01
  1.50000000E+00  8.00000000E-01  8.00000000E-01  1.50000000E+00  8.00000000E-01
  8.00000000E-01  1.50000000E+00  8.00000000E-01  8.00000000E-01  1.50000000E+00
  8.00000000E-01  8.00000000E-01  1.50000000E+00  8.00000000E-01  8.00000000E-01
  1.50000000E+00  8.00000000E-01  8.00000000E-01  1.50000000E+00  8.00000000E-01
  8.00000000E-01  1.50000000E+00  8.00000000E-01  8.00000000E-01  1.50000000E+00
  8.00000000E-01  8.00000000E-01  1.50000000E+00  8.00000000E-01  8.00000000E-01
  1.50000000E+00  8.00000000E-01  8.00000000E-01  1.50000000E+00  8.00000000E-01
  8.00000000E-01  1.50000000E+00  8.00000000E-01  8.00000000E-01  1.50000000E+00
  8.00000000E-01  8.00000000E-01  1.50000000E+00  8.00000000E-01  8.00000000E-01
  1.50000000E+00  8.00000000E-01  8.00000000E-01  1.50000000E+00  8.00000000E-01
  8.00000000E-01  1.50000000E+00  8.00000000E-01  8.00000000E-01  1.50000000E+00
  8.00000000E-01  8.00000000E-01  1.50000000E+00  8.00000000E-01  8.00000000E-01
  1.50000000E+00  8.00000000E-01  8.00000000E-01  1.50000000E+00  8.00000000E-01
  8.00000000E-01  1.50000000E+00  8.00000000E-01  8.00000000E-01  1.50000000E+00
  8.00000000E-01  8.00000000E-01  1.50000000E+00  8.00000000E-01  8.00000000E-01
  1.50000000E+00  8.00000000E-01  8.00000000E-01  1.50000000E+00  8.00000000E-01
  8.00000000E-01  1.50000000E+00  8.00000000E-01  8.00000000E-01  1.50000000E+00
  8.00000000E-01  8.00000000E-01  1.50000000E+00  8.00000000E-01  8.00000000E-01
  1.50000000E+00  8.00000000E-01  8.00000000E-01  1.50000000E+00  8.00000000E-01
  8.00000000E-01  1.50000000E+00  8.00000000E-01  8.00000000E-01  1.50000000E+00
  8.00000000E-01  8.00000000E-01  1.50000000E+00  8.00000000E-01  8.00000000E-01
  1.50000000E+00  8.00000000E-01  8.00000000E-01  1.50000000E+00  8.00000000E-01
  8.00000000E-01  1.50000000E+00  8.00000000E-01  8.00000000E-01  1.50000000E+00
  8.00000000E-01  8.00000000E-01  1.50000000E+00  8.00000000E-01  8.00000000E-01
  1.50000000E+00  8.00000000E-01  8.00000000E-01  1.50000000E+00  8.00000000E-01
  8.00000000E-01  1.50000000E+00  8.00000000E-01  8.00000000E-01  1.50000000E+00
  8.00000000E-01  8.00000000E-01  1.50000000E+00  8.00000000E-01  8.00000000E-01
  1.50000000E+00  8.00000000E-01  8.00000000E-01  1.50000000E+00  8.00000000E-01
  8.00000000E-01  1.50000000E+00  8.00000000E-01  8.00000000E-01  1.50000000E+00
  8.00000000E-01  8.00000000E-01  1.50000000E+00  8.00000000E-01  8.00000000E-01
  1.50000000E+00  8.00000000E-01  8.00000000E-01  1.50000000E+00  8.00000000E-01
  8.00000000E-01  1.50000000E+00  8.00000000E-01  8.00000000E-01  1.50000000E+00
  8.00000000E-01  8.00000000E-01  1.50000000E+00  8.00000000E-01  8.00000000E-01
  1.50000000E+00  8.00000000E-01  8.00000000E-01  1.50000000E+00  8.00000000E-01
  8.00000000E-01  1.50000000E+00  8.00000000E-01  8.00000000E-01  1.50000000E+00
  8.00000000E-01  8.00000000E-01  1.50000000E+00  8.00000000E-01  8.00000000E-01
  1.50000000E+00  8.00000000E-01  8.00000000E-01  1.50000000E+00  8.00000000E-01
  8.00000000E-01  1.50000000E+00  8.00000000E-01  8.00000000E-01  1.50000000E+00
  8.00000000E-01  8.00000000E-01  1.50000000E+00  8.00000000E-01  8.00000000E-01
  1.50000000E+00  8.00000000E-01  8.00000000E-01  1.50000000E+00  8.00000000E-01
  8.00000000E-01  1.50000000E+00  8.00000000E-01  8.00000000E-01  1.50000000E+00
  8.00000000E-01  8.00000000E-01  1.50000000E+00  8.00000000E-01  8.00000000E-01
  1.50000000E+00  8.00000000E-01  8.00000000E-01  1.50000000E+00  8.00000000E-01
  8.00000000E-01  1.50000000E+00  8.00000000E-01  8.00000000E-01  1.50000000E+00
  8.00000000E-01  8.00000000E-01  1.50000000E+00  8.00000000E-01  8.00000000E-01
  1.50000000E+00  8.00000000E-01  8.00000000E-01  1.50000000E+00  8.00000000E-01
  8.00000000E-01  1.50000000E+00  8.00000000E-01  8.00000000E-01  1.50000000E+00
  8.00000000E-01  8.00000000E-01  1.50000000E+00  8.00000000E-01  8.00000000E-01
  1.50000000E+00  8.00000000E-01  8.00000000E-01  1.50000000E+00  8.00000000E-01
  8.00000000E-01  1.50000000E+00  8.00000000E-01  8.00000000E-01  1.50000000E+00
  8.00000000E-01  8.00000000E-01  1.50000000E+00  8.00000000E-01  8.00000000E-01
  1.50000000E+00  8.00000000E-01  8.00000000E-01  1.50000000E+00  8.00000000E-01
  8.00000000E-01  1.50000000E+00  8.00000000E-01  8.00000000E-01  1.50000000E+00
  8.00000000E-01  8.00000000E-01  1.50000000E+00  8.00000000E-01  8.00000000E-01
  1.50000000E+00  8.00000000E-01  8.00000000E-01  1.50000000E+00  8.00000000E-01
  8.00000000E-01  1.50000000E+00  8.00000000E-01  8.00000000E-01  1.50000000E+00
  8.00000000E-01  8.00000000E-01  1.50000000E+00  8.00000000E-01  8.00000000E-01
  1.50000000E+00  8.00000000E-01  8.00000000E-01  1.50000000E+00  8.00000000E-01
  8.00000000E-01  1.50000000E+00  8.00000000E-01  8.00000000E-01  1.50000000E+00
  8.00000000E-01  8.00000000E-01  1.50000000E+00  8.00000000E-01  8.00000000E-01
  1.50000000E+00  8.00000000E-01  8.00000000E-01  1.50000000E+00  8.00000000E-01
  8.00000000E-01  1.50000000E+00  8.00000000E-01  8.00000000E-01  1.50000000E+00
  8.00000000E-01  8.00000000E-01  1.50000000E+00  8.00000000E-01  8.00000000E-01
  1.50000000E+00  8.00000000E-01  8.00000000E-01  1.50000000E+00  8.00000000E-01
  8.00000000E-01  1.50000000E+00  8.00000000E-01  8.00000000E-01  1.50000000E+00
  8.00000000E-01  8.00000000E-01  1.50000000E+00  8.00000000E-01  8.00000000E-01
  1.50000000E+00  8.00000000E-01  8.00000000E-01  1.50000000E+00  8.00000000E-01
  8.00000000E-01  1.50000000E+00  8.00000000E-01  8.00000000E-01  1.50000000E+00
  8.00000000E-01  8.00000000E-01  1.50000000E+00  8.00000000E-01  8.00000000E-01
  1.50000000E+00  8.00000000E-01  8.00000000E-01  1.50000000E+00  8.00000000E-01
  8.00000000E-01  1.50000000E+00  8.00000000E-01  8.00000000E-01  1.50000000E+00
  8.00000000E-01  8.00000000E-01  1.50000000E+00  8.00000000E-01  8.00000000E-01
  1.50000000E+00  8.00000000E-01  8.00000000E-01  1.50000000E+00  8.00000000E-01
  8.00000000E-01  1.50000000E+00  8.00000000E-01  8.00000000E-01  1.50000000E+00
  8.00000000E-01  8.00000000E-01  1.50000000E+00  8.00000000E-01  8.00000000E-01
  1.50000000E+00  8.00000000E-01  8.00000000E-01  1.50000000E+00  8.00000000E-01
  8.00000000E-01  1.50000000E+00  8.00000000E-01  8.00000000E-01  1.50000000E+00
  8.00000000E-01  8.00000000E-01  1.50000000E+00  8.00000000E-01  8.00000000E-01
  1.50000000E+00  8.00000000E-01  8.00000000E-01  1.50000000E+00  8.00000000E-01
  8.00000000E-01  1.50000000E+00  8.00000000E-01  8.00000000E-01  1.50000000E+00
  8.00000000E-01  8.00000000E-01  1.50000000E+00  8.00000000E-01  8.00000000E-01
  1.50000000E+00  8.00000000E-01  8.00000000E-01  1.50000000E+00  8.00000000E-01
  8.00000000E-01  1.50000000E+00  8.00000000E-01  8.00000000E-01  1.50000000E+00
  8.00000000E-01  8.00000000E-01  1.50000000E+00  8.00000000E-01  8.00000000E-01
  1.50000000E+00  8.00000000E-01  8.00000000E-01  1.50000000E+00  8.00000000E-01
  8.00000000E-01  1.50000000E+00  8.00000000E-01  8.00000000E-01  1.50000000E+00
  8.00000000E-01  8.00000000E-01  1.50000000E+00  8.00000000E-01  8.00000000E-01
  1.50000000E+00  8.00000000E-01  8.00000000E-01  1.50000000E+00  8.00000000E-01
  8.00000000E-01  1.50000000E+00  8.00000000E-01  8.00000000E-01  1.50000000E+00
  8.00000000E-01  8.00000000E-01  1.50000000E+00  8.00000000E-01  8.00000000E-01
  1.50000000E+00  8.00000000E-01  8.00000000E-01  1.50000000E+00  8.00000000E-01
  8.00000000E-01  1.50000000E+00  8.00000000E-01  8.00000000E-01  1.50000000E+00
  8.00000000E-01  8.00000000E-01  1.50000000E+00  8.00000000E-01  8.00000000E-01
  1.50000000E+00  8.00000000E-01  8.00000000E-01  1.50000000E+00  8.00000000E-01
  8.00000000E-01  1.50000000E+00  8.00000000E-01  8.00000000E-01  1.50000000E+00
  8.00000000E-01  8.00000000E-01  1.50000000E+00  8.00000000E-01  8.00000000E-01
  1.50000000E+00  8.00000000E-01  8.00000000E-01  1.50000000E+00  8.00000000E-01
  8.00000000E-01  1.50000000E+00  8.00000000E-01  8.00000000E-01  1.50000000E+00
  8.00000000E-01  8.00000000E-01  1.50000000E+00  8.00000000E-01  8.00000000E-01
  1.50000000E+00  8.00000000E-01  8.00000000E-01  1.50000000E+00  8.00000000E-01
  8.00000000E-01  1.50000000E+00  8.00000000E-01  8.00000000E-01  1.50000000E+00
  8.00000000E-01  8.00000000E-01  1.50000000E+00  8.00000000E-01  8.00000000E-01
  1.50000000E+00  8.00000000E-01  8.00000000E-01  1.50000000E+00  8.00000000E-01
  8.00000000E-01  1.50000000E+00  8.00000000E-01  8.00000000E-01  1.50000000E+00
  8.00000000E-01  8.00000000E-01  1.50000000E+00  8.00000000E-01  8.00000000E-01
  1.50000000E+00  8.00000000E-01  8.00000000E-01  1.50000000E+00  8.00000000E-01
  8.00000000E-01  1.50000000E+00  8.00000000E-01  8.00000000E-01  1.50000000E+00
  8.00000000E-01  8.00000000E-01  1.50000000E+00  8.00000000E-01  8.00000000E-01
  1.50000000E+00  8.00000000E-01  8.00000000E-01  1.50000000E+00  8.00000000E-01
  8.00000000E-01  1.50000000E+00  8.00000000E-01  8.00000000E-01  1.50000000E+00
  8.00000000E-01  8.00000000E-01  1.50000000E+00  8.00000000E-01  8.00000000E-01
  1.50000000E+00  8.00000000E-01  8.00000000E-01  1.50000000E+00  8.00000000E-01
  8.00000000E-01  1.50000000E+00  8.00000000E-01  8.00000000E-01  1.50000000E+00
  8.00000000E-01  8.00000000E-01  1.50000000E+00  8.00000000E-01  8.00000000E-01
  1.50000000E+00  8.00000000E-01  8.00000000E-01  1.50000000E+00  8.00000000E-01
  8.00000000E-01  1.50000000E+00  8.00000000E-01  8.00000000E-01  1.50000000E+00
  8.00000000E-01  8.00000000E-01  1.50000000E+00  8.00000000E-01  8.00000000E-01
  1.50000000E+00  8.00000000E-01  8.00000000E-01  1.50000000E+00  8.00000000E-01
  8.00000000E-01  1.50000000E+00  8.00000000E-01  8.00000000E-01  1.50000000E+00
  8.00000000E-01  8.00000000E-01  1.50000000E+00  8.00000000E-01  8.00000000E-01
  1.50000000E+00  8.00000000E-01  8.00000000E-01  1.50000000E+00  8.00000000E-01
  8.00000000E-01  1.50000000E+00  8.00000000E-01  8.00000000E-01  1.50000000E+00
  8.00000000E-01  8.00000000E-01  1.50000000E+00  8.00000000E-01  8.00000000E-01
  1.50000000E+00  8.00000000E-01  8.00000000E-01  1.50000000E+00  8.00000000E-01
  8.00000000E-01  1.50000000E+00  8.00000000E-01  8.00000000E-01  1.50000000E+00
  8.00000000E-01  8.00000000E-01  1.50000000E+00  8.00000000E-01  8.00000000E-01
  1.50000000E+00  8.00000000E-01  8.00000000E-01  1.50000000E+00  8.00000000E-01
  8.00000000E-01  1.50000000E+00  8.00000000E-01  8.00000000E-01  1.50000000E+00
  8.00000000E-01  8.00000000E-01  1.50000000E+00  8.00000000E-01  8.00000000E-01
  1.50000000E+00  8.00000000E-01  8.00000000E-01  1.50000000E+00  8.00000000E-01
  8.00000000E-01  1.50000000E+00  8.00000000E-01  8.00000000E-01  1.50000000E+00
  8.00000000E-01  8.00000000E-01  1.50000000E+00  8.00000000E-01  8.00000000E-01
  1.50000000E+00  8.00000000E-01  8.00000000E-01  1.50000000E+00  8.00000000E-01
  8.00000000E-01  1.50000000E+00  8.00000000E-01  8.00000000E-01  1.50000000E+00
  8.00000000E-01  8.00000000E-01  1.50000000E+00  8.00000000E-01  8.00000000E-01
  1.50000000E+00  8.00000000E-01  8.00000000E-01  1.50000000E+00  8.00000000E-01
  8.00000000E-01  1.50000000E+00  8.00000000E-01  8.00000000E-01  1.50000000E+00
  8.00000000E-01  8.00000000E-01  1.50000000E+00  8.00000000E-01  8.00000000E-01
  1.50000000E+00  8.00000000E-01  8.00000000E-01  1.50000000E+00  8.00000000E-01
  8.00000000E-01  1.50000000E+00  8.00000000E-01  8.00000000E-01  1.50000000E+00
  8.00000000E-01  8.00000000E-01  1.50000000E+00  8.00000000E-01  8.00000000E-01
  1.50000000E+00  8.00000000E-01  8.00000000E-01  1.50000000E+00  8.00000000E-01
  8.00000000E-01  1.50000000E+00  8.00000000E-01  8.00000000E-01  1.50000000E+00
  8.00000000E-01  8.00000000E-01  1.50000000E+00  8.00000000E-01  8.00000000E-01
  1.50000000E+00  8.00000000E-01  8.00000000E-01  1.50000000E+00  8.00000000E-01
  8.00000000E-01  1.50000000E+00  8.00000000E-01  8.00000000E-01  1.50000000E+00
  8.00000000E-01  8.00000000E-01  1.50000000E+00  8.00000000E-01  8.00000000E-01
  1.50000000E+00  8.00000000E-01  8.00000000E-01  1.50000000E+00  8.00000000E-01
  8.00000000E-01  1.50000000E+00  8.00000000E-01  8.00000000E-01  1.50000000E+00
  8.00000000E-01  8.00000000E-01  1.50000000E+00  8.00000000E-01  8.00000000E-01
  1.50000000E+00  8.00000000E-01  8.00000000E-01  1.50000000E+00  8.00000000E-01
  8.00000000E-01  1.50000000E+00  8.00000000E-01  8.00000000E-01  1.50000000E+00
  8.00000000E-01  8.00000000E-01  1.50000000E+00  8.00000000E-01  8.00000000E-01
  1.50000000E+00  8.00000000E-01  8.00000000E-01  1.50000000E+00  8.00000000E-01
  8.00000000E-01  1.50000000E+00  8.00000000E-01  8.00000000E-01  1.50000000E+00
  8.00000000E-01  8.00000000E-01  1.50000000E+00  8.00000000E-01  8.00000000E-01
  1.50000000E+00  8.00000000E-01  8.00000000E-01  1.50000000E+00  8.00000000E-01
  8.00000000E-01  1.50000000E+00  8.00000000E-01  8.00000000E-01  1.50000000E+00
  8.00000000E-01  8.00000000E-01  1.50000000E+00  8.00000000E-01  8.00000000E-01
  1.50000000E+00  8.00000000E-01  8.00000000E-01  1.50000000E+00  8.00000000E-01
  8.00000000E-01  1.50000000E+00  8.00000000E-01  8.00000000E-01  1.50000000E+00
  8.00000000E-01  8.00000000E-01  1.50000000E+00  8.00000000E-01  8.00000000E-01
  1.50000000E+00  8.00000000E-01  8.00000000E-01  1.50000000E+00  8.00000000E-01
  8.00000000E-01  1.50000000E+00  8.00000000E-01  8.00000000E-01  1.50000000E+00
  8.00000000E-01  8.00000000E-01  1.50000000E+00  8.00000000E-01  8.00000000E-01
  1.50000000E+00  8.00000000E-01  8.00000000E-01  1.50000000E+00  8.00000000E-01
  8.00000000E-01  1.50000000E+00  8.00000000E-01  8.00000000E-01  1.50000000E+00
  8.00000000E-01  8.00000000E-01  1.50000000E+00  8.00000000E-01  8.00000000E-01
  1.50000000E+00  8.00000000E-01  8.00000000E-01  1.50000000E+00  8.00000000E-01
  8.00000000E-01  1.50000000E+00  8.00000000E-01  8.00000000E-01  1.50000000E+00
  8.00000000E-01  8.00000000E-01  1.50000000E+00  8.00000000E-01  8.00000000E-01
  1.50000000E+00  8.00000000E-01  8.00000000E-01  1.50000000E+00  8.00000000E-01
  8.00000000E-01  1.50000000E+00  8.00000000E-01  8.00000000E-01  1.50000000E+00
  8.00000000E-01  8.00000000E-01  1.50000000E+00  8.00000000E-01  8.00000000E-01
  1.50000000E+00  8.00000000E-01  8.00000000E-01  1.50000000E+00  8.00000000E-01
  8.00000000E-01  1.50000000E+00  8.00000000E-01  8.00000000E-01  1.50000000E+00
  8.00000000E-01  8.00000000E-01  1.50000000E+00  8.00000000E-01  8.00000000E-01
  1.50000000E+00  8.00000000E-01  8.00000000E-01  1.50000000E+00  8.00000000E-01
  8.00000000E-01  1.50000000E+00  8.00000000E-01  8.00000000E-01  1.50000000E+00
  8.00000000E-01  8.00000000E-01  1.50000000E+00  8.00000000E-01  8.00000000E-01
  1.50000000E+00  8.00000000E-01  8.00000000E-01  1.50000000E+00  8.00000000E-01
  8.00000000E-01  1.50000000E+00  8.00000000E-01  8.00000000E-01  1.50000000E+00
  8.00000000E-01  8.00000000E-01  1.50000000E+00  8.00000000E-01  8.00000000E-01
  1.50000000E+00  8.00000000E-01  8.00000000E-01  1.50000000E+00  8.00000000E-01
  8.00000000E-01  1.50000000E+00  8.00000000E-01  8.00000000E-01  1.50000000E+00
  8.00000000E-01  8.00000000E-01  1.50000000E+00  8.00000000E-01  8.00000000E-01
  1.50000000E+00  8.00000000E-01  8.00000000E-01  1.50000000E+00  8.00000000E-01
  8.00000000E-01  1.50000000E+00  8.00000000E-01  8.00000000E-01  1.50000000E+00
  8.00000000E-01  8.00000000E-01  1.50000000E+00  8.00000000E-01  8.00000000E-01
  1.50000000E+00  8.00000000E-01  8.00000000E-01  1.50000000E+00  8.00000000E-01
  8.00000000E-01  1.50000000E+00  8.00000000E-01  8.00000000E-01  1.50000000E+00
  8.00000000E-01  8.00000000E-01  1.50000000E+00  8.00000000E-01  8.00000000E-01
  1.50000000E+00  8.00000000E-01  8.00000000E-01  1.50000000E+00  8.00000000E-01
  8.00000000E-01  1.50000000E+00  8.00000000E-01  8.00000000E-01  1.50000000E+00
  8.00000000E-01  8.00000000E-01  1.50000000E+00  8.00000000E-01  8.00000000E-01
  1.50000000E+00  8.00000000E-01  8.00000000E-01  1.50000000E+00  8.00000000E-01
  8.00000000E-01  1.50000000E+00  8.00000000E-01  8.00000000E-01  1.50000000E+00
  8.00000000E-01  8.00000000E-01  1.50000000E+00  8.00000000E-01  8.00000000E-01
  1.50000000E+00  8.00000000E-01  8.00000000E-01  1.50000000E+00  8.00000000E-01
  8.00000000E-01  1.50000000E+00  8.00000000E-01  8.00000000E-01  1.50000000E+00
  8.00000000E-01  8.00000000E-01  1.50000000E+00  8.00000000E-01  8.00000000E-01
  1.50000000E+00  8.00000000E-01  8.00000000E-01  1.50000000E+00  8.00000000E-01
  8.00000000E-01  1.50000000E+00  8.00000000E-01  8.00000000E-01  1.50000000E+00
  8.00000000E-01  8.00000000E-01  1.50000000E+00  8.00000000E-01  8.00000000E-01
  1.50000000E+00  8.00000000E-01  8.00000000E-01  1.50000000E+00  8.00000000E-01
  8.00000000E-01  1.50000000E+00  8.00000000E-01  8.00000000E-01  1.50000000E+00
  8.00000000E-01  8.00000000E-01  1.50000000E+00  8.00000000E-01  8.00000000E-01
  1.50000000E+00  8.00000000E-01  8.00000000E-01  1.50000000E+00  8.00000000E-01
  8.00000000E-01  1.50000000E+00  8.00000000E-01  8.00000000E-01  1.50000000E+00
  8.00000000E-01  8.00000000E-01  1.50000000E+00  8.00000000E-01  8.00000000E-01
  1.50000000E+00  8.00000000E-01  8.00000000E-01  1.50000000E+00  8.00000000E-01
  8.00000000E-01  1.50000000E+00  8.00000000E-01  8.00000000E-01  1.50000000E+00
  8.00000000E-01  8.00000000E-01  1.50000000E+00  8.00000000E-01  8.00000000E-01
  1.50000000E+00  8.00000000E-01  8.00000000E-01  1.50000000E+00  8.00000000E-01
  8.00000000E-01  1.50000000E+00  8.00000000E-01  8.00000000E-01  1.50000000E+00
  8.00000000E-01  8.00000000E-01  1.50000000E+00  8.00000000E-01  8.00000000E-01
  1.50000000E+00  8.00000000E-01  8.00000000E-01  1.50000000E+00  8.00000000E-01
  8.00000000E-01  1.50000000E+00  8.00000000E-01  8.00000000E-01  1.50000000E+00
  8.00000000E-01  8.00000000E-01  1.50000000E+00  8.00000000E-01  8.00000000E-01
  1.50000000E+00  8.00000000E-01  8.00000000E-01  1.50000000E+00  8.00000000E-01
  8.00000000E-01  1.50000000E+00  8.00000000E-01  8.00000000E-01  1.50000000E+00
  8.00000000E-01  8.00000000E-01  1.50000000E+00  8.00000000E-01  8.00000000E-01
  1.50000000E+00  8.00000000E-01  8.00000000E-01  1.50000000E+00  8.00000000E-01
  8.00000000E-01  1.50000000E+00  8.00000000E-01  8.00000000E-01  1.50000000E+00
  8.00000000E-01  8.00000000E-01  1.50000000E+00  8.00000000E-01  8.00000000E-01
  1.50000000E+00  8.00000000E-01  8.00000000E-01  1.50000000E+00  8.00000000E-01
  8.00000000E-01  1.50000000E+00  8.00000000E-01  8.00000000E-01  1.50000000E+00
  8.00000000E-01  8.00000000E-01  1.50000000E+00  8.00000000E-01  8.00000000E-01
  1.50000000E+00  8.00000000E-01  8.00000000E-01  1.50000000E+00  8.00000000E-01
  8.00000000E-01  1.50000000E+00  8.00000000E-01  8.00000000E-01  1.50000000E+00
  8.00000000E-01  8.00000000E-01  1.50000000E+00  8.00000000E-01  8.00000000E-01
  1.50000000E+00  8.00000000E-01  8.00000000E-01  1.50000000E+00  8.00000000E-01
  8.00000000E-01  1.50000000E+00  8.00000000E-01  8.00000000E-01  1.50000000E+00
  8.00000000E-01  8.00000000E-01  1.50000000E+00  8.00000000E-01  8.00000000E-01
  1.50000000E+00  8.00000000E-01  8.00000000E-01  1.50000000E+00  8.00000000E-01
  8.00000000E-01  1.50000000E+00  8.00000000E-01  8.00000000E-01  1.50000000E+00
  8.00000000E-01  8.00000000E-01  1.50000000E+00  8.00000000E-01  8.00000000E-01
  1.50000000E+00  8.00000000E-01  8.00000000E-01  1.50000000E+00  8.00000000E-01
  8.00000000E-01  1.50000000E+00  8.00000000E-01  8.00000000E-01  1.50000000E+00
  8.00000000E-01  8.00000000E-01  1.50000000E+00  8.00000000E-01  8.00000000E-01
  1.50000000E+00  8.00000000E-01  8.00000000E-01  1.50000000E+00  8.00000000E-01
  8.00000000E-01  1.50000000E+00  8.00000000E-01  8.00000000E-01  1.50000000E+00
  8.00000000E-01  8.00000000E-01  1.50000000E+00  8.00000000E-01  8.00000000E-01
  1.50000000E+00  8.00000000E-01  8.00000000E-01  1.50000000E+00  8.00000000E-01
  8.00000000E-01  1.50000000E+00  8.00000000E-01  8.00000000E-01  1.50000000E+00
  8.00000000E-01  8.00000000E-01  1.50000000E+00  8.00000000E-01  8.00000000E-01
  1.50000000E+00  8.00000000E-01  8.00000000E-01  1.50000000E+00  8.00000000E-01
  8.00000000E-01  1.50000000E+00  8.00000000E-01  8.00000000E-01  1.50000000E+00
  8.00000000E-01  8.00000000E-01  1.50000000E+00  8.00000000E-01  8.00000000E-01
  1.50000000E+00  8.00000000E-01  8.00000000E-01  1.50000000E+00  8.00000000E-01
  8.00000000E-01  1.50000000E+00  8.00000000E-01  8.00000000E-01  1.50000000E+00
  8.00000000E-01  8.00000000E-01  1.50000000E+00  8.00000000E-01  8.00000000E-01
  1.50000000E+00  8.00000000E-01  8.00000000E-01  1.50000000E+00  8.00000000E-01
  8.00000000E-01  1.50000000E+00  8.00000000E-01  8.00000000E-01  1.50000000E+00
  8.00000000E-01  8.00000000E-01  1.50000000E+00  8.00000000E-01  8.00000000E-01
  1.50000000E+00  8.00000000E-01  8.00000000E-01  1.50000000E+00  8.00000000E-01
  8.00000000E-01  1.50000000E+00  8.00000000E-01  8.00000000E-01  1.50000000E+00
  8.00000000E-01  8.00000000E-01  1.50000000E+00  8.00000000E-01  8.00000000E-01
  1.50000000E+00  8.00000000E-01  8.00000000E-01  1.50000000E+00  8.00000000E-01
  8.00000000E-01  1.50000000E+00  8.00000000E-01  8.00000000E-01  1.50000000E+00
  8.00000000E-01  8.00000000E-01  1.50000000E+00  8.00000000E-01  8.00000000E-01
  1.50000000E+00  8.00000000E-01  8.00000000E-01  1.50000000E+00  8.00000000E-01
  8.00000000E-01  1.50000000E+00  8.00000000E-01  8.00000000E-01  1.50000000E+00
  8.00000000E-01  8.00000000E-01  1.50000000E+00  8.00000000E-01  8.00000000E-01
  1.50000000E+00  8.00000000E-01  8.00000000E-01  1.50000000E+00  8.00000000E-01
  8.00000000E-01  1.50000000E+00  8.00000000E-01  8.00000000E-01  1.50000000E+00
  8.00000000E-01  8.00000000E-01  1.50000000E+00  8.00000000E-01  8.00000000E-01
  1.50000000E+00  8.00000000E-01  8.00000000E-01  1.50000000E+00  8.00000000E-01
  8.00000000E-01  1.50000000E+00  8.00000000E-01  8.00000000E-01  1.50000000E+00
  8.00000000E-01  8.00000000E-01  1.50000000E+00  8.00000000E-01  8.00000000E-01
  1.50000000E+00  8.00000000E-01  8.00000000E-01  1.50000000E+00  8.00000000E-01
  8.00000000E-01  1.50000000E+00  8.00000000E-01  8.00000000E-01  1.50000000E+00
  8.00000000E-01  8.00000000E-01  1.50000000E+00  8.00000000E-01  8.00000000E-01
  1.50000000E+00  8.00000000E-01  8.00000000E-01  1.50000000E+00  8.00000000E-01
  8.00000000E-01  1.50000000E+00  8.00000000E-01  8.00000000E-01  1.50000000E+00
  8.00000000E-01  8.00000000E-01  1.50000000E+00  8.00000000E-01  8.00000000E-01
  1.50000000E+00  8.00000000E-01  8.00000000E-01  1.50000000E+00  8.00000000E-01
  8.00000000E-01  1.50000000E+00  8.00000000E-01  8.00000000E-01  1.50000000E+00
  8.00000000E-01  8.00000000E-01  1.50000000E+00  8.00000000E-01  8.00000000E-01
  1.50000000E+00  8.00000000E-01  8.00000000E-01  1.50000000E+00  8.00000000E-01
  8.00000000E-01  1.50000000E+00  8.00000000E-01  8.00000000E-01  1.50000000E+00
  8.00000000E-01  8.00000000E-01  1.50000000E+00  8.00000000E-01  8.00000000E-01
  1.50000000E+00  8.00000000E-01  8.00000000E-01  1.50000000E+00  8.00000000E-01
  8.00000000E-01  1.50000000E+00  8.00000000E-01  8.00000000E-01  1.50000000E+00
  8.00000000E-01  8.00000000E-01  1.50000000E+00  8.00000000E-01  8.00000000E-01
  1.50000000E+00  8.00000000E-01  8.00000000E-01  1.50000000E+00  8.00000000E-01
  8.00000000E-01  1.50000000E+00  8.00000000E-01  8.00000000E-01  1.50000000E+00
  8.00000000E-01  8.00000000E-01  1.50000000E+00  8.00000000E-01  8.00000000E-01
  1.50000000E+00  8.00000000E-01  8.00000000E-01  1.50000000E+00  8.00000000E-01
  8.00000000E-01  1.50000000E+00  8.00000000E-01  8.00000000E-01  1.50000000E+00
  8.00000000E-01  8.00000000E-01  1.50000000E+00  8.00000000E-01  8.00000000E-01
  1.50000000E+00  8.00000000E-01  8.00000000E-01  1.50000000E+00  8.00000000E-01
  8.00000000E-01  1.50000000E+00  8.00000000E-01  8.00000000E-01  1.50000000E+00
  8.00000000E-01  8.00000000E-01  1.50000000E+00  8.00000000E-01  8.00000000E-01
  1.50000000E+00  8.00000000E-01  8.00000000E-01  1.50000000E+00  8.00000000E-01
  8.00000000E-01  1.50000000E+00  8.00000000E-01  8.00000000E-01  1.50000000E+00
  8.00000000E-01  8.00000000E-01  1.50000000E+00  8.00000000E-01  8.00000000E-01
  1.50000000E+00  8.00000000E-01  8.00000000E-01  1.50000000E+00  8.00000000E-01
  8.00000000E-01  1.50000000E+00  8.00000000E-01  8.00000000E-01  1.50000000E+00
  8.00000000E-01  8.00000000E-01  1.50000000E+00  8.00000000E-01  8.00000000E-01
  1.50000000E+00  8.00000000E-01  8.00000000E-01  1.50000000E+00  8.00000000E-01
  8.00000000E-01  1.50000000E+00  8.00000000E-01  8.00000000E-01  1.50000000E+00
  8.00000000E-01  8.00000000E-01  1.50000000E+00  8.00000000E-01  8.00000000E-01
  1.50000000E+00  8.00000000E-01  8.00000000E-01  1.50000000E+00  8.00000000E-01
  8.00000000E-01  1.50000000E+00  8.00000000E-01  8.00000000E-01  1.50000000E+00
  8.00000000E-01  8.00000000E-01  1.50000000E+00  8.00000000E-01  8.00000000E-01
  1.50000000E+00  8.00000000E-01  8.00000000E-01  1.50000000E+00  8.00000000E-01
  8.00000000E-01  1.50000000E+00  8.00000000E-01  8.00000000E-01  1.50000000E+00
  8.00000000E-01  8.00000000E-01  1.50000000E+00  8.00000000E-01  8.00000000E-01
  1.50000000E+00  8.00000000E-01  8.00000000E-01  1.50000000E+00  8.00000000E-01
  8.00000000E-01  1.50000000E+00  8.00000000E-01  8.00000000E-01  1.50000000E+00
  8.00000000E-01  8.00000000E-01  1.50000000E+00  8.00000000E-01  8.00000000E-01
  1.50000000E+00  8.00000000E-01  8.00000000E-01  1.50000000E+00  8.00000000E-01
  8.00000000E-01  1.50000000E+00  8.00000000E-01  8.00000000E-01  1.50000000E+00
  8.00000000E-01  8.00000000E-01  1.50000000E+00  8.00000000E-01  8.00000000E-01
  1.50000000E+00  8.00000000E-01  8.00000000E-01  1.50000000E+00  8.00000000E-01
  8.00000000E-01  1.50000000E+00  8.00000000E-01  8.00000000E-01  1.50000000E+00
  8.00000000E-01  8.00000000E-01  1.50000000E+00  8.00000000E-01  8.00000000E-01
  1.50000000E+00  8.00000000E-01  8.00000000E-01  1.50000000E+00  8.00000000E-01
  8.00000000E-01  1.50000000E+00  8.00000000E-01  8.00000000E-01  1.50000000E+00
  8.00000000E-01  8.00000000E-01  1.50000000E+00  8.00000000E-01  8.00000000E-01
  1.50000000E+00  8.00000000E-01  8.00000000E-01  1.50000000E+00  8.00000000E-01
  8.00000000E-01  1.50000000E+00  8.00000000E-01  8.00000000E-01  1.50000000E+00
  8.00000000E-01  8.00000000E-01  1.50000000E+00  8.00000000E-01  8.00000000E-01
  1.50000000E+00  8.00000000E-01  8.00000000E-01  1.50000000E+00  8.00000000E-01
  8.00000000E-01  1.50000000E+00  8.00000000E-01  8.00000000E-01  1.50000000E+00
  8.00000000E-01  8.00000000E-01  1.50000000E+00  8.00000000E-01  8.00000000E-01
  1.50000000E+00  8.00000000E-01  8.00000000E-01  1.50000000E+00  8.00000000E-01
  8.00000000E-01  1.50000000E+00  8.00000000E-01  8.00000000E-01  1.50000000E+00
  8.00000000E-01  8.00000000E-01  1.50000000E+00  8.00000000E-01  8.00000000E-01
  1.50000000E+00  8.00000000E-01  8.00000000E-01  1.50000000E+00  8.00000000E-01
  8.00000000E-01  1.50000000E+00  8.00000000E-01  8.00000000E-01  1.50000000E+00
  8.00000000E-01  8.00000000E-01  1.50000000E+00  8.00000000E-01  8.00000000E-01
  1.50000000E+00  8.00000000E-01  8.00000000E-01  1.50000000E+00  8.00000000E-01
  8.00000000E-01  1.50000000E+00  8.00000000E-01  8.00000000E-01  1.50000000E+00
  8.00000000E-01  8.00000000E-01  1.50000000E+00  8.00000000E-01  8.00000000E-01
  1.50000000E+00  8.00000000E-01  8.00000000E-01  1.50000000E+00  8.00000000E-01
  8.00000000E-01  1.50000000E+00  8.00000000E-01  8.00000000E-01  1.50000000E+00
  8.00000000E-01  8.00000000E-01  1.50000000E+00  8.00000000E-01  8.00000000E-01
  1.50000000E+00  8.00000000E-01  8.00000000E-01  1.50000000E+00  8.00000000E-01
  8.00000000E-01  1.50000000E+00  8.00000000E-01  8.00000000E-01  1.50000000E+00
  8.00000000E-01  8.00000000E-01  1.50000000E+00  8.00000000E-01  8.00000000E-01
  1.50000000E+00  8.00000000E-01  8.00000000E-01  1.50000000E+00  8.00000000E-01
  8.00000000E-01  1.50000000E+00  8.00000000E-01  8.00000000E-01  1.50000000E+00
  8.00000000E-01  8.00000000E-01  1.50000000E+00  8.00000000E-01  8.00000000E-01
  1.50000000E+00  8.00000000E-01  8.00000000E-01  1.50000000E+00  8.00000000E-01
  8.00000000E-01  1.50000000E+00  8.00000000E-01  8.00000000E-01  1.50000000E+00
  8.00000000E-01  8.00000000E-01  1.50000000E+00  8.00000000E-01  8.00000000E-01
  1.50000000E+00  8.00000000E-01  8.00000000E-01  1.50000000E+00  8.00000000E-01
  8.00000000E-01  1.50000000E+00  8.00000000E-01  8.00000000E-01  1.50000000E+00
  8.00000000E-01  8.00000000E-01  1.50000000E+00  8.00000000E-01  8.00000000E-01
  1.50000000E+00  8.00000000E-01  8.00000000E-01  1.50000000E+00  8.00000000E-01
  8.00000000E-01  1.50000000E+00  8.00000000E-01  8.00000000E-01  1.50000000E+00
  8.00000000E-01  8.00000000E-01  1.50000000E+00  8.00000000E-01  8.00000000E-01
  1.50000000E+00  8.00000000E-01  8.00000000E-01  1.50000000E+00  8.00000000E-01
  8.00000000E-01  1.50000000E+00  8.00000000E-01  8.00000000E-01  1.50000000E+00
  8.00000000E-01  8.00000000E-01  1.50000000E+00  8.00000000E-01  8.00000000E-01
  1.50000000E+00  8.00000000E-01  8.00000000E-01  1.50000000E+00  8.00000000E-01
  8.00000000E-01  1.50000000E+00  8.00000000E-01  8.00000000E-01  1.50000000E+00
  8.00000000E-01  8.00000000E-01  1.50000000E+00  8.00000000E-01  8.00000000E-01
  1.50000000E+00  8.00000000E-01  8.00000000E-01  1.50000000E+00  8.00000000E-01
  8.00000000E-01  1.50000000E+00  8.00000000E-01  8.00000000E-01  1.50000000E+00
  8.00000000E-01  8.00000000E-01  1.50000000E+00  8.00000000E-01  8.00000000E-01
  1.50000000E+00  8.00000000E-01  8.00000000E-01  1.50000000E+00  8.00000000E-01
  8.00000000E-01  1.50000000E+00  8.00000000E-01  8.00000000E-01  1.50000000E+00
  8.00000000E-01  8.00000000E-01  1.50000000E+00  8.00000000E-01  8.00000000E-01
  1.50000000E+00  8.00000000E-01  8.00000000E-01  1.50000000E+00  8.00000000E-01
  8.00000000E-01  1.50000000E+00  8.00000000E-01  8.00000000E-01  1.50000000E+00
  8.00000000E-01  8.00000000E-01  1.50000000E+00  8.00000000E-01  8.00000000E-01
  1.50000000E+00  8.00000000E-01  8.00000000E-01  1.50000000E+00  8.00000000E-01
  8.00000000E-01  1.50000000E+00  8.00000000E-01  8.00000000E-01  1.50000000E+00
  8.00000000E-01  8.00000000E-01  1.50000000E+00  8.00000000E-01  8.00000000E-01
  1.50000000E+00  8.00000000E-01  8.00000000E-01  1.50000000E+00  8.00000000E-01
  8.00000000E-01  1.50000000E+00  8.00000000E-01  8.00000000E-01  1.50000000E+00
  8.00000000E-01  8.00000000E-01  1.50000000E+00  8.00000000E-01  8.00000000E-01
  1.50000000E+00  8.00000000E-01  8.00000000E-01  1.50000000E+00  8.00000000E-01
  8.00000000E-01  1.50000000E+00  8.00000000E-01  8.00000000E-01  1.50000000E+00
  8.00000000E-01  8.00000000E-01  1.50000000E+00  8.00000000E-01  8.00000000E-01
  1.50000000E+00  8.00000000E-01  8.00000000E-01  1.50000000E+00  8.00000000E-01
  8.00000000E-01  1.50000000E+00  8.00000000E-01  8.00000000E-01  1.50000000E+00
  8.00000000E-01  8.00000000E-01  1.50000000E+00  8.00000000E-01  8.00000000E-01
  1.50000000E+00  8.00000000E-01  8.00000000E-01  1.50000000E+00  8.00000000E-01
  8.00000000E-01  1.50000000E+00  8.00000000E-01  8.00000000E-01  1.50000000E+00
  8.00000000E-01  8.00000000E-01  1.50000000E+00  8.00000000E-01  8.00000000E-01
  1.50000000E+00  8.00000000E-01  8.00000000E-01  1.50000000E+00  8.00000000E-01
  8.00000000E-01  1.50000000E+00  8.00000000E-01  8.00000000E-01  1.50000000E+00
  8.00000000E-01  8.00000000E-01  1.50000000E+00  8.00000000E-01  8.00000000E-01
  1.50000000E+00  8.00000000E-01  8.00000000E-01  1.50000000E+00  8.00000000E-01
  8.00000000E-01  1.50000000E+00  8.00000000E-01  8.00000000E-01  1.50000000E+00
  8.00000000E-01  8.00000000E-01  1.50000000E+00  8.00000000E-01  8.00000000E-01
  1.50000000E+00  8.00000000E-01  8.00000000E-01  1.50000000E+00  8.00000000E-01
  8.00000000E-01  1.50000000E+00  8.00000000E-01  8.00000000E-01  1.50000000E+00
  8.00000000E-01  8.00000000E-01  1.50000000E+00  8.00000000E-01  8.00000000E-01
  1.50000000E+00  8.00000000E-01  8.00000000E-01  1.50000000E+00  8.00000000E-01
  8.00000000E-01  1.50000000E+00  8.00000000E-01  8.00000000E-01  1.50000000E+00
  8.00000000E-01  8.00000000E-01  1.50000000E+00  8.00000000E-01  8.00000000E-01
  1.50000000E+00  8.00000000E-01  8.00000000E-01  1.50000000E+00  8.00000000E-01
  8.00000000E-01  1.50000000E+00  8.00000000E-01  8.00000000E-01  1.50000000E+00
  8.00000000E-01  8.00000000E-01  1.50000000E+00  8.00000000E-01  8.00000000E-01
  1.50000000E+00  8.00000000E-01  8.00000000E-01  1.50000000E+00  8.00000000E-01
  8.00000000E-01  1.50000000E+00  8.00000000E-01  8.00000000E-01  1.50000000E+00
  8.00000000E-01  8.00000000E-01  1.50000000E+00  8.00000000E-01  8.00000000E-01
  1.50000000E+00  8.00000000E-01  8.00000000E-01  1.50000000E+00  8.00000000E-01
  8.00000000E-01  1.50000000E+00  8.00000000E-01  8.00000000E-01  1.50000000E+00
  8.00000000E-01  8.00000000E-01  1.50000000E+00  8.00000000E-01  8.00000000E-01
  1.50000000E+00  8.00000000E-01  8.00000000E-01  1.50000000E+00  8.00000000E-01
  8.00000000E-01  1.50000000E+00  8.00000000E-01  8.00000000E-01  1.50000000E+00
  8.00000000E-01  8.00000000E-01  1.50000000E+00  8.00000000E-01  8.00000000E-01
  1.50000000E+00  8.00000000E-01  8.00000000E-01  1.50000000E+00  8.00000000E-01
  8.00000000E-01  1.50000000E+00  8.00000000E-01  8.00000000E-01  1.50000000E+00
  8.00000000E-01  8.00000000E-01  1.50000000E+00  8.00000000E-01  8.00000000E-01
  1.50000000E+00  8.00000000E-01  8.00000000E-01  1.50000000E+00  8.00000000E-01
  8.00000000E-01  1.50000000E+00  8.00000000E-01  8.00000000E-01  1.50000000E+00
  8.00000000E-01  8.00000000E-01  1.50000000E+00  8.00000000E-01  8.00000000E-01
  1.50000000E+00  8.00000000E-01  8.00000000E-01  1.50000000E+00  8.00000000E-01
  8.00000000E-01  1.50000000E+00  8.00000000E-01  8.00000000E-01  1.50000000E+00
  8.00000000E-01  8.00000000E-01  1.50000000E+00  8.00000000E-01  8.00000000E-01
  1.50000000E+00  8.00000000E-01  8.00000000E-01  1.50000000E+00  8.00000000E-01
  8.00000000E-01  1.50000000E+00  8.00000000E-01  8.00000000E-01  1.50000000E+00
  8.00000000E-01  8.00000000E-01  1.50000000E+00  8.00000000E-01  8.00000000E-01
  1.50000000E+00  8.00000000E-01  8.00000000E-01  1.50000000E+00  8.00000000E-01
  8.00000000E-01  1.50000000E+00  8.00000000E-01  8.00000000E-01  1.50000000E+00
  8.00000000E-01  8.00000000E-01  1.50000000E+00  8.00000000E-01  8.00000000E-01
  1.50000000E+00  8.00000000E-01  8.00000000E-01  1.50000000E+00  8.00000000E-01
  8.00000000E-01  1.50000000E+00  8.00000000E-01  8.00000000E-01  1.50000000E+00
  8.00000000E-01  8.00000000E-01  1.50000000E+00  8.00000000E-01  8.00000000E-01
  1.50000000E+00  8.00000000E-01  8.00000000E-01  1.50000000E+00  8.00000000E-01
  8.00000000E-01  1.50000000E+00  8.00000000E-01  8.00000000E-01  1.50000000E+00
  8.00000000E-01  8.00000000E-01  1.50000000E+00  8.00000000E-01  8.00000000E-01
  1.50000000E+00  8.00000000E-01  8.00000000E-01  1.50000000E+00  8.00000000E-01
  8.00000000E-01  1.50000000E+00  8.00000000E-01  8.00000000E-01  1.50000000E+00
  8.00000000E-01  8.00000000E-01  1.50000000E+00  8.00000000E-01  8.00000000E-01
  1.50000000E+00  8.00000000E-01  8.00000000E-01  1.50000000E+00  8.00000000E-01
  8.00000000E-01  1.50000000E+00  8.00000000E-01  8.00000000E-01  1.50000000E+00
  8.00000000E-01  8.00000000E-01  1.50000000E+00  8.00000000E-01  8.00000000E-01
  1.50000000E+00  8.00000000E-01  8.00000000E-01  1.50000000E+00  8.00000000E-01
  8.00000000E-01  1.50000000E+00  8.00000000E-01  8.00000000E-01  1.50000000E+00
  8.00000000E-01  8.00000000E-01  1.50000000E+00  8.00000000E-01  8.00000000E-01
  1.50000000E+00  8.00000000E-01  8.00000000E-01  1.50000000E+00  8.00000000E-01
  8.00000000E-01  1.50000000E+00  8.00000000E-01  8.00000000E-01  1.50000000E+00
  8.00000000E-01  8.00000000E-01  1.50000000E+00  8.00000000E-01  8.00000000E-01
  1.50000000E+00  8.00000000E-01  8.00000000E-01  1.50000000E+00  8.00000000E-01
  8.00000000E-01  1.50000000E+00  8.00000000E-01  8.00000000E-01  1.50000000E+00
  8.00000000E-01  8.00000000E-01  1.50000000E+00  8.00000000E-01  8.00000000E-01
  1.50000000E+00  8.00000000E-01  8.00000000E-01  1.50000000E+00  8.00000000E-01
  8.00000000E-01  1.50000000E+00  8.00000000E-01  8.00000000E-01  1.50000000E+00
  8.00000000E-01  8.00000000E-01  1.50000000E+00  8.00000000E-01  8.00000000E-01
  1.50000000E+00  8.00000000E-01  8.00000000E-01  1.50000000E+00  8.00000000E-01
  8.00000000E-01  1.50000000E+00  8.00000000E-01  8.00000000E-01  1.50000000E+00
  8.00000000E-01  8.00000000E-01  1.50000000E+00  8.00000000E-01  8.00000000E-01
  1.50000000E+00  8.00000000E-01  8.00000000E-01  1.50000000E+00  8.00000000E-01
  8.00000000E-01  1.50000000E+00  8.00000000E-01  8.00000000E-01  1.50000000E+00
  8.00000000E-01  8.00000000E-01  1.50000000E+00  8.00000000E-01  8.00000000E-01
  1.50000000E+00  8.00000000E-01  8.00000000E-01  1.50000000E+00  8.00000000E-01
  8.00000000E-01  1.50000000E+00  8.00000000E-01  8.00000000E-01  1.50000000E+00
  8.00000000E-01  8.00000000E-01  1.50000000E+00  8.00000000E-01  8.00000000E-01
  1.50000000E+00  8.00000000E-01  8.00000000E-01  1.50000000E+00  8.00000000E-01
  8.00000000E-01  1.50000000E+00  8.00000000E-01  8.00000000E-01  1.50000000E+00
  8.00000000E-01  8.00000000E-01  1.50000000E+00  8.00000000E-01  8.00000000E-01
  1.50000000E+00  8.00000000E-01  8.00000000E-01  1.50000000E+00  8.00000000E-01
  8.00000000E-01  1.50000000E+00  8.00000000E-01  8.00000000E-01  1.50000000E+00
  8.00000000E-01  8.00000000E-01  1.50000000E+00  8.00000000E-01  8.00000000E-01
  1.50000000E+00  8.00000000E-01  8.00000000E-01  1.50000000E+00  8.00000000E-01
  8.00000000E-01  1.50000000E+00  8.00000000E-01  8.00000000E-01  1.50000000E+00
  8.00000000E-01  8.00000000E-01  1.50000000E+00  8.00000000E-01  8.00000000E-01
  1.50000000E+00  8.00000000E-01  8.00000000E-01  1.50000000E+00  8.00000000E-01
  8.00000000E-01  1.50000000E+00  8.00000000E-01  8.00000000E-01  1.50000000E+00
  8.00000000E-01  8.00000000E-01  1.50000000E+00  8.00000000E-01  8.00000000E-01
  1.50000000E+00  8.00000000E-01  8.00000000E-01  1.50000000E+00  8.00000000E-01
  8.00000000E-01  1.50000000E+00  8.00000000E-01  8.00000000E-01  1.50000000E+00
  8.00000000E-01  8.00000000E-01  1.50000000E+00  8.00000000E-01  8.00000000E-01
  1.50000000E+00  8.00000000E-01  8.00000000E-01  1.50000000E+00  8.00000000E-01
  8.00000000E-01  1.50000000E+00  8.00000000E-01  8.00000000E-01  1.50000000E+00
  8.00000000E-01  8.00000000E-01  1.50000000E+00  8.00000000E-01  8.00000000E-01
  1.50000000E+00  8.00000000E-01  8.00000000E-01  1.50000000E+00  8.00000000E-01
  8.00000000E-01  1.50000000E+00  8.00000000E-01  8.00000000E-01  1.50000000E+00
  8.00000000E-01  8.00000000E-01  1.50000000E+00  8.00000000E-01  8.00000000E-01
  1.50000000E+00  8.00000000E-01  8.00000000E-01  1.50000000E+00  8.00000000E-01
  8.00000000E-01  1.50000000E+00  8.00000000E-01  8.00000000E-01  1.50000000E+00
  8.00000000E-01  8.00000000E-01  1.50000000E+00  8.00000000E-01  8.00000000E-01
  1.50000000E+00  8.00000000E-01  8.00000000E-01  1.50000000E+00  8.00000000E-01
  8.00000000E-01  1.50000000E+00  8.00000000E-01  8.00000000E-01  1.50000000E+00
  8.00000000E-01  8.00000000E-01  1.50000000E+00  8.00000000E-01  8.00000000E-01
  1.50000000E+00  8.00000000E-01  8.00000000E-01  1.50000000E+00  8.00000000E-01
  8.00000000E-01  1.50000000E+00  8.00000000E-01  8.00000000E-01  1.50000000E+00
  8.00000000E-01  8.00000000E-01  1.50000000E+00  8.00000000E-01  8.00000000E-01
  1.50000000E+00  8.00000000E-01  8.00000000E-01  1.50000000E+00  8.00000000E-01
  8.00000000E-01  1.50000000E+00  8.00000000E-01  8.00000000E-01  1.50000000E+00
  8.00000000E-01  8.00000000E-01  1.50000000E+00  8.00000000E-01  8.00000000E-01
  1.50000000E+00  8.00000000E-01  8.00000000E-01  1.50000000E+00  8.00000000E-01
  8.00000000E-01  1.50000000E+00  8.00000000E-01  8.00000000E-01  1.50000000E+00
  8.00000000E-01  8.00000000E-01  1.50000000E+00  8.00000000E-01  8.00000000E-01
  1.50000000E+00  8.00000000E-01  8.00000000E-01  1.50000000E+00  8.00000000E-01
  8.00000000E-01  1.50000000E+00  8.00000000E-01  8.00000000E-01  1.50000000E+00
  8.00000000E-01  8.00000000E-01  1.50000000E+00  8.00000000E-01  8.00000000E-01
  1.50000000E+00  8.00000000E-01  8.00000000E-01  1.50000000E+00  8.00000000E-01
  8.00000000E-01  1.50000000E+00  8.00000000E-01  8.00000000E-01  1.50000000E+00
  8.00000000E-01  8.00000000E-01  1.50000000E+00  8.00000000E-01  8.00000000E-01
  1.50000000E+00  8.00000000E-01  8.00000000E-01  1.50000000E+00  8.00000000E-01
  8.00000000E-01  1.50000000E+00  8.00000000E-01  8.00000000E-01  1.50000000E+00
  8.00000000E-01  8.00000000E-01  1.50000000E+00  8.00000000E-01  8.00000000E-01
  1.50000000E+00  8.00000000E-01  8.00000000E-01  1.50000000E+00  8.00000000E-01
  8.00000000E-01  1.50000000E+00  8.00000000E-01  8.00000000E-01  1.50000000E+00
  8.00000000E-01  8.00000000E-01  1.50000000E+00  8.00000000E-01  8.00000000E-01
  1.50000000E+00  8.00000000E-01  8.00000000E-01  1.50000000E+00  8.00000000E-01
  8.00000000E-01  1.50000000E+00  8.00000000E-01  8.00000000E-01  1.50000000E+00
  8.00000000E-01  8.00000000E-01  1.50000000E+00  8.00000000E-01  8.00000000E-01
  1.50000000E+00  8.00000000E-01  8.00000000E-01  1.50000000E+00  8.00000000E-01
  8.00000000E-01  1.50000000E+00  8.00000000E-01  8.00000000E-01  1.50000000E+00
  8.00000000E-01  8.00000000E-01  1.50000000E+00  8.00000000E-01  8.00000000E-01
  1.50000000E+00  8.00000000E-01  8.00000000E-01  1.50000000E+00  8.00000000E-01
  8.00000000E-01  1.50000000E+00  8.00000000E-01  8.00000000E-01  1.50000000E+00
  8.00000000E-01  8.00000000E-01  1.50000000E+00  8.00000000E-01  8.00000000E-01
  1.50000000E+00  8.00000000E-01  8.00000000E-01  1.50000000E+00  8.00000000E-01
  8.00000000E-01  1.50000000E+00  8.00000000E-01  8.00000000E-01  1.50000000E+00
  8.00000000E-01  8.00000000E-01  1.50000000E+00  8.00000000E-01  8.00000000E-01
  1.50000000E+00  8.00000000E-01  8.00000000E-01  1.50000000E+00  8.00000000E-01
  8.00000000E-01  1.50000000E+00  8.00000000E-01  8.00000000E-01  1.50000000E+00
  8.00000000E-01  8.00000000E-01  1.50000000E+00  8.00000000E-01  8.00000000E-01
  1.50000000E+00  8.00000000E-01  8.00000000E-01  1.50000000E+00  8.00000000E-01
  8.00000000E-01  1.50000000E+00  8.00000000E-01  8.00000000E-01  1.50000000E+00
  8.00000000E-01  8.00000000E-01  1.50000000E+00  8.00000000E-01  8.00000000E-01
  1.50000000E+00  8.00000000E-01  8.00000000E-01  1.50000000E+00  8.00000000E-01
  8.00000000E-01  1.50000000E+00  8.00000000E-01  8.00000000E-01  1.50000000E+00
  8.00000000E-01  8.00000000E-01  1.50000000E+00  8.00000000E-01  8.00000000E-01
  1.50000000E+00  8.00000000E-01  8.00000000E-01  1.50000000E+00  8.00000000E-01
  8.00000000E-01  1.50000000E+00  8.00000000E-01  8.00000000E-01  1.50000000E+00
  8.00000000E-01  8.00000000E-01  1.50000000E+00  8.00000000E-01  8.00000000E-01
  1.50000000E+00  8.00000000E-01  8.00000000E-01  1.50000000E+00  8.00000000E-01
  8.00000000E-01  1.50000000E+00  8.00000000E-01  8.00000000E-01  1.50000000E+00
  8.00000000E-01  8.00000000E-01  1.50000000E+00  8.00000000E-01  8.00000000E-01
  1.50000000E+00  8.00000000E-01  8.00000000E-01  1.50000000E+00  8.00000000E-01
  8.00000000E-01  1.50000000E+00  8.00000000E-01  8.00000000E-01  1.50000000E+00
  8.00000000E-01  8.00000000E-01  1.50000000E+00  8.00000000E-01  8.00000000E-01
  1.50000000E+00  8.00000000E-01  8.00000000E-01  1.50000000E+00  8.00000000E-01
  8.00000000E-01  1.50000000E+00  8.00000000E-01  8.00000000E-01  1.50000000E+00
  8.00000000E-01  8.00000000E-01  1.50000000E+00  8.00000000E-01  8.00000000E-01
  1.50000000E+00  8.00000000E-01  8.00000000E-01  1.50000000E+00  8.00000000E-01
  8.00000000E-01  1.50000000E+00  8.00000000E-01  8.00000000E-01  1.50000000E+00
  8.00000000E-01  8.00000000E-01  1.50000000E+00  8.00000000E-01  8.00000000E-01
  1.50000000E+00  8.00000000E-01  8.00000000E-01  1.50000000E+00  8.00000000E-01
  8.00000000E-01  1.50000000E+00  8.00000000E-01  8.00000000E-01  1.50000000E+00
  8.00000000E-01  8.00000000E-01  1.50000000E+00  8.00000000E-01  8.00000000E-01
  1.50000000E+00  8.00000000E-01  8.00000000E-01  1.50000000E+00  8.00000000E-01
  8.00000000E-01  1.50000000E+00  8.00000000E-01  8.00000000E-01  1.50000000E+00
  8.00000000E-01  8.00000000E-01  1.50000000E+00  8.00000000E-01  8.00000000E-01
  1.50000000E+00  8.00000000E-01  8.00000000E-01  1.50000000E+00  8.00000000E-01
  8.00000000E-01  1.50000000E+00  8.00000000E-01  8.00000000E-01  1.50000000E+00
  8.00000000E-01  8.00000000E-01  1.50000000E+00  8.00000000E-01  8.00000000E-01
  1.50000000E+00  8.00000000E-01  8.00000000E-01  1.50000000E+00  8.00000000E-01
  8.00000000E-01  1.50000000E+00  8.00000000E-01  8.00000000E-01  1.50000000E+00
  8.00000000E-01  8.00000000E-01  1.50000000E+00  8.00000000E-01  8.00000000E-01
  1.50000000E+00  8.00000000E-01  8.00000000E-01  1.50000000E+00  8.00000000E-01
  8.00000000E-01  1.50000000E+00  8.00000000E-01  8.00000000E-01  1.50000000E+00
  8.00000000E-01  8.00000000E-01  1.50000000E+00  8.00000000E-01  8.00000000E-01
  1.50000000E+00  8.00000000E-01  8.00000000E-01  1.50000000E+00  8.00000000E-01
  8.00000000E-01  1.50000000E+00  8.00000000E-01  8.00000000E-01  1.50000000E+00
  8.00000000E-01  8.00000000E-01  1.50000000E+00  8.00000000E-01  8.00000000E-01
  1.50000000E+00  8.00000000E-01  8.00000000E-01  1.50000000E+00  8.00000000E-01
  8.00000000E-01  1.50000000E+00  8.00000000E-01  8.00000000E-01  1.50000000E+00
  8.00000000E-01  8.00000000E-01  1.50000000E+00  8.00000000E-01  8.00000000E-01
  1.50000000E+00  8.00000000E-01  8.00000000E-01  1.50000000E+00  8.00000000E-01
  8.00000000E-01  1.50000000E+00  8.00000000E-01  8.00000000E-01  1.50000000E+00
  8.00000000E-01  8.00000000E-01  1.50000000E+00  8.00000000E-01  8.00000000E-01
  1.50000000E+00  8.00000000E-01  8.00000000E-01  1.50000000E+00  8.00000000E-01
  8.00000000E-01  1.50000000E+00  8.00000000E-01  8.00000000E-01  1.50000000E+00
  8.00000000E-01  8.00000000E-01  1.50000000E+00  8.00000000E-01  8.00000000E-01
  1.50000000E+00  8.00000000E-01  8.00000000E-01  1.50000000E+00  8.00000000E-01
  8.00000000E-01  1.50000000E+00  8.00000000E-01  8.00000000E-01  1.50000000E+00
  8.00000000E-01  8.00000000E-01  1.50000000E+00  8.00000000E-01  8.00000000E-01
  1.50000000E+00  8.00000000E-01  8.00000000E-01  1.50000000E+00  8.00000000E-01
  8.00000000E-01  1.50000000E+00  8.00000000E-01  8.00000000E-01  1.50000000E+00
  8.00000000E-01  8.00000000E-01  1.50000000E+00  8.00000000E-01  8.00000000E-01
  1.50000000E+00  8.00000000E-01  8.00000000E-01  1.50000000E+00  8.00000000E-01
  8.00000000E-01  1.50000000E+00  8.00000000E-01  8.00000000E-01  1.50000000E+00
  8.00000000E-01  8.00000000E-01  1.50000000E+00  8.00000000E-01  8.00000000E-01
  1.50000000E+00  8.00000000E-01  8.00000000E-01  1.50000000E+00  8.00000000E-01
  8.00000000E-01  1.50000000E+00  8.00000000E-01  8.00000000E-01  1.50000000E+00
  8.00000000E-01  8.00000000E-01  1.50000000E+00  8.00000000E-01  8.00000000E-01
  1.50000000E+00  8.00000000E-01  8.00000000E-01  1.50000000E+00  8.00000000E-01
  8.00000000E-01  1.50000000E+00  8.00000000E-01  8.00000000E-01  1.50000000E+00
  8.00000000E-01  8.00000000E-01  1.50000000E+00  8.00000000E-01  8.00000000E-01
  1.50000000E+00  8.00000000E-01  8.00000000E-01  1.50000000E+00  8.00000000E-01
  8.00000000E-01  1.50000000E+00  8.00000000E-01  8.00000000E-01  1.50000000E+00
  8.00000000E-01  8.00000000E-01  1.50000000E+00  8.00000000E-01  8.00000000E-01
  1.50000000E+00  8.00000000E-01  8.00000000E-01  1.50000000E+00  8.00000000E-01
  8.00000000E-01  1.50000000E+00  8.00000000E-01  8.00000000E-01  1.50000000E+00
  8.00000000E-01  8.00000000E-01  1.50000000E+00  8.00000000E-01  8.00000000E-01
  1.50000000E+00  8.00000000E-01  8.00000000E-01  1.50000000E+00  8.00000000E-01
  8.00000000E-01  1.50000000E+00  8.00000000E-01  8.00000000E-01  1.50000000E+00
  8.00000000E-01  8.00000000E-01  1.50000000E+00  8.00000000E-01  8.00000000E-01
  1.50000000E+00  8.00000000E-01  8.00000000E-01  1.50000000E+00  8.00000000E-01
  8.00000000E-01  1.50000000E+00  8.00000000E-01  8.00000000E-01  1.50000000E+00
  8.00000000E-01  8.00000000E-01  1.50000000E+00  8.00000000E-01  8.00000000E-01
  1.50000000E+00  8.00000000E-01  8.00000000E-01  1.50000000E+00  8.00000000E-01
  8.00000000E-01  1.50000000E+00  8.00000000E-01  8.00000000E-01  1.50000000E+00
  8.00000000E-01  8.00000000E-01  1.50000000E+00  8.00000000E-01  8.00000000E-01
  1.50000000E+00  8.00000000E-01  8.00000000E-01  1.50000000E+00  8.00000000E-01
  8.00000000E-01  1.50000000E+00  8.00000000E-01  8.00000000E-01  1.50000000E+00
  8.00000000E-01  8.00000000E-01  1.50000000E+00  8.00000000E-01  8.00000000E-01
  1.50000000E+00  8.00000000E-01  8.00000000E-01  1.50000000E+00  8.00000000E-01
  8.00000000E-01  1.50000000E+00  8.00000000E-01  8.00000000E-01  1.50000000E+00
  8.00000000E-01  8.00000000E-01  1.50000000E+00  8.00000000E-01  8.00000000E-01
  1.50000000E+00  8.00000000E-01  8.00000000E-01  1.50000000E+00  8.00000000E-01
  8.00000000E-01  1.50000000E+00  8.00000000E-01  8.00000000E-01  1.50000000E+00
  8.00000000E-01  8.00000000E-01  1.50000000E+00  8.00000000E-01  8.00000000E-01
  1.50000000E+00  8.00000000E-01  8.00000000E-01  1.50000000E+00  8.00000000E-01
  8.00000000E-01  1.50000000E+00  8.00000000E-01  8.00000000E-01  1.50000000E+00
  8.00000000E-01  8.00000000E-01  1.50000000E+00  8.00000000E-01  8.00000000E-01
  1.50000000E+00  8.00000000E-01  8.00000000E-01  1.50000000E+00  8.00000000E-01
  8.00000000E-01  1.50000000E+00  8.00000000E-01  8.00000000E-01  1.50000000E+00
  8.00000000E-01  8.00000000E-01  1.50000000E+00  8.00000000E-01  8.00000000E-01
  1.50000000E+00  8.00000000E-01  8.00000000E-01  1.50000000E+00  8.00000000E-01
  8.00000000E-01  1.50000000E+00  8.00000000E-01  8.00000000E-01  1.50000000E+00
  8.00000000E-01  8.00000000E-01  1.50000000E+00  8.00000000E-01  8.00000000E-01
  1.50000000E+00  8.00000000E-01  8.00000000E-01  1.50000000E+00  8.00000000E-01
  8.00000000E-01  1.50000000E+00  8.00000000E-01  8.00000000E-01  1.50000000E+00
  8.00000000E-01  8.00000000E-01  1.50000000E+00  8.00000000E-01  8.00000000E-01
  1.50000000E+00  8.00000000E-01  8.00000000E-01  1.50000000E+00  8.00000000E-01
  8.00000000E-01  1.50000000E+00  8.00000000E-01  8.00000000E-01  1.50000000E+00
  8.00000000E-01  8.00000000E-01  1.50000000E+00  8.00000000E-01  8.00000000E-01
  1.50000000E+00  8.00000000E-01  8.00000000E-01  1.50000000E+00  8.00000000E-01
  8.00000000E-01  1.50000000E+00  8.00000000E-01  8.00000000E-01  1.50000000E+00
  8.00000000E-01  8.00000000E-01  1.50000000E+00  8.00000000E-01  8.00000000E-01
  1.50000000E+00  8.00000000E-01  8.00000000E-01  1.50000000E+00  8.00000000E-01
  8.00000000E-01  1.50000000E+00  8.00000000E-01  8.00000000E-01  1.50000000E+00
  8.00000000E-01  8.00000000E-01  1.50000000E+00  8.00000000E-01  8.00000000E-01
  1.50000000E+00  8.00000000E-01  8.00000000E-01  1.50000000E+00  8.00000000E-01
  8.00000000E-01  1.50000000E+00  8.00000000E-01  8.00000000E-01  1.50000000E+00
  8.00000000E-01  8.00000000E-01  1.50000000E+00  8.00000000E-01  8.00000000E-01
  1.50000000E+00  8.00000000E-01  8.00000000E-01  1.50000000E+00  8.00000000E-01
  8.00000000E-01  1.50000000E+00  8.00000000E-01  8.00000000E-01  1.50000000E+00
  8.00000000E-01  8.00000000E-01  1.50000000E+00  8.00000000E-01  8.00000000E-01
  1.50000000E+00  8.00000000E-01  8.00000000E-01  1.50000000E+00  8.00000000E-01
  8.00000000E-01  1.50000000E+00  8.00000000E-01  8.00000000E-01  1.50000000E+00
  8.00000000E-01  8.00000000E-01  1.50000000E+00  8.00000000E-01  8.00000000E-01
  1.50000000E+00  8.00000000E-01  8.00000000E-01  1.50000000E+00  8.00000000E-01
  8.00000000E-01  1.50000000E+00  8.00000000E-01  8.00000000E-01  1.50000000E+00
  8.00000000E-01  8.00000000E-01  1.50000000E+00  8.00000000E-01  8.00000000E-01
  1.50000000E+00  8.00000000E-01  8.00000000E-01  1.50000000E+00  8.00000000E-01
  8.00000000E-01  1.50000000E+00  8.00000000E-01  8.00000000E-01  1.50000000E+00
  8.00000000E-01  8.00000000E-01  1.50000000E+00  8.00000000E-01  8.00000000E-01
  1.50000000E+00  8.00000000E-01  8.00000000E-01  1.50000000E+00  8.00000000E-01
  8.00000000E-01  1.50000000E+00  8.00000000E-01  8.00000000E-01  1.50000000E+00
  8.00000000E-01  8.00000000E-01  1.50000000E+00  8.00000000E-01  8.00000000E-01
  1.50000000E+00  8.00000000E-01  8.00000000E-01  1.50000000E+00  8.00000000E-01
  8.00000000E-01  1.50000000E+00  8.00000000E-01  8.00000000E-01  1.50000000E+00
  8.00000000E-01  8.00000000E-01  1.50000000E+00  8.00000000E-01  8.00000000E-01
  1.50000000E+00  8.00000000E-01  8.00000000E-01  1.50000000E+00  8.00000000E-01
  8.00000000E-01  1.50000000E+00  8.00000000E-01  8.00000000E-01  1.50000000E+00
  8.00000000E-01  8.00000000E-01  1.50000000E+00  8.00000000E-01  8.00000000E-01
  1.50000000E+00  8.00000000E-01  8.00000000E-01  1.50000000E+00  8.00000000E-01
  8.00000000E-01  1.50000000E+00  8.00000000E-01  8.00000000E-01  1.50000000E+00
  8.00000000E-01  8.00000000E-01  1.50000000E+00  8.00000000E-01  8.00000000E-01
  1.50000000E+00  8.00000000E-01  8.00000000E-01  1.50000000E+00  8.00000000E-01
  8.00000000E-01  1.50000000E+00  8.00000000E-01  8.00000000E-01  1.50000000E+00
  8.00000000E-01  8.00000000E-01  1.50000000E+00  8.00000000E-01  8.00000000E-01
  1.50000000E+00  8.00000000E-01  8.00000000E-01  1.50000000E+00  8.00000000E-01
  8.00000000E-01  1.50000000E+00  8.00000000E-01  8.00000000E-01  1.50000000E+00
  8.00000000E-01  8.00000000E-01  1.50000000E+00  8.00000000E-01  8.00000000E-01
  1.50000000E+00  8.00000000E-01  8.00000000E-01  1.50000000E+00  8.00000000E-01
  8.00000000E-01  1.50000000E+00  8.00000000E-01  8.00000000E-01  1.50000000E+00
  8.00000000E-01  8.00000000E-01  1.50000000E+00  8.00000000E-01  8.00000000E-01
  1.50000000E+00  8.00000000E-01  8.00000000E-01  1.50000000E+00  8.00000000E-01
  8.00000000E-01  1.50000000E+00  8.00000000E-01  8.00000000E-01  1.50000000E+00
  8.00000000E-01  8.00000000E-01  1.50000000E+00  8.00000000E-01  8.00000000E-01
  1.50000000E+00  8.00000000E-01  8.00000000E-01  1.50000000E+00  8.00000000E-01
  8.00000000E-01  1.50000000E+00  8.00000000E-01  8.00000000E-01  1.50000000E+00
  8.00000000E-01  8.00000000E-01  1.50000000E+00  8.00000000E-01  8.00000000E-01
  1.50000000E+00  8.00000000E-01  8.00000000E-01  1.50000000E+00  8.00000000E-01
  8.00000000E-01  1.50000000E+00  8.00000000E-01  8.00000000E-01  1.50000000E+00
  8.00000000E-01  8.00000000E-01  1.50000000E+00  8.00000000E-01  8.00000000E-01
  1.50000000E+00  8.00000000E-01  8.00000000E-01  1.50000000E+00  8.00000000E-01
  8.00000000E-01  1.50000000E+00  8.00000000E-01  8.00000000E-01  1.50000000E+00
  8.00000000E-01  8.00000000E-01  1.50000000E+00  8.00000000E-01  8.00000000E-01
  1.50000000E+00  8.00000000E-01  8.00000000E-01  1.50000000E+00  8.00000000E-01
  8.00000000E-01  1.50000000E+00  8.00000000E-01  8.00000000E-01  1.50000000E+00
  8.00000000E-01  8.00000000E-01  1.50000000E+00  8.00000000E-01  8.00000000E-01
  1.50000000E+00  8.00000000E-01  8.00000000E-01  1.50000000E+00  8.00000000E-01
  8.00000000E-01  1.50000000E+00  8.00000000E-01  8.00000000E-01  1.50000000E+00
  8.00000000E-01  8.00000000E-01  1.50000000E+00  8.00000000E-01  8.00000000E-01
  1.50000000E+00  8.00000000E-01  8.00000000E-01  1.50000000E+00  8.00000000E-01
  8.00000000E-01  1.50000000E+00  8.00000000E-01  8.00000000E-01  1.50000000E+00
  8.00000000E-01  8.00000000E-01  1.50000000E+00  8.00000000E-01  8.00000000E-01
  1.50000000E+00  8.00000000E-01  8.00000000E-01  1.50000000E+00  8.00000000E-01
  8.00000000E-01  1.50000000E+00  8.00000000E-01  8.00000000E-01  1.50000000E+00
  8.00000000E-01  8.00000000E-01  1.50000000E+00  8.00000000E-01  8.00000000E-01
  1.50000000E+00  8.00000000E-01  8.00000000E-01  1.50000000E+00  8.00000000E-01
  8.00000000E-01  1.50000000E+00  8.00000000E-01  8.00000000E-01  1.50000000E+00
  8.00000000E-01  8.00000000E-01  1.50000000E+00  8.00000000E-01  8.00000000E-01
  1.50000000E+00  8.00000000E-01  8.00000000E-01  1.50000000E+00  8.00000000E-01
  8.00000000E-01  1.50000000E+00  8.00000000E-01  8.00000000E-01  1.50000000E+00
  8.00000000E-01  8.00000000E-01  1.50000000E+00  8.00000000E-01  8.00000000E-01
  1.50000000E+00  8.00000000E-01  8.00000000E-01  1.50000000E+00  8.00000000E-01
  8.00000000E-01  1.50000000E+00  8.00000000E-01  8.00000000E-01  1.50000000E+00
  8.00000000E-01  8.00000000E-01  1.50000000E+00  8.00000000E-01  8.00000000E-01
  1.50000000E+00  8.00000000E-01  8.00000000E-01  1.50000000E+00  8.00000000E-01
  8.00000000E-01  1.50000000E+00  8.00000000E-01  8.00000000E-01  1.50000000E+00
  8.00000000E-01  8.00000000E-01  1.50000000E+00  8.00000000E-01  8.00000000E-01
  1.50000000E+00  8.00000000E-01  8.00000000E-01  1.50000000E+00  8.00000000E-01
  8.00000000E-01  1.50000000E+00  8.00000000E-01  8.00000000E-01  1.50000000E+00
  8.00000000E-01  8.00000000E-01  1.50000000E+00  8.00000000E-01  8.00000000E-01
  1.50000000E+00  8.00000000E-01  8.00000000E-01  1.50000000E+00  8.00000000E-01
  8.00000000E-01  1.50000000E+00  8.00000000E-01  8.00000000E-01  1.50000000E+00
  8.00000000E-01  8.00000000E-01  1.50000000E+00  8.00000000E-01  8.00000000E-01
  1.50000000E+00  8.00000000E-01  8.00000000E-01  1.50000000E+00  8.00000000E-01
  8.00000000E-01  1.50000000E+00  8.00000000E-01  8.00000000E-01  1.50000000E+00
  8.00000000E-01  8.00000000E-01  1.50000000E+00  8.00000000E-01  8.00000000E-01
  1.50000000E+00  8.00000000E-01  8.00000000E-01  1.50000000E+00  8.00000000E-01
  8.00000000E-01  1.50000000E+00  8.00000000E-01  8.00000000E-01  1.50000000E+00
  8.00000000E-01  8.00000000E-01  1.50000000E+00  8.00000000E-01  8.00000000E-01
  1.50000000E+00  8.00000000E-01  8.00000000E-01  1.50000000E+00  8.00000000E-01
  8.00000000E-01  1.50000000E+00  8.00000000E-01  8.00000000E-01  1.50000000E+00
  8.00000000E-01  8.00000000E-01  1.50000000E+00  8.00000000E-01  8.00000000E-01
  1.50000000E+00  8.00000000E-01  8.00000000E-01  1.50000000E+00  8.00000000E-01
  8.00000000E-01  1.50000000E+00  8.00000000E-01  8.00000000E-01  1.50000000E+00
  8.00000000E-01  8.00000000E-01  1.50000000E+00  8.00000000E-01  8.00000000E-01
  1.50000000E+00  8.00000000E-01  8.00000000E-01  1.50000000E+00  8.00000000E-01
  8.00000000E-01  1.50000000E+00  8.00000000E-01  8.00000000E-01  1.50000000E+00
  8.00000000E-01  8.00000000E-01  1.50000000E+00  8.00000000E-01  8.00000000E-01
  1.50000000E+00  8.00000000E-01  8.00000000E-01  1.50000000E+00  8.00000000E-01
  8.00000000E-01  1.50000000E+00  8.00000000E-01  8.00000000E-01  1.50000000E+00
  8.00000000E-01  8.00000000E-01  1.50000000E+00  8.00000000E-01  8.00000000E-01
  1.50000000E+00  8.00000000E-01  8.00000000E-01  1.50000000E+00  8.00000000E-01
  8.00000000E-01  1.50000000E+00  8.00000000E-01  8.00000000E-01  1.50000000E+00
  8.00000000E-01  8.00000000E-01  1.50000000E+00  8.00000000E-01  8.00000000E-01
  1.50000000E+00  8.00000000E-01  8.00000000E-01  1.50000000E+00  8.00000000E-01
  8.00000000E-01  1.50000000E+00  8.00000000E-01  8.00000000E-01  1.50000000E+00
  8.00000000E-01  8.00000000E-01  1.50000000E+00  8.00000000E-01  8.00000000E-01
  1.50000000E+00  8.00000000E-01  8.00000000E-01  1.50000000E+00  8.00000000E-01
  8.00000000E-01  1.50000000E+00  8.00000000E-01  8.00000000E-01  1.50000000E+00
  8.00000000E-01  8.00000000E-01  1.50000000E+00  8.00000000E-01  8.00000000E-01
  1.50000000E+00  8.00000000E-01  8.00000000E-01  1.50000000E+00  8.00000000E-01
  8.00000000E-01  1.50000000E+00  8.00000000E-01  8.00000000E-01  1.50000000E+00
  8.00000000E-01  8.00000000E-01  1.50000000E+00  8.00000000E-01  8.00000000E-01
  1.50000000E+00  8.00000000E-01  8.00000000E-01  1.50000000E+00  8.00000000E-01
  8.00000000E-01  1.50000000E+00  8.00000000E-01  8.00000000E-01  1.50000000E+00
  8.00000000E-01  8.00000000E-01  1.50000000E+00  8.00000000E-01  8.00000000E-01
  1.50000000E+00  8.00000000E-01  8.00000000E-01  1.50000000E+00  8.00000000E-01
  8.00000000E-01  1.50000000E+00  8.00000000E-01  8.00000000E-01  1.50000000E+00
  8.00000000E-01  8.00000000E-01  1.50000000E+00  8.00000000E-01  8.00000000E-01
  1.50000000E+00  8.00000000E-01  8.00000000E-01  1.50000000E+00  8.00000000E-01
  8.00000000E-01  1.50000000E+00  8.00000000E-01  8.00000000E-01  1.50000000E+00
  8.00000000E-01  8.00000000E-01  1.50000000E+00  8.00000000E-01  8.00000000E-01
  1.50000000E+00  8.00000000E-01  8.00000000E-01  1.50000000E+00  8.00000000E-01
  8.00000000E-01  1.50000000E+00  8.00000000E-01  8.00000000E-01  1.50000000E+00
  8.00000000E-01  8.00000000E-01  1.50000000E+00  8.00000000E-01  8.00000000E-01
  1.50000000E+00  8.00000000E-01  8.00000000E-01  1.50000000E+00  8.00000000E-01
  8.00000000E-01  1.50000000E+00  8.00000000E-01  8.00000000E-01  1.50000000E+00
  8.00000000E-01  8.00000000E-01  1.50000000E+00  8.00000000E-01  8.00000000E-01
  1.50000000E+00  8.00000000E-01  8.00000000E-01  1.50000000E+00  8.00000000E-01
  8.00000000E-01  1.50000000E+00  8.00000000E-01  8.00000000E-01  1.50000000E+00
  8.00000000E-01  8.00000000E-01  1.50000000E+00  8.00000000E-01  8.00000000E-01
  1.50000000E+00  8.00000000E-01  8.00000000E-01  1.50000000E+00  8.00000000E-01
  8.00000000E-01  1.50000000E+00  8.00000000E-01  8.00000000E-01  1.50000000E+00
  8.00000000E-01  8.00000000E-01  1.50000000E+00  8.00000000E-01  8.00000000E-01
  1.50000000E+00  8.00000000E-01  8.00000000E-01  1.50000000E+00  8.00000000E-01
  8.00000000E-01  1.50000000E+00  8.00000000E-01  8.00000000E-01  1.50000000E+00
  8.00000000E-01  8.00000000E-01  1.50000000E+00  8.00000000E-01  8.00000000E-01
  1.50000000E+00  8.00000000E-01  8.00000000E-01  1.50000000E+00  8.00000000E-01
  8.00000000E-01  1.50000000E+00  8.00000000E-01  8.00000000E-01  1.50000000E+00
  8.00000000E-01  8.00000000E-01  1.50000000E+00  8.00000000E-01  8.00000000E-01
  1.50000000E+00  8.00000000E-01  8.00000000E-01  1.50000000E+00  8.00000000E-01
  8.00000000E-01  1.50000000E+00  8.00000000E-01  8.00000000E-01  1.50000000E+00
  8.00000000E-01  8.00000000E-01  1.50000000E+00  8.00000000E-01  8.00000000E-01
  1.50000000E+00  8.00000000E-01  8.00000000E-01  1.50000000E+00  8.00000000E-01
  8.00000000E-01  1.50000000E+00  8.00000000E-01  8.00000000E-01  1.50000000E+00
  8.00000000E-01  8.00000000E-01  1.50000000E+00  8.00000000E-01  8.00000000E-01
  1.50000000E+00  8.00000000E-01  8.00000000E-01  1.50000000E+00  8.00000000E-01
  8.00000000E-01  1.50000000E+00  8.00000000E-01  8.00000000E-01  1.50000000E+00
  8.00000000E-01  8.00000000E-01  1.50000000E+00  8.00000000E-01  8.00000000E-01
  1.50000000E+00  8.00000000E-01  8.00000000E-01  1.50000000E+00  8.00000000E-01
  8.00000000E-01  1.50000000E+00  8.00000000E-01  8.00000000E-01  1.50000000E+00
  8.00000000E-01  8.00000000E-01  1.50000000E+00  8.00000000E-01  8.00000000E-01
  1.50000000E+00  8.00000000E-01  8.00000000E-01  1.50000000E+00  8.00000000E-01
  8.00000000E-01  1.50000000E+00  8.00000000E-01  8.00000000E-01  1.50000000E+00
  8.00000000E-01  8.00000000E-01  1.50000000E+00  8.00000000E-01  8.00000000E-01
  1.50000000E+00  8.00000000E-01  8.00000000E-01  1.50000000E+00  8.00000000E-01
  8.00000000E-01  1.50000000E+00  8.00000000E-01  8.00000000E-01  1.50000000E+00
  8.00000000E-01  8.00000000E-01  1.50000000E+00  8.00000000E-01  8.00000000E-01
  1.50000000E+00  8.00000000E-01  8.00000000E-01  1.50000000E+00  8.00000000E-01
  8.00000000E-01  1.50000000E+00  8.00000000E-01  8.00000000E-01  1.50000000E+00
  8.00000000E-01  8.00000000E-01  1.50000000E+00  8.00000000E-01  8.00000000E-01
  1.50000000E+00  8.00000000E-01  8.00000000E-01  1.50000000E+00  8.00000000E-01
  8.00000000E-01  1.50000000E+00  8.00000000E-01  8.00000000E-01  1.50000000E+00
  8.00000000E-01  8.00000000E-01  1.50000000E+00  8.00000000E-01  8.00000000E-01
  1.50000000E+00  8.00000000E-01  8.00000000E-01  1.50000000E+00  8.00000000E-01
  8.00000000E-01  1.50000000E+00  8.00000000E-01  8.00000000E-01  1.50000000E+00
  8.00000000E-01  8.00000000E-01  1.50000000E+00  8.00000000E-01  8.00000000E-01
  1.50000000E+00  8.00000000E-01  8.00000000E-01  1.50000000E+00  8.00000000E-01
  8.00000000E-01  1.50000000E+00  8.00000000E-01  8.00000000E-01  1.50000000E+00
  8.00000000E-01  8.00000000E-01  1.50000000E+00  8.00000000E-01  8.00000000E-01
  1.50000000E+00  8.00000000E-01  8.00000000E-01  1.50000000E+00  8.00000000E-01
  8.00000000E-01  1.50000000E+00  8.00000000E-01  8.00000000E-01  1.50000000E+00
  8.00000000E-01  8.00000000E-01  1.50000000E+00  8.00000000E-01  8.00000000E-01
  1.50000000E+00  8.00000000E-01  8.00000000E-01  1.50000000E+00  8.00000000E-01
  8.00000000E-01  1.50000000E+00  8.00000000E-01  8.00000000E-01  1.50000000E+00
  8.00000000E-01  8.00000000E-01  1.50000000E+00  8.00000000E-01  8.00000000E-01
  1.50000000E+00  8.00000000E-01  8.00000000E-01  1.50000000E+00  8.00000000E-01
  8.00000000E-01  1.50000000E+00  8.00000000E-01  8.00000000E-01  1.50000000E+00
  8.00000000E-01  8.00000000E-01  1.50000000E+00  8.00000000E-01  8.00000000E-01
  1.50000000E+00  8.00000000E-01  8.00000000E-01  1.50000000E+00  8.00000000E-01
  8.00000000E-01  1.50000000E+00  8.00000000E-01  8.00000000E-01  1.50000000E+00
  8.00000000E-01  8.00000000E-01  1.50000000E+00  8.00000000E-01  8.00000000E-01
  1.50000000E+00  8.00000000E-01  8.00000000E-01  1.50000000E+00  8.00000000E-01
  8.00000000E-01  1.50000000E+00  8.00000000E-01  8.00000000E-01  1.50000000E+00
  8.00000000E-01  8.00000000E-01  1.50000000E+00  8.00000000E-01  8.00000000E-01
  1.50000000E+00  8.00000000E-01  8.00000000E-01  1.50000000E+00  8.00000000E-01
  8.00000000E-01  1.50000000E+00  8.00000000E-01  8.00000000E-01  1.50000000E+00
  8.00000000E-01  8.00000000E-01  1.50000000E+00  8.00000000E-01  8.00000000E-01
  1.50000000E+00  8.00000000E-01  8.00000000E-01  1.50000000E+00  8.00000000E-01
  8.00000000E-01  1.50000000E+00  8.00000000E-01  8.00000000E-01  1.50000000E+00
  8.00000000E-01  8.00000000E-01  1.50000000E+00  8.00000000E-01  8.00000000E-01
  1.50000000E+00  8.00000000E-01  8.00000000E-01  1.50000000E+00  8.00000000E-01
  8.00000000E-01  1.50000000E+00  8.00000000E-01  8.00000000E-01  1.50000000E+00
  8.00000000E-01  8.00000000E-01  1.50000000E+00  8.00000000E-01  8.00000000E-01
  1.50000000E+00  8.00000000E-01  8.00000000E-01  1.50000000E+00  8.00000000E-01
  8.00000000E-01  1.50000000E+00  8.00000000E-01  8.00000000E-01  1.50000000E+00
  8.00000000E-01  8.00000000E-01  1.50000000E+00  8.00000000E-01  8.00000000E-01
  1.50000000E+00  8.00000000E-01  8.00000000E-01  1.50000000E+00  8.00000000E-01
  8.00000000E-01  1.50000000E+00  8.00000000E-01  8.00000000E-01  1.50000000E+00
  8.00000000E-01  8.00000000E-01  1.50000000E+00  8.00000000E-01  8.00000000E-01
  1.50000000E+00  8.00000000E-01  8.00000000E-01  1.50000000E+00  8.00000000E-01
  8.00000000E-01  1.50000000E+00  8.00000000E-01  8.00000000E-01  1.50000000E+00
  8.00000000E-01  8.00000000E-01  1.50000000E+00  8.00000000E-01  8.00000000E-01
  1.50000000E+00  8.00000000E-01  8.00000000E-01  1.50000000E+00  8.00000000E-01
  8.00000000E-01  1.50000000E+00  8.00000000E-01  8.00000000E-01  1.50000000E+00
  8.00000000E-01  8.00000000E-01  1.50000000E+00  8.00000000E-01  8.00000000E-01
  1.50000000E+00  8.00000000E-01  8.00000000E-01  1.50000000E+00  8.00000000E-01
  8.00000000E-01  1.50000000E+00  8.00000000E-01  8.00000000E-01  1.50000000E+00
  8.00000000E-01  8.00000000E-01  1.50000000E+00  8.00000000E-01  8.00000000E-01
  1.50000000E+00  8.00000000E-01  8.00000000E-01  1.50000000E+00  8.00000000E-01
  8.00000000E-01  1.50000000E+00  8.00000000E-01  8.00000000E-01  1.50000000E+00
  8.00000000E-01  8.00000000E-01  1.50000000E+00  8.00000000E-01  8.00000000E-01
  1.50000000E+00  8.00000000E-01  8.00000000E-01  1.50000000E+00  8.00000000E-01
  8.00000000E-01  1.50000000E+00  8.00000000E-01  8.00000000E-01  1.50000000E+00
  8.00000000E-01  8.00000000E-01  1.50000000E+00  8.00000000E-01  8.00000000E-01
  1.50000000E+00  8.00000000E-01  8.00000000E-01  1.50000000E+00  8.00000000E-01
  8.00000000E-01  1.50000000E+00  8.00000000E-01  8.00000000E-01  1.50000000E+00
  8.00000000E-01  8.00000000E-01  1.50000000E+00  8.00000000E-01  8.00000000E-01
  1.50000000E+00  8.00000000E-01  8.00000000E-01  1.50000000E+00  8.00000000E-01
  8.00000000E-01  1.50000000E+00  8.00000000E-01  8.00000000E-01  1.50000000E+00
  8.00000000E-01  8.00000000E-01  1.50000000E+00  8.00000000E-01  8.00000000E-01
  1.50000000E+00  8.00000000E-01  8.00000000E-01  1.50000000E+00  8.00000000E-01
  8.00000000E-01  1.50000000E+00  8.00000000E-01  8.00000000E-01  1.50000000E+00
  8.00000000E-01  8.00000000E-01  1.50000000E+00  8.00000000E-01  8.00000000E-01
  1.50000000E+00  8.00000000E-01  8.00000000E-01  1.50000000E+00  8.00000000E-01
  8.00000000E-01  1.50000000E+00  8.00000000E-01  8.00000000E-01  1.50000000E+00
  8.00000000E-01  8.00000000E-01  1.50000000E+00  8.00000000E-01  8.00000000E-01
  1.50000000E+00  8.00000000E-01  8.00000000E-01  1.50000000E+00  8.00000000E-01
  8.00000000E-01  1.50000000E+00  8.00000000E-01  8.00000000E-01  1.50000000E+00
  8.00000000E-01  8.00000000E-01  1.50000000E+00  8.00000000E-01  8.00000000E-01
  1.50000000E+00  8.00000000E-01  8.00000000E-01  1.50000000E+00  8.00000000E-01
  8.00000000E-01  1.50000000E+00  8.00000000E-01  8.00000000E-01  1.50000000E+00
  8.00000000E-01  8.00000000E-01  1.50000000E+00  8.00000000E-01  8.00000000E-01
  1.50000000E+00  8.00000000E-01  8.00000000E-01  1.50000000E+00  8.00000000E-01
  8.00000000E-01  1.50000000E+00  8.00000000E-01  8.00000000E-01  1.50000000E+00
  8.00000000E-01  8.00000000E-01  1.50000000E+00  8.00000000E-01  8.00000000E-01
  1.50000000E+00  8.00000000E-01  8.00000000E-01  1.50000000E+00  8.00000000E-01
  8.00000000E-01  1.50000000E+00  8.00000000E-01  8.00000000E-01  1.50000000E+00
  8.00000000E-01  8.00000000E-01  1.50000000E+00  8.00000000E-01  8.00000000E-01
  1.50000000E+00  8.00000000E-01  8.00000000E-01  1.50000000E+00  8.00000000E-01
  8.00000000E-01  1.50000000E+00  8.00000000E-01  8.00000000E-01  1.50000000E+00
  8.00000000E-01  8.00000000E-01  1.50000000E+00  8.00000000E-01  8.00000000E-01
  1.50000000E+00  8.00000000E-01  8.00000000E-01  1.50000000E+00  8.00000000E-01
  8.00000000E-01  1.50000000E+00  8.00000000E-01  8.00000000E-01  1.50000000E+00
  8.00000000E-01  8.00000000E-01  1.50000000E+00  8.00000000E-01  8.00000000E-01
  1.50000000E+00  8.00000000E-01  8.00000000E-01  1.50000000E+00  8.00000000E-01
  8.00000000E-01  1.50000000E+00  8.00000000E-01  8.00000000E-01  1.50000000E+00
  8.00000000E-01  8.00000000E-01  1.50000000E+00  8.00000000E-01  8.00000000E-01
  1.50000000E+00  8.00000000E-01  8.00000000E-01  1.50000000E+00  8.00000000E-01
  8.00000000E-01  1.50000000E+00  8.00000000E-01  8.00000000E-01  1.50000000E+00
  8.00000000E-01  8.00000000E-01  1.50000000E+00  8.00000000E-01  8.00000000E-01
  1.50000000E+00  8.00000000E-01  8.00000000E-01  1.50000000E+00  8.00000000E-01
  8.00000000E-01  1.50000000E+00  8.00000000E-01  8.00000000E-01  1.50000000E+00
  8.00000000E-01  8.00000000E-01  1.50000000E+00  8.00000000E-01  8.00000000E-01
  1.50000000E+00  8.00000000E-01  8.00000000E-01  1.50000000E+00  8.00000000E-01
  8.00000000E-01  1.50000000E+00  8.00000000E-01  8.00000000E-01  1.50000000E+00
  8.00000000E-01  8.00000000E-01  1.50000000E+00  8.00000000E-01  8.00000000E-01
  1.50000000E+00  8.00000000E-01  8.00000000E-01  1.50000000E+00  8.00000000E-01
  8.00000000E-01  1.50000000E+00  8.00000000E-01  8.00000000E-01  1.50000000E+00
  8.00000000E-01  8.00000000E-01  1.50000000E+00  8.00000000E-01  8.00000000E-01
  1.50000000E+00  8.00000000E-01  8.00000000E-01  1.50000000E+00  8.00000000E-01
  8.00000000E-01  1.50000000E+00  8.00000000E-01  8.00000000E-01  1.50000000E+00
  8.00000000E-01  8.00000000E-01  1.50000000E+00  8.00000000E-01  8.00000000E-01
  1.50000000E+00  8.00000000E-01  8.00000000E-01  1.50000000E+00  8.00000000E-01
  8.00000000E-01  1.50000000E+00  8.00000000E-01  8.00000000E-01  1.50000000E+00
  8.00000000E-01  8.00000000E-01  1.50000000E+00  8.00000000E-01  8.00000000E-01
  1.50000000E+00  8.00000000E-01  8.00000000E-01  1.50000000E+00  8.00000000E-01
  8.00000000E-01  1.50000000E+00  8.00000000E-01  8.00000000E-01  1.50000000E+00
  8.00000000E-01  8.00000000E-01  1.50000000E+00  8.00000000E-01  8.00000000E-01
  1.50000000E+00  8.00000000E-01  8.00000000E-01  1.50000000E+00  8.00000000E-01
  8.00000000E-01  1.50000000E+00  8.00000000E-01  8.00000000E-01  1.50000000E+00
  8.00000000E-01  8.00000000E-01  1.50000000E+00  8.00000000E-01  8.00000000E-01
  1.50000000E+00  8.00000000E-01  8.00000000E-01  1.50000000E+00  8.00000000E-01
  8.00000000E-01  1.50000000E+00  8.00000000E-01  8.00000000E-01  1.50000000E+00
  8.00000000E-01  8.00000000E-01  1.50000000E+00  8.00000000E-01  8.00000000E-01
  1.50000000E+00  8.00000000E-01  8.00000000E-01  1.50000000E+00  8.00000000E-01
  8.00000000E-01  1.50000000E+00  8.00000000E-01  8.00000000E-01  1.50000000E+00
  8.00000000E-01  8.00000000E-01  1.50000000E+00  8.00000000E-01  8.00000000E-01
  1.50000000E+00  8.00000000E-01  8.00000000E-01  1.50000000E+00  8.00000000E-01
  8.00000000E-01  1.50000000E+00  8.00000000E-01  8.00000000E-01  1.50000000E+00
  8.00000000E-01  8.00000000E-01  1.50000000E+00  8.00000000E-01  8.00000000E-01
  1.50000000E+00  8.00000000E-01  8.00000000E-01  1.50000000E+00  8.00000000E-01
  8.00000000E-01  1.50000000E+00  8.00000000E-01  8.00000000E-01  1.50000000E+00
  8.00000000E-01  8.00000000E-01  1.50000000E+00  8.00000000E-01  8.00000000E-01
  1.50000000E+00  8.00000000E-01  8.00000000E-01  1.50000000E+00  8.00000000E-01
  8.00000000E-01  1.50000000E+00  8.00000000E-01  8.00000000E-01  1.50000000E+00
  8.00000000E-01  8.00000000E-01  1.50000000E+00  8.00000000E-01  8.00000000E-01
  1.50000000E+00  8.00000000E-01  8.00000000E-01  1.50000000E+00  8.00000000E-01
  8.00000000E-01  1.50000000E+00  8.00000000E-01  8.00000000E-01  1.50000000E+00
  8.00000000E-01  8.00000000E-01  1.50000000E+00  8.00000000E-01  8.00000000E-01
  1.50000000E+00  8.00000000E-01  8.00000000E-01  1.50000000E+00  8.00000000E-01
  8.00000000E-01  1.50000000E+00  8.00000000E-01  8.00000000E-01  1.50000000E+00
  8.00000000E-01  8.00000000E-01  1.50000000E+00  8.00000000E-01  8.00000000E-01
  1.50000000E+00  8.00000000E-01  8.00000000E-01  1.50000000E+00  8.00000000E-01
  8.00000000E-01  1.50000000E+00  8.00000000E-01  8.00000000E-01  1.50000000E+00
  8.00000000E-01  8.00000000E-01  1.50000000E+00  8.00000000E-01  8.00000000E-01
  1.50000000E+00  8.00000000E-01  8.00000000E-01  1.50000000E+00  8.00000000E-01
  8.00000000E-01  1.50000000E+00  8.00000000E-01  8.00000000E-01  1.50000000E+00
  8.00000000E-01  8.00000000E-01  1.50000000E+00  8.00000000E-01  8.00000000E-01
  1.50000000E+00  8.00000000E-01  8.00000000E-01  1.50000000E+00  8.00000000E-01
  8.00000000E-01  1.50000000E+00  8.00000000E-01  8.00000000E-01  1.50000000E+00
  8.00000000E-01  8.00000000E-01  1.50000000E+00  8.00000000E-01  8.00000000E-01
  1.50000000E+00  8.00000000E-01  8.00000000E-01  1.50000000E+00  8.00000000E-01
  8.00000000E-01  1.50000000E+00  8.00000000E-01  8.00000000E-01  1.50000000E+00
  8.00000000E-01  8.00000000E-01  1.50000000E+00  8.00000000E-01  8.00000000E-01
  1.50000000E+00  8.00000000E-01  8.00000000E-01  1.50000000E+00  8.00000000E-01
  8.00000000E-01  1.50000000E+00  8.00000000E-01  8.00000000E-01  1.50000000E+00
  8.00000000E-01  8.00000000E-01  1.50000000E+00  8.00000000E-01  8.00000000E-01
  1.50000000E+00  8.00000000E-01  8.00000000E-01  1.50000000E+00  8.00000000E-01
  8.00000000E-01  1.50000000E+00  8.00000000E-01  8.00000000E-01  1.50000000E+00
  8.00000000E-01  8.00000000E-01  1.50000000E+00  8.00000000E-01  8.00000000E-01
  1.50000000E+00  8.00000000E-01  8.00000000E-01  1.50000000E+00  8.00000000E-01
  8.00000000E-01  1.50000000E+00  8.00000000E-01  8.00000000E-01  1.50000000E+00
  8.00000000E-01  8.00000000E-01  1.50000000E+00  8.00000000E-01  8.00000000E-01
  1.50000000E+00  8.00000000E-01  8.00000000E-01  1.50000000E+00  8.00000000E-01
  8.00000000E-01  1.50000000E+00  8.00000000E-01  8.00000000E-01  1.50000000E+00
  8.00000000E-01  8.00000000E-01  1.50000000E+00  8.00000000E-01  8.00000000E-01
  1.50000000E+00  8.00000000E-01  8.00000000E-01  1.50000000E+00  8.00000000E-01
  8.00000000E-01  1.50000000E+00  8.00000000E-01  8.00000000E-01  1.50000000E+00
  8.00000000E-01  8.00000000E-01  1.50000000E+00  8.00000000E-01  8.00000000E-01
  1.50000000E+00  8.00000000E-01  8.00000000E-01  1.50000000E+00  8.00000000E-01
  8.00000000E-01  1.50000000E+00  8.00000000E-01  8.00000000E-01  1.50000000E+00
  8.00000000E-01  8.00000000E-01  1.50000000E+00  8.00000000E-01  8.00000000E-01
  1.50000000E+00  8.00000000E-01  8.00000000E-01  1.50000000E+00  8.00000000E-01
  8.00000000E-01  1.50000000E+00  8.00000000E-01  8.00000000E-01  1.50000000E+00
  8.00000000E-01  8.00000000E-01  1.50000000E+00  8.00000000E-01  8.00000000E-01
  1.50000000E+00  8.00000000E-01  8.00000000E-01  1.50000000E+00  8.00000000E-01
  8.00000000E-01  1.50000000E+00  8.00000000E-01  8.00000000E-01  1.50000000E+00
  8.00000000E-01  8.00000000E-01  1.50000000E+00  8.00000000E-01  8.00000000E-01
  1.50000000E+00  8.00000000E-01  8.00000000E-01  1.50000000E+00  8.00000000E-01
  8.00000000E-01  1.50000000E+00  8.00000000E-01  8.00000000E-01  1.50000000E+00
  8.00000000E-01  8.00000000E-01  1.50000000E+00  8.00000000E-01  8.00000000E-01
  1.50000000E+00  8.00000000E-01  8.00000000E-01  1.50000000E+00  8.00000000E-01
  8.00000000E-01  1.50000000E+00  8.00000000E-01  8.00000000E-01  1.50000000E+00
  8.00000000E-01  8.00000000E-01  1.50000000E+00  8.00000000E-01  8.00000000E-01
  1.50000000E+00  8.00000000E-01  8.00000000E-01  1.50000000E+00  8.00000000E-01
  8.00000000E-01  1.50000000E+00  8.00000000E-01  8.00000000E-01  1.50000000E+00
  8.00000000E-01  8.00000000E-01  1.50000000E+00  8.00000000E-01  8.00000000E-01
  1.50000000E+00  8.00000000E-01  8.00000000E-01  1.50000000E+00  8.00000000E-01
  8.00000000E-01  1.50000000E+00  8.00000000E-01  8.00000000E-01  1.50000000E+00
  8.00000000E-01  8.00000000E-01  1.50000000E+00  8.00000000E-01  8.00000000E-01
  1.50000000E+00  8.00000000E-01  8.00000000E-01  1.50000000E+00  8.00000000E-01
  8.00000000E-01  1.50000000E+00  8.00000000E-01  8.00000000E-01  1.50000000E+00
  8.00000000E-01  8.00000000E-01  1.50000000E+00  8.00000000E-01  8.00000000E-01
  1.50000000E+00  8.00000000E-01  8.00000000E-01  1.50000000E+00  8.00000000E-01
  8.00000000E-01  1.50000000E+00  8.00000000E-01  8.00000000E-01  1.50000000E+00
  8.00000000E-01  8.00000000E-01  1.50000000E+00  8.00000000E-01  8.00000000E-01
  1.50000000E+00  8.00000000E-01  8.00000000E-01  1.50000000E+00  8.00000000E-01
  8.00000000E-01  1.50000000E+00  8.00000000E-01  8.00000000E-01  1.50000000E+00
  8.00000000E-01  8.00000000E-01  1.50000000E+00  8.00000000E-01  8.00000000E-01
  1.50000000E+00  8.00000000E-01  8.00000000E-01  1.50000000E+00  8.00000000E-01
  8.00000000E-01  1.50000000E+00  8.00000000E-01  8.00000000E-01  1.50000000E+00
  8.00000000E-01  8.00000000E-01  1.50000000E+00  8.00000000E-01  8.00000000E-01
  1.50000000E+00  8.00000000E-01  8.00000000E-01  1.50000000E+00  8.00000000E-01
  8.00000000E-01  1.50000000E+00  8.00000000E-01  8.00000000E-01  1.50000000E+00
  8.00000000E-01  8.00000000E-01  1.50000000E+00  8.00000000E-01  8.00000000E-01
  1.50000000E+00  8.00000000E-01  8.00000000E-01  1.50000000E+00  8.00000000E-01
  8.00000000E-01  1.50000000E+00  8.00000000E-01  8.00000000E-01  1.50000000E+00
  8.00000000E-01  8.00000000E-01  1.50000000E+00  8.00000000E-01  8.00000000E-01
  1.50000000E+00  8.00000000E-01  8.00000000E-01  1.50000000E+00  8.00000000E-01
  8.00000000E-01  1.50000000E+00  8.00000000E-01  8.00000000E-01  1.50000000E+00
  8.00000000E-01  8.00000000E-01  1.50000000E+00  8.00000000E-01  8.00000000E-01
  1.50000000E+00  8.00000000E-01  8.00000000E-01  1.50000000E+00  8.00000000E-01
  8.00000000E-01  1.50000000E+00  8.00000000E-01  8.00000000E-01  1.50000000E+00
  8.00000000E-01  8.00000000E-01  1.50000000E+00  8.00000000E-01  8.00000000E-01
  1.50000000E+00  8.00000000E-01  8.00000000E-01  1.50000000E+00  8.00000000E-01
  8.00000000E-01  1.50000000E+00  8.00000000E-01  8.00000000E-01  1.50000000E+00
  8.00000000E-01  8.00000000E-01  1.50000000E+00  8.00000000E-01  8.00000000E-01
  1.50000000E+00  8.00000000E-01  8.00000000E-01  1.50000000E+00  8.00000000E-01
  8.00000000E-01  1.50000000E+00  8.00000000E-01  8.00000000E-01  1.50000000E+00
  8.00000000E-01  8.00000000E-01  1.50000000E+00  8.00000000E-01  8.00000000E-01
  1.50000000E+00  8.00000000E-01  8.00000000E-01  1.50000000E+00  8.00000000E-01
  8.00000000E-01  1.50000000E+00  8.00000000E-01  8.00000000E-01  1.50000000E+00
  8.00000000E-01  8.00000000E-01  1.50000000E+00  8.00000000E-01  8.00000000E-01
  1.50000000E+00  8.00000000E-01  8.00000000E-01  1.50000000E+00  8.00000000E-01
  8.00000000E-01  1.50000000E+00  8.00000000E-01  8.00000000E-01  1.50000000E+00
  8.00000000E-01  8.00000000E-01  1.50000000E+00  8.00000000E-01  8.00000000E-01
  1.50000000E+00  8.00000000E-01  8.00000000E-01  1.50000000E+00  8.00000000E-01
  8.00000000E-01  1.50000000E+00  8.00000000E-01  8.00000000E-01  1.50000000E+00
  8.00000000E-01  8.00000000E-01  1.50000000E+00  8.00000000E-01  8.00000000E-01
  1.50000000E+00  8.00000000E-01  8.00000000E-01  1.50000000E+00  8.00000000E-01
  8.00000000E-01  1.50000000E+00  8.00000000E-01  8.00000000E-01  1.50000000E+00
  8.00000000E-01  8.00000000E-01  1.50000000E+00  8.00000000E-01  8.00000000E-01
  1.50000000E+00  8.00000000E-01  8.00000000E-01  1.50000000E+00  8.00000000E-01
  8.00000000E-01  1.50000000E+00  8.00000000E-01  8.00000000E-01  1.50000000E+00
  8.00000000E-01  8.00000000E-01  1.50000000E+00  8.00000000E-01  8.00000000E-01
  1.50000000E+00  8.00000000E-01  8.00000000E-01  1.50000000E+00  8.00000000E-01
  8.00000000E-01  1.50000000E+00  8.00000000E-01  8.00000000E-01  1.50000000E+00
  8.00000000E-01  8.00000000E-01  1.50000000E+00  8.00000000E-01  8.00000000E-01
  1.50000000E+00  8.00000000E-01  8.00000000E-01  1.50000000E+00  8.00000000E-01
  8.00000000E-01  1.50000000E+00  8.00000000E-01  8.00000000E-01  1.50000000E+00
  8.00000000E-01  8.00000000E-01  1.50000000E+00  8.00000000E-01  8.00000000E-01
  1.50000000E+00  8.00000000E-01  8.00000000E-01  1.50000000E+00  8.00000000E-01
  8.00000000E-01  1.50000000E+00  8.00000000E-01  8.00000000E-01  1.50000000E+00
  8.00000000E-01  8.00000000E-01  1.50000000E+00  8.00000000E-01  8.00000000E-01
  1.50000000E+00  8.00000000E-01  8.00000000E-01  1.50000000E+00  8.00000000E-01
  8.00000000E-01  1.50000000E+00  8.00000000E-01  8.00000000E-01  1.50000000E+00
  8.00000000E-01  8.00000000E-01  1.50000000E+00  8.00000000E-01  8.00000000E-01
  1.50000000E+00  8.00000000E-01  8.00000000E-01  1.50000000E+00  8.00000000E-01
  8.00000000E-01  1.50000000E+00  8.00000000E-01  8.00000000E-01  1.50000000E+00
  8.00000000E-01  8.00000000E-01  1.50000000E+00  8.00000000E-01  8.00000000E-01
  1.50000000E+00  8.00000000E-01  8.00000000E-01  1.50000000E+00  8.00000000E-01
  8.00000000E-01  1.50000000E+00  8.00000000E-01  8.00000000E-01  1.50000000E+00
  8.00000000E-01  8.00000000E-01  1.50000000E+00  8.00000000E-01  8.00000000E-01
  1.50000000E+00  8.00000000E-01  8.00000000E-01  1.50000000E+00  8.00000000E-01
  8.00000000E-01  1.50000000E+00  8.00000000E-01  8.00000000E-01  1.50000000E+00
  8.00000000E-01  8.00000000E-01  1.50000000E+00  8.00000000E-01  8.00000000E-01
  1.50000000E+00  8.00000000E-01  8.00000000E-01  1.50000000E+00  8.00000000E-01
  8.00000000E-01  1.50000000E+00  8.00000000E-01  8.00000000E-01  1.50000000E+00
  8.00000000E-01  8.00000000E-01  1.50000000E+00  8.00000000E-01  8.00000000E-01
  1.50000000E+00  8.00000000E-01  8.00000000E-01  1.50000000E+00  8.00000000E-01
  8.00000000E-01  1.50000000E+00  8.00000000E-01  8.00000000E-01  1.50000000E+00
  8.00000000E-01  8.00000000E-01  1.50000000E+00  8.00000000E-01  8.00000000E-01
  1.50000000E+00  8.00000000E-01  8.00000000E-01  1.50000000E+00  8.00000000E-01
  8.00000000E-01  1.50000000E+00  8.00000000E-01  8.00000000E-01  1.50000000E+00
  8.00000000E-01  8.00000000E-01  1.50000000E+00  8.00000000E-01  8.00000000E-01
  1.50000000E+00  8.00000000E-01  8.00000000E-01  1.50000000E+00  8.00000000E-01
  8.00000000E-01  1.50000000E+00  8.00000000E-01  8.00000000E-01  1.50000000E+00
  8.00000000E-01  8.00000000E-01  1.50000000E+00  8.00000000E-01  8.00000000E-01
  1.50000000E+00  8.00000000E-01  8.00000000E-01  1.50000000E+00  8.00000000E-01
  8.00000000E-01  1.50000000E+00  8.00000000E-01  8.00000000E-01  1.50000000E+00
  8.00000000E-01  8.00000000E-01  1.50000000E+00  8.00000000E-01  8.00000000E-01
  1.50000000E+00  8.00000000E-01  8.00000000E-01  1.50000000E+00  8.00000000E-01
  8.00000000E-01  1.50000000E+00  8.00000000E-01  8.00000000E-01  1.50000000E+00
  8.00000000E-01  8.00000000E-01  1.50000000E+00  8.00000000E-01  8.00000000E-01
  1.50000000E+00  8.00000000E-01  8.00000000E-01  1.50000000E+00  8.00000000E-01
  8.00000000E-01  1.50000000E+00  8.00000000E-01  8.00000000E-01  1.50000000E+00
  8.00000000E-01  8.00000000E-01  1.50000000E+00  8.00000000E-01  8.00000000E-01
  1.50000000E+00  8.00000000E-01  8.00000000E-01  1.50000000E+00  8.00000000E-01
  8.00000000E-01  1.50000000E+00  8.00000000E-01  8.00000000E-01  1.50000000E+00
  8.00000000E-01  8.00000000E-01  1.50000000E+00  8.00000000E-01  8.00000000E-01
  1.50000000E+00  8.00000000E-01  8.00000000E-01  1.50000000E+00  8.00000000E-01
  8.00000000E-01  1.50000000E+00  8.00000000E-01  8.00000000E-01  1.50000000E+00
  8.00000000E-01  8.00000000E-01  1.50000000E+00  8.00000000E-01  8.00000000E-01
  1.50000000E+00  8.00000000E-01  8.00000000E-01  1.50000000E+00  8.00000000E-01
  8.00000000E-01  1.50000000E+00  8.00000000E-01  8.00000000E-01  1.50000000E+00
  8.00000000E-01  8.00000000E-01  1.50000000E+00  8.00000000E-01  8.00000000E-01
  1.50000000E+00  8.00000000E-01  8.00000000E-01  1.50000000E+00  8.00000000E-01
  8.00000000E-01  1.50000000E+00  8.00000000E-01  8.00000000E-01  1.50000000E+00
  8.00000000E-01  8.00000000E-01  1.50000000E+00  8.00000000E-01  8.00000000E-01
  1.50000000E+00  8.00000000E-01  8.00000000E-01  1.50000000E+00  8.00000000E-01
  8.00000000E-01  1.50000000E+00  8.00000000E-01  8.00000000E-01  1.50000000E+00
  8.00000000E-01  8.00000000E-01  1.50000000E+00  8.00000000E-01  8.00000000E-01
  1.50000000E+00  8.00000000E-01  8.00000000E-01  1.50000000E+00  8.00000000E-01
  8.00000000E-01  1.50000000E+00  8.00000000E-01  8.00000000E-01  1.50000000E+00
  8.00000000E-01  8.00000000E-01  1.50000000E+00  8.00000000E-01  8.00000000E-01
  1.50000000E+00  8.00000000E-01  8.00000000E-01  1.50000000E+00  8.00000000E-01
  8.00000000E-01  1.50000000E+00  8.00000000E-01  8.00000000E-01  1.50000000E+00
  8.00000000E-01  8.00000000E-01  1.50000000E+00  8.00000000E-01  8.00000000E-01
  1.50000000E+00  8.00000000E-01  8.00000000E-01  1.50000000E+00  8.00000000E-01
  8.00000000E-01  1.50000000E+00  8.00000000E-01  8.00000000E-01  1.50000000E+00
  8.00000000E-01  8.00000000E-01  1.50000000E+00  8.00000000E-01  8.00000000E-01
  1.50000000E+00  8.00000000E-01  8.00000000E-01  1.50000000E+00  8.00000000E-01
  8.00000000E-01  1.50000000E+00  8.00000000E-01  8.00000000E-01  1.50000000E+00
  8.00000000E-01  8.00000000E-01  1.50000000E+00  8.00000000E-01  8.00000000E-01
  1.50000000E+00  8.00000000E-01  8.00000000E-01  1.50000000E+00  8.00000000E-01
  8.00000000E-01  1.50000000E+00  8.00000000E-01  8.00000000E-01  1.50000000E+00
  8.00000000E-01  8.00000000E-01  1.50000000E+00  8.00000000E-01  8.00000000E-01
  1.50000000E+00  8.00000000E-01  8.00000000E-01  1.50000000E+00  8.00000000E-01
  8.00000000E-01  1.50000000E+00  8.00000000E-01  8.00000000E-01  1.50000000E+00
  8.00000000E-01  8.00000000E-01  1.50000000E+00  8.00000000E-01  8.00000000E-01
  1.50000000E+00  8.00000000E-01  8.00000000E-01  1.50000000E+00  8.00000000E-01
  8.00000000E-01  1.50000000E+00  8.00000000E-01  8.00000000E-01  1.50000000E+00
  8.00000000E-01  8.00000000E-01  1.50000000E+00  8.00000000E-01  8.00000000E-01
  1.50000000E+00  8.00000000E-01  8.00000000E-01  1.50000000E+00  8.00000000E-01
  8.00000000E-01  1.50000000E+00  8.00000000E-01  8.00000000E-01  1.50000000E+00
  8.00000000E-01  8.00000000E-01  1.50000000E+00  8.00000000E-01  8.00000000E-01
  1.50000000E+00  8.00000000E-01  8.00000000E-01  1.50000000E+00  8.00000000E-01
  8.00000000E-01  1.50000000E+00  8.00000000E-01  8.00000000E-01  1.50000000E+00
  8.00000000E-01  8.00000000E-01  1.50000000E+00  8.00000000E-01  8.00000000E-01
  1.50000000E+00  8.00000000E-01  8.00000000E-01  1.50000000E+00  8.00000000E-01
  8.00000000E-01  1.50000000E+00  8.00000000E-01  8.00000000E-01  1.50000000E+00
  8.00000000E-01  8.00000000E-01  1.50000000E+00  8.00000000E-01  8.00000000E-01
  1.50000000E+00  8.00000000E-01  8.00000000E-01  1.50000000E+00  8.00000000E-01
  8.00000000E-01  1.50000000E+00  8.00000000E-01  8.00000000E-01  1.50000000E+00
  8.00000000E-01  8.00000000E-01  1.50000000E+00  8.00000000E-01  8.00000000E-01
  1.50000000E+00  8.00000000E-01  8.00000000E-01  1.50000000E+00  8.00000000E-01
  8.00000000E-01  1.50000000E+00  8.00000000E-01  8.00000000E-01  1.50000000E+00
  8.00000000E-01  8.00000000E-01  1.50000000E+00  8.00000000E-01  8.00000000E-01
  1.50000000E+00  8.00000000E-01  8.00000000E-01  1.50000000E+00  8.00000000E-01
  8.00000000E-01  1.50000000E+00  8.00000000E-01  8.00000000E-01  1.50000000E+00
  8.00000000E-01  8.00000000E-01  1.50000000E+00  8.00000000E-01  8.00000000E-01
  1.50000000E+00  8.00000000E-01  8.00000000E-01  1.50000000E+00  8.00000000E-01
  8.00000000E-01  1.50000000E+00  8.00000000E-01  8.00000000E-01  1.50000000E+00
  8.00000000E-01  8.00000000E-01  1.50000000E+00  8.00000000E-01  8.00000000E-01
  1.50000000E+00  8.00000000E-01  8.00000000E-01  1.50000000E+00  8.00000000E-01
  8.00000000E-01  1.50000000E+00  8.00000000E-01  8.00000000E-01  1.50000000E+00
  8.00000000E-01  8.00000000E-01  1.50000000E+00  8.00000000E-01  8.00000000E-01
  1.50000000E+00  8.00000000E-01  8.00000000E-01  1.50000000E+00  8.00000000E-01
  8.00000000E-01  1.50000000E+00  8.00000000E-01  8.00000000E-01  1.50000000E+00
  8.00000000E-01  8.00000000E-01  1.50000000E+00  8.00000000E-01  8.00000000E-01
  1.50000000E+00  8.00000000E-01  8.00000000E-01  1.50000000E+00  8.00000000E-01
  8.00000000E-01  1.50000000E+00  8.00000000E-01  8.00000000E-01  1.50000000E+00
  8.00000000E-01  8.00000000E-01  1.50000000E+00  8.00000000E-01  8.00000000E-01
  1.50000000E+00  8.00000000E-01  8.00000000E-01  1.50000000E+00  8.00000000E-01
  8.00000000E-01  1.50000000E+00  8.00000000E-01  8.00000000E-01  1.50000000E+00
  8.00000000E-01  8.00000000E-01  1.50000000E+00  8.00000000E-01  8.00000000E-01
  1.50000000E+00  8.00000000E-01  8.00000000E-01  1.50000000E+00  8.00000000E-01
  8.00000000E-01  1.50000000E+00  8.00000000E-01  8.00000000E-01  1.50000000E+00
  8.00000000E-01  8.00000000E-01  1.50000000E+00  8.00000000E-01  8.00000000E-01
  1.50000000E+00  8.00000000E-01  8.00000000E-01  1.50000000E+00  8.00000000E-01
  8.00000000E-01  1.50000000E+00  8.00000000E-01  8.00000000E-01  1.50000000E+00
  8.00000000E-01  8.00000000E-01  1.50000000E+00  8.00000000E-01  8.00000000E-01
  1.50000000E+00  8.00000000E-01  8.00000000E-01  1.50000000E+00  8.00000000E-01
  8.00000000E-01  1.50000000E+00  8.00000000E-01  8.00000000E-01  1.50000000E+00
  8.00000000E-01  8.00000000E-01  1.50000000E+00  8.00000000E-01  8.00000000E-01
  1.50000000E+00  8.00000000E-01  8.00000000E-01  1.50000000E+00  8.00000000E-01
  8.00000000E-01  1.50000000E+00  8.00000000E-01  8.00000000E-01  1.50000000E+00
  8.00000000E-01  8.00000000E-01  1.50000000E+00  8.00000000E-01  8.00000000E-01
  1.50000000E+00  8.00000000E-01  8.00000000E-01  1.50000000E+00  8.00000000E-01
  8.00000000E-01  1.50000000E+00  8.00000000E-01  8.00000000E-01  1.50000000E+00
  8.00000000E-01  8.00000000E-01  1.50000000E+00  8.00000000E-01  8.00000000E-01
  1.50000000E+00  8.00000000E-01  8.00000000E-01  1.50000000E+00  8.00000000E-01
  8.00000000E-01  1.50000000E+00  8.00000000E-01  8.00000000E-01  1.50000000E+00
  8.00000000E-01  8.00000000E-01  1.50000000E+00  8.00000000E-01  8.00000000E-01
  1.50000000E+00  8.00000000E-01  8.00000000E-01  1.50000000E+00  8.00000000E-01
  8.00000000E-01  1.50000000E+00  8.00000000E-01  8.00000000E-01  1.50000000E+00
  8.00000000E-01  8.00000000E-01  1.50000000E+00  8.00000000E-01  8.00000000E-01
  1.50000000E+00  8.00000000E-01  8.00000000E-01  1.50000000E+00  8.00000000E-01
  8.00000000E-01  1.50000000E+00  8.00000000E-01  8.00000000E-01  1.50000000E+00
  8.00000000E-01  8.00000000E-01  1.50000000E+00  8.00000000E-01  8.00000000E-01
  1.50000000E+00  8.00000000E-01  8.00000000E-01  1.50000000E+00  8.00000000E-01
  8.00000000E-01  1.50000000E+00  8.00000000E-01  8.00000000E-01  1.50000000E+00
  8.00000000E-01  8.00000000E-01  1.50000000E+00  8.00000000E-01  8.00000000E-01
  1.50000000E+00  8.00000000E-01  8.00000000E-01  1.50000000E+00  8.00000000E-01
  8.00000000E-01  1.50000000E+00  8.00000000E-01  8.00000000E-01  1.50000000E+00
  8.00000000E-01  8.00000000E-01  1.50000000E+00  8.00000000E-01  8.00000000E-01
  1.50000000E+00  8.00000000E-01  8.00000000E-01  1.50000000E+00  8.00000000E-01
  8.00000000E-01  1.50000000E+00  8.00000000E-01  8.00000000E-01  1.50000000E+00
  8.00000000E-01  8.00000000E-01  1.50000000E+00  8.00000000E-01  8.00000000E-01
  1.50000000E+00  8.00000000E-01  8.00000000E-01  1.50000000E+00  8.00000000E-01
  8.00000000E-01  1.50000000E+00  8.00000000E-01  8.00000000E-01  1.50000000E+00
  8.00000000E-01  8.00000000E-01  1.50000000E+00  8.00000000E-01  8.00000000E-01
  1.50000000E+00  8.00000000E-01  8.00000000E-01  1.50000000E+00  8.00000000E-01
  8.00000000E-01  1.50000000E+00  8.00000000E-01  8.00000000E-01  1.50000000E+00
  8.00000000E-01  8.00000000E-01  1.50000000E+00  8.00000000E-01  8.00000000E-01
  1.50000000E+00  8.00000000E-01  8.00000000E-01  1.50000000E+00  8.00000000E-01
  8.00000000E-01  1.50000000E+00  8.00000000E-01  8.00000000E-01  1.50000000E+00
  8.00000000E-01  8.00000000E-01  1.50000000E+00  8.00000000E-01  8.00000000E-01
  1.50000000E+00  8.00000000E-01  8.00000000E-01  1.50000000E+00  8.00000000E-01
  8.00000000E-01  1.50000000E+00  8.00000000E-01  8.00000000E-01  1.50000000E+00
  8.00000000E-01  8.00000000E-01  1.50000000E+00  8.00000000E-01  8.00000000E-01
  1.50000000E+00  8.00000000E-01  8.00000000E-01  1.50000000E+00  8.00000000E-01
  8.00000000E-01  1.50000000E+00  8.00000000E-01  8.00000000E-01  1.50000000E+00
  8.00000000E-01  8.00000000E-01  1.50000000E+00  8.00000000E-01  8.00000000E-01
  1.50000000E+00  8.00000000E-01  8.00000000E-01  1.50000000E+00  8.00000000E-01
  8.00000000E-01  1.50000000E+00  8.00000000E-01  8.00000000E-01  1.50000000E+00
  8.00000000E-01  8.00000000E-01  1.50000000E+00  8.00000000E-01  8.00000000E-01
  1.50000000E+00  8.00000000E-01  8.00000000E-01  1.50000000E+00  8.00000000E-01
  8.00000000E-01  1.50000000E+00  8.00000000E-01  8.00000000E-01  1.50000000E+00
  8.00000000E-01  8.00000000E-01  1.50000000E+00  8.00000000E-01  8.00000000E-01
  1.50000000E+00  8.00000000E-01  8.00000000E-01  1.50000000E+00  8.00000000E-01
  8.00000000E-01  1.50000000E+00  8.00000000E-01  8.00000000E-01  1.50000000E+00
  8.00000000E-01  8.00000000E-01  1.50000000E+00  8.00000000E-01  8.00000000E-01
  1.50000000E+00  8.00000000E-01  8.00000000E-01  1.50000000E+00  8.00000000E-01
  8.00000000E-01  1.50000000E+00  8.00000000E-01  8.00000000E-01  1.50000000E+00
  8.00000000E-01  8.00000000E-01  1.50000000E+00  8.00000000E-01  8.00000000E-01
  1.50000000E+00  8.00000000E-01  8.00000000E-01  1.50000000E+00  8.00000000E-01
  8.00000000E-01  1.50000000E+00  8.00000000E-01  8.00000000E-01  1.50000000E+00
  8.00000000E-01  8.00000000E-01  1.50000000E+00  8.00000000E-01  8.00000000E-01
  1.50000000E+00  8.00000000E-01  8.00000000E-01  1.50000000E+00  8.00000000E-01
  8.00000000E-01  1.50000000E+00  8.00000000E-01  8.00000000E-01  1.50000000E+00
  8.00000000E-01  8.00000000E-01  1.50000000E+00  8.00000000E-01  8.00000000E-01
  1.50000000E+00  8.00000000E-01  8.00000000E-01  1.50000000E+00  8.00000000E-01
  8.00000000E-01  1.50000000E+00  8.00000000E-01  8.00000000E-01  1.50000000E+00
  8.00000000E-01  8.00000000E-01  1.50000000E+00  8.00000000E-01  8.00000000E-01
  1.50000000E+00  8.00000000E-01  8.00000000E-01  1.50000000E+00  8.00000000E-01
  8.00000000E-01  1.50000000E+00  8.00000000E-01  8.00000000E-01  1.50000000E+00
  8.00000000E-01  8.00000000E-01  1.50000000E+00  8.00000000E-01  8.00000000E-01
  1.50000000E+00  8.00000000E-01  8.00000000E-01  1.50000000E+00  8.00000000E-01
  8.00000000E-01  1.50000000E+00  8.00000000E-01  8.00000000E-01  1.50000000E+00
  8.00000000E-01  8.00000000E-01  1.50000000E+00  8.00000000E-01  8.00000000E-01
  1.50000000E+00  8.00000000E-01  8.00000000E-01  1.50000000E+00  8.00000000E-01
  8.00000000E-01  1.50000000E+00  8.00000000E-01  8.00000000E-01  1.50000000E+00
  8.00000000E-01  8.00000000E-01  1.50000000E+00  8.00000000E-01  8.00000000E-01
  1.50000000E+00  8.00000000E-01  8.00000000E-01  1.50000000E+00  8.00000000E-01
  8.00000000E-01  1.50000000E+00  8.00000000E-01  8.00000000E-01  1.50000000E+00
  8.00000000E-01  8.00000000E-01  1.50000000E+00  8.00000000E-01  8.00000000E-01
  1.50000000E+00  8.00000000E-01  8.00000000E-01  1.50000000E+00  8.00000000E-01
  8.00000000E-01  1.50000000E+00  8.00000000E-01  8.00000000E-01  1.50000000E+00
  8.00000000E-01  8.00000000E-01  1.50000000E+00  8.00000000E-01  8.00000000E-01
  1.50000000E+00  8.00000000E-01  8.00000000E-01  1.50000000E+00  8.00000000E-01
  8.00000000E-01  1.50000000E+00  8.00000000E-01  8.00000000E-01  1.50000000E+00
  8.00000000E-01  8.00000000E-01  1.50000000E+00  8.00000000E-01  8.00000000E-01
  1.50000000E+00  8.00000000E-01  8.00000000E-01  1.50000000E+00  8.00000000E-01
  8.00000000E-01  1.50000000E+00  8.00000000E-01  8.00000000E-01  1.50000000E+00
  8.00000000E-01  8.00000000E-01  1.50000000E+00  8.00000000E-01  8.00000000E-01
  1.50000000E+00  8.00000000E-01  8.00000000E-01  1.50000000E+00  8.00000000E-01
  8.00000000E-01  1.50000000E+00  8.00000000E-01  8.00000000E-01  1.50000000E+00
  8.00000000E-01  8.00000000E-01  1.50000000E+00  8.00000000E-01  8.00000000E-01
  1.50000000E+00  8.00000000E-01  8.00000000E-01  1.50000000E+00  8.00000000E-01
  8.00000000E-01  1.50000000E+00  8.00000000E-01  8.00000000E-01  1.50000000E+00
  8.00000000E-01  8.00000000E-01  1.50000000E+00  8.00000000E-01  8.00000000E-01
  1.50000000E+00  8.00000000E-01  8.00000000E-01  1.50000000E+00  8.00000000E-01
  8.00000000E-01  1.50000000E+00  8.00000000E-01  8.00000000E-01  1.50000000E+00
  8.00000000E-01  8.00000000E-01  1.50000000E+00  8.00000000E-01  8.00000000E-01
  1.50000000E+00  8.00000000E-01  8.00000000E-01  1.50000000E+00  8.00000000E-01
  8.00000000E-01  1.50000000E+00  8.00000000E-01  8.00000000E-01  1.50000000E+00
  8.00000000E-01  8.00000000E-01  1.50000000E+00  8.00000000E-01  8.00000000E-01
  1.50000000E+00  8.00000000E-01  8.00000000E-01  1.50000000E+00  8.00000000E-01
  8.00000000E-01  1.50000000E+00  8.00000000E-01  8.00000000E-01  1.50000000E+00
  8.00000000E-01  8.00000000E-01  1.50000000E+00  8.00000000E-01  8.00000000E-01
  1.50000000E+00  8.00000000E-01  8.00000000E-01  1.50000000E+00  8.00000000E-01
  8.00000000E-01  1.50000000E+00  8.00000000E-01  8.00000000E-01  1.50000000E+00
  8.00000000E-01  8.00000000E-01  1.50000000E+00  8.00000000E-01  8.00000000E-01
  1.50000000E+00  8.00000000E-01  8.00000000E-01  1.50000000E+00  8.00000000E-01
  8.00000000E-01  1.50000000E+00  8.00000000E-01  8.00000000E-01  1.50000000E+00
  8.00000000E-01  8.00000000E-01  1.50000000E+00  8.00000000E-01  8.00000000E-01
  1.50000000E+00  8.00000000E-01  8.00000000E-01  1.50000000E+00  8.00000000E-01
  8.00000000E-01  1.50000000E+00  8.00000000E-01  8.00000000E-01  1.50000000E+00
  8.00000000E-01  8.00000000E-01  1.50000000E+00  8.00000000E-01  8.00000000E-01
  1.50000000E+00  8.00000000E-01  8.00000000E-01  1.50000000E+00  8.00000000E-01
  8.00000000E-01  1.50000000E+00  8.00000000E-01  8.00000000E-01  1.50000000E+00
  8.00000000E-01  8.00000000E-01  1.50000000E+00  8.00000000E-01  8.00000000E-01
  1.50000000E+00  8.00000000E-01  8.00000000E-01  1.50000000E+00  8.00000000E-01
  8.00000000E-01  1.50000000E+00  8.00000000E-01  8.00000000E-01  1.50000000E+00
  8.00000000E-01  8.00000000E-01  1.50000000E+00  8.00000000E-01  8.00000000E-01
  1.50000000E+00  8.00000000E-01  8.00000000E-01  1.50000000E+00  8.00000000E-01
  8.00000000E-01  1.50000000E+00  8.00000000E-01  8.00000000E-01  1.50000000E+00
  8.00000000E-01  8.00000000E-01  1.50000000E+00  8.00000000E-01  8.00000000E-01
  1.50000000E+00  8.00000000E-01  8.00000000E-01  1.50000000E+00  8.00000000E-01
  8.00000000E-01  1.50000000E+00  8.00000000E-01  8.00000000E-01  1.50000000E+00
  8.00000000E-01  8.00000000E-01  1.50000000E+00  8.00000000E-01  8.00000000E-01
  1.50000000E+00  8.00000000E-01  8.00000000E-01  1.50000000E+00  8.00000000E-01
  8.00000000E-01  1.50000000E+00  8.00000000E-01  8.00000000E-01  1.50000000E+00
  8.00000000E-01  8.00000000E-01  1.50000000E+00  8.00000000E-01  8.00000000E-01
  1.50000000E+00  8.00000000E-01  8.00000000E-01  1.50000000E+00  8.00000000E-01
  8.00000000E-01  1.50000000E+00  8.00000000E-01  8.00000000E-01  1.50000000E+00
  8.00000000E-01  8.00000000E-01  1.50000000E+00  8.00000000E-01  8.00000000E-01
  1.50000000E+00  8.00000000E-01  8.00000000E-01  1.50000000E+00  8.00000000E-01
  8.00000000E-01  1.50000000E+00  8.00000000E-01  8.00000000E-01  1.50000000E+00
  8.00000000E-01  8.00000000E-01  1.50000000E+00  8.00000000E-01  8.00000000E-01
  1.50000000E+00  8.00000000E-01  8.00000000E-01  1.50000000E+00  8.00000000E-01
  8.00000000E-01  1.50000000E+00  8.00000000E-01  8.00000000E-01  1.50000000E+00
  8.00000000E-01  8.00000000E-01  1.50000000E+00  8.00000000E-01  8.00000000E-01
  1.50000000E+00  8.00000000E-01  8.00000000E-01  1.50000000E+00  8.00000000E-01
  8.00000000E-01  1.50000000E+00  8.00000000E-01  8.00000000E-01  1.50000000E+00
  8.00000000E-01  8.00000000E-01  1.50000000E+00  8.00000000E-01  8.00000000E-01
  1.50000000E+00  8.00000000E-01  8.00000000E-01  1.50000000E+00  8.00000000E-01
  8.00000000E-01  1.50000000E+00  8.00000000E-01  8.00000000E-01  1.50000000E+00
  8.00000000E-01  8.00000000E-01  1.50000000E+00  8.00000000E-01  8.00000000E-01
  1.50000000E+00  8.00000000E-01  8.00000000E-01  1.50000000E+00  8.00000000E-01
  8.00000000E-01  1.50000000E+00  8.00000000E-01  8.00000000E-01  1.50000000E+00
  8.00000000E-01  8.00000000E-01  1.50000000E+00  8.00000000E-01  8.00000000E-01
  1.50000000E+00  8.00000000E-01  8.00000000E-01  1.50000000E+00  8.00000000E-01
  8.00000000E-01  1.50000000E+00  8.00000000E-01  8.00000000E-01  1.50000000E+00
  8.00000000E-01  8.00000000E-01  1.50000000E+00  8.00000000E-01  8.00000000E-01
  1.50000000E+00  8.00000000E-01  8.00000000E-01  1.50000000E+00  8.00000000E-01
  8.00000000E-01  1.50000000E+00  8.00000000E-01  8.00000000E-01  1.50000000E+00
  8.00000000E-01  8.00000000E-01  1.50000000E+00  8.00000000E-01  8.00000000E-01
  1.50000000E+00  8.00000000E-01  8.00000000E-01  1.50000000E+00  8.00000000E-01
  8.00000000E-01  1.50000000E+00  8.00000000E-01  8.00000000E-01  1.50000000E+00
  8.00000000E-01  8.00000000E-01  1.50000000E+00  8.00000000E-01  8.00000000E-01
  1.50000000E+00  8.00000000E-01  8.00000000E-01  1.50000000E+00  8.00000000E-01
  8.00000000E-01  1.50000000E+00  8.00000000E-01  8.00000000E-01  1.50000000E+00
  8.00000000E-01  8.00000000E-01  1.50000000E+00  8.00000000E-01  8.00000000E-01
  1.50000000E+00  8.00000000E-01  8.00000000E-01  1.50000000E+00  8.00000000E-01
  8.00000000E-01  1.50000000E+00  8.00000000E-01  8.00000000E-01  1.50000000E+00
  8.00000000E-01  8.00000000E-01  1.50000000E+00  8.00000000E-01  8.00000000E-01
  1.50000000E+00  8.00000000E-01  8.00000000E-01  1.50000000E+00  8.00000000E-01
  8.00000000E-01  1.50000000E+00  8.00000000E-01  8.00000000E-01  1.50000000E+00
  8.00000000E-01  8.00000000E-01  1.50000000E+00  8.00000000E-01  8.00000000E-01
  1.50000000E+00  8.00000000E-01  8.00000000E-01  1.50000000E+00  8.00000000E-01
  8.00000000E-01  1.50000000E+00  8.00000000E-01  8.00000000E-01  1.50000000E+00
  8.00000000E-01  8.00000000E-01  1.50000000E+00  8.00000000E-01  8.00000000E-01
  1.50000000E+00  8.00000000E-01  8.00000000E-01  1.50000000E+00  8.00000000E-01
  8.00000000E-01  1.50000000E+00  8.00000000E-01  8.00000000E-01  1.50000000E+00
  8.00000000E-01  8.00000000E-01  1.50000000E+00  8.00000000E-01  8.00000000E-01
  1.50000000E+00  8.00000000E-01  8.00000000E-01  1.50000000E+00  8.00000000E-01
  8.00000000E-01  1.50000000E+00  8.00000000E-01  8.00000000E-01  1.50000000E+00
  8.00000000E-01  8.00000000E-01  1.50000000E+00  8.00000000E-01  8.00000000E-01
  1.50000000E+00  8.00000000E-01  8.00000000E-01  1.50000000E+00  8.00000000E-01
  8.00000000E-01  1.50000000E+00  8.00000000E-01  8.00000000E-01  1.50000000E+00
  8.00000000E-01  8.00000000E-01  1.50000000E+00  8.00000000E-01  8.00000000E-01
  1.50000000E+00  8.00000000E-01  8.00000000E-01  1.50000000E+00  8.00000000E-01
  8.00000000E-01  1.50000000E+00  8.00000000E-01  8.00000000E-01  1.50000000E+00
  8.00000000E-01  8.00000000E-01  1.50000000E+00  8.00000000E-01  8.00000000E-01
  1.50000000E+00  8.00000000E-01  8.00000000E-01  1.50000000E+00  8.00000000E-01
  8.00000000E-01  1.50000000E+00  8.00000000E-01  8.00000000E-01  1.50000000E+00
  8.00000000E-01  8.00000000E-01  1.50000000E+00  8.00000000E-01  8.00000000E-01
  1.50000000E+00  8.00000000E-01  8.00000000E-01  1.50000000E+00  8.00000000E-01
  8.00000000E-01  1.50000000E+00  8.00000000E-01  8.00000000E-01  1.50000000E+00
  8.00000000E-01  8.00000000E-01  1.50000000E+00  8.00000000E-01  8.00000000E-01
  1.50000000E+00  8.00000000E-01  8.00000000E-01  1.50000000E+00  8.00000000E-01
  8.00000000E-01  1.50000000E+00  8.00000000E-01  8.00000000E-01  1.50000000E+00
  8.00000000E-01  8.00000000E-01  1.50000000E+00  8.00000000E-01  8.00000000E-01
  1.50000000E+00  8.00000000E-01  8.00000000E-01  1.50000000E+00  8.00000000E-01
  8.00000000E-01  1.50000000E+00  8.00000000E-01  8.00000000E-01  1.50000000E+00
  8.00000000E-01  8.00000000E-01  1.50000000E+00  8.00000000E-01  8.00000000E-01
  1.50000000E+00  8.00000000E-01  8.00000000E-01  1.50000000E+00  8.00000000E-01
  8.00000000E-01  1.50000000E+00  8.00000000E-01  8.00000000E-01  1.50000000E+00
  8.00000000E-01  8.00000000E-01  1.50000000E+00  8.00000000E-01  8.00000000E-01
  1.50000000E+00  8.00000000E-01  8.00000000E-01  1.50000000E+00  8.00000000E-01
  8.00000000E-01  1.50000000E+00  8.00000000E-01  8.00000000E-01  1.50000000E+00
  8.00000000E-01  8.00000000E-01  1.50000000E+00  8.00000000E-01  8.00000000E-01
  1.50000000E+00  8.00000000E-01  8.00000000E-01  1.50000000E+00  8.00000000E-01
  8.00000000E-01  1.50000000E+00  8.00000000E-01  8.00000000E-01  1.50000000E+00
  8.00000000E-01  8.00000000E-01  1.50000000E+00  8.00000000E-01  8.00000000E-01
  1.50000000E+00  8.00000000E-01  8.00000000E-01  1.50000000E+00  8.00000000E-01
  8.00000000E-01  1.50000000E+00  8.00000000E-01  8.00000000E-01  1.50000000E+00
  8.00000000E-01  8.00000000E-01  1.50000000E+00  8.00000000E-01  8.00000000E-01
  1.50000000E+00  8.00000000E-01  8.00000000E-01  1.50000000E+00  8.00000000E-01
  8.00000000E-01  1.50000000E+00  8.00000000E-01  8.00000000E-01  1.50000000E+00
  8.00000000E-01  8.00000000E-01  1.50000000E+00  8.00000000E-01  8.00000000E-01
  1.50000000E+00  8.00000000E-01  8.00000000E-01  1.50000000E+00  8.00000000E-01
  8.00000000E-01  1.50000000E+00  8.00000000E-01  8.00000000E-01  1.50000000E+00
  8.00000000E-01  8.00000000E-01  1.50000000E+00  8.00000000E-01  8.00000000E-01
  1.50000000E+00  8.00000000E-01  8.00000000E-01  1.50000000E+00  8.00000000E-01
  8.00000000E-01  1.50000000E+00  8.00000000E-01  8.00000000E-01  1.50000000E+00
  8.00000000E-01  8.00000000E-01  1.50000000E+00  8.00000000E-01  8.00000000E-01
  1.50000000E+00  8.00000000E-01  8.00000000E-01  1.50000000E+00  8.00000000E-01
  8.00000000E-01  1.50000000E+00  8.00000000E-01  8.00000000E-01  1.50000000E+00
  8.00000000E-01  8.00000000E-01  1.50000000E+00  8.00000000E-01  8.00000000E-01
  1.50000000E+00  8.00000000E-01  8.00000000E-01  1.50000000E+00  8.00000000E-01
  8.00000000E-01  1.50000000E+00  8.00000000E-01  8.00000000E-01  1.50000000E+00
  8.00000000E-01  8.00000000E-01  1.50000000E+00  8.00000000E-01  8.00000000E-01
  1.50000000E+00  8.00000000E-01  8.00000000E-01  1.50000000E+00  8.00000000E-01
  8.00000000E-01  1.50000000E+00  8.00000000E-01  8.00000000E-01  1.50000000E+00
  8.00000000E-01  8.00000000E-01  1.50000000E+00  8.00000000E-01  8.00000000E-01
  1.50000000E+00  8.00000000E-01  8.00000000E-01  1.50000000E+00  8.00000000E-01
  8.00000000E-01  1.50000000E+00  8.00000000E-01  8.00000000E-01  1.50000000E+00
  8.00000000E-01  8.00000000E-01  1.50000000E+00  8.00000000E-01  8.00000000E-01
  1.50000000E+00  8.00000000E-01  8.00000000E-01  1.50000000E+00  8.00000000E-01
  8.00000000E-01  1.50000000E+00  8.00000000E-01  8.00000000E-01  1.50000000E+00
  8.00000000E-01  8.00000000E-01  1.50000000E+00  8.00000000E-01  8.00000000E-01
  1.50000000E+00  8.00000000E-01  8.00000000E-01  1.50000000E+00  8.00000000E-01
  8.00000000E-01  1.50000000E+00  8.00000000E-01  8.00000000E-01  1.50000000E+00
  8.00000000E-01  8.00000000E-01  1.50000000E+00  8.00000000E-01  8.00000000E-01
  1.50000000E+00  8.00000000E-01  8.00000000E-01  1.50000000E+00  8.00000000E-01
  8.00000000E-01  1.50000000E+00  8.00000000E-01  8.00000000E-01  1.50000000E+00
  8.00000000E-01  8.00000000E-01  1.50000000E+00  8.00000000E-01  8.00000000E-01
  1.50000000E+00  8.00000000E-01  8.00000000E-01  1.50000000E+00  8.00000000E-01
  8.00000000E-01  1.50000000E+00  8.00000000E-01  8.00000000E-01  1.50000000E+00
  8.00000000E-01  8.00000000E-01  1.50000000E+00  8.00000000E-01  8.00000000E-01
  1.50000000E+00  8.00000000E-01  8.00000000E-01  1.50000000E+00  8.00000000E-01
  8.00000000E-01  1.50000000E+00  8.00000000E-01  8.00000000E-01  1.50000000E+00
  8.00000000E-01  8.00000000E-01  1.50000000E+00  8.00000000E-01  8.00000000E-01
  1.50000000E+00  8.00000000E-01  8.00000000E-01  1.50000000E+00  8.00000000E-01
  8.00000000E-01  1.50000000E+00  8.00000000E-01  8.00000000E-01  1.50000000E+00
  8.00000000E-01  8.00000000E-01  1.50000000E+00  8.00000000E-01  8.00000000E-01
  1.50000000E+00  8.00000000E-01  8.00000000E-01  1.50000000E+00  8.00000000E-01
  8.00000000E-01  1.50000000E+00  8.00000000E-01  8.00000000E-01  1.50000000E+00
  8.00000000E-01  8.00000000E-01  1.50000000E+00  8.00000000E-01  8.00000000E-01
  1.50000000E+00  8.00000000E-01  8.00000000E-01  1.50000000E+00  8.00000000E-01
  8.00000000E-01  1.50000000E+00  8.00000000E-01  8.00000000E-01  1.50000000E+00
  8.00000000E-01  8.00000000E-01  1.50000000E+00  8.00000000E-01  8.00000000E-01
  1.50000000E+00  8.00000000E-01  8.00000000E-01  1.50000000E+00  8.00000000E-01
  8.00000000E-01  1.50000000E+00  8.00000000E-01  8.00000000E-01  1.50000000E+00
  8.00000000E-01  8.00000000E-01  1.50000000E+00  8.00000000E-01  8.00000000E-01
  1.50000000E+00  8.00000000E-01  8.00000000E-01  1.50000000E+00  8.00000000E-01
  8.00000000E-01  1.50000000E+00  8.00000000E-01  8.00000000E-01  1.50000000E+00
  8.00000000E-01  8.00000000E-01  1.50000000E+00  8.00000000E-01  8.00000000E-01
  1.50000000E+00  8.00000000E-01  8.00000000E-01  1.50000000E+00  8.00000000E-01
  8.00000000E-01  1.50000000E+00  8.00000000E-01  8.00000000E-01  1.50000000E+00
  8.00000000E-01  8.00000000E-01  1.50000000E+00  8.00000000E-01  8.00000000E-01
  1.50000000E+00  8.00000000E-01  8.00000000E-01  1.50000000E+00  8.00000000E-01
  8.00000000E-01  1.50000000E+00  8.00000000E-01  8.00000000E-01  1.50000000E+00
  8.00000000E-01  8.00000000E-01  1.50000000E+00  8.00000000E-01  8.00000000E-01
  1.50000000E+00  8.00000000E-01  8.00000000E-01  1.50000000E+00  8.00000000E-01
  8.00000000E-01  1.50000000E+00  8.00000000E-01  8.00000000E-01  1.50000000E+00
  8.00000000E-01  8.00000000E-01  1.50000000E+00  8.00000000E-01  8.00000000E-01
  1.50000000E+00  8.00000000E-01  8.00000000E-01  1.50000000E+00  8.00000000E-01
  8.00000000E-01  1.50000000E+00  8.00000000E-01  8.00000000E-01  1.50000000E+00
  8.00000000E-01  8.00000000E-01  1.50000000E+00  8.00000000E-01  8.00000000E-01
  1.50000000E+00  8.00000000E-01  8.00000000E-01  1.50000000E+00  8.00000000E-01
  8.00000000E-01  1.50000000E+00  8.00000000E-01  8.00000000E-01  1.50000000E+00
  8.00000000E-01  8.00000000E-01  1.50000000E+00  8.00000000E-01  8.00000000E-01
  1.50000000E+00  8.00000000E-01  8.00000000E-01  1.50000000E+00  8.00000000E-01
  8.00000000E-01  1.50000000E+00  8.00000000E-01  8.00000000E-01  1.50000000E+00
  8.00000000E-01  8.00000000E-01  1.50000000E+00  8.00000000E-01  8.00000000E-01
  1.50000000E+00  8.00000000E-01  8.00000000E-01  1.50000000E+00  8.00000000E-01
  8.00000000E-01  1.50000000E+00  8.00000000E-01  8.00000000E-01  1.50000000E+00
  8.00000000E-01  8.00000000E-01  1.50000000E+00  8.00000000E-01  8.00000000E-01
  1.50000000E+00  8.00000000E-01  8.00000000E-01  1.50000000E+00  8.00000000E-01
  8.00000000E-01  1.50000000E+00  8.00000000E-01  8.00000000E-01  1.50000000E+00
  8.00000000E-01  8.00000000E-01  1.50000000E+00  8.00000000E-01  8.00000000E-01
  1.50000000E+00  8.00000000E-01  8.00000000E-01  1.50000000E+00  8.00000000E-01
  8.00000000E-01  1.50000000E+00  8.00000000E-01  8.00000000E-01  1.50000000E+00
  8.00000000E-01  8.00000000E-01  1.50000000E+00  8.00000000E-01  8.00000000E-01
  1.50000000E+00  8.00000000E-01  8.00000000E-01  1.50000000E+00  8.00000000E-01
  8.00000000E-01  1.50000000E+00  8.00000000E-01  8.00000000E-01  1.50000000E+00
  8.00000000E-01  8.00000000E-01  1.50000000E+00  8.00000000E-01  8.00000000E-01
  1.50000000E+00  8.00000000E-01  8.00000000E-01  1.50000000E+00  8.00000000E-01
  8.00000000E-01  1.50000000E+00  8.00000000E-01  8.00000000E-01  1.50000000E+00
  8.00000000E-01  8.00000000E-01  1.50000000E+00  8.00000000E-01  8.00000000E-01
  1.50000000E+00  8.00000000E-01  8.00000000E-01  1.50000000E+00  8.00000000E-01
  8.00000000E-01  1.50000000E+00  8.00000000E-01  8.00000000E-01  1.50000000E+00
  8.00000000E-01  8.00000000E-01  1.50000000E+00  8.00000000E-01  8.00000000E-01
  1.50000000E+00  8.00000000E-01  8.00000000E-01  1.50000000E+00  8.00000000E-01
  8.00000000E-01  1.50000000E+00  8.00000000E-01  8.00000000E-01  1.50000000E+00
  8.00000000E-01  8.00000000E-01  1.50000000E+00  8.00000000E-01  8.00000000E-01
  1.50000000E+00  8.00000000E-01  8.00000000E-01  1.50000000E+00  8.00000000E-01
  8.00000000E-01  1.50000000E+00  8.00000000E-01  8.00000000E-01  1.50000000E+00
  8.00000000E-01  8.00000000E-01  1.50000000E+00  8.00000000E-01  8.00000000E-01
  1.50000000E+00  8.00000000E-01  8.00000000E-01  1.50000000E+00  8.00000000E-01
  8.00000000E-01  1.50000000E+00  8.00000000E-01  8.00000000E-01  1.50000000E+00
  8.00000000E-01  8.00000000E-01  1.50000000E+00  8.00000000E-01  8.00000000E-01
  1.50000000E+00  8.00000000E-01  8.00000000E-01  1.50000000E+00  8.00000000E-01
  8.00000000E-01  1.50000000E+00  8.00000000E-01  8.00000000E-01  1.50000000E+00
  8.00000000E-01  8.00000000E-01  1.50000000E+00  8.00000000E-01  8.00000000E-01
  1.50000000E+00  8.00000000E-01  8.00000000E-01  1.50000000E+00  8.00000000E-01
  8.00000000E-01  1.50000000E+00  8.00000000E-01  8.00000000E-01  1.50000000E+00
  8.00000000E-01  8.00000000E-01  1.50000000E+00  8.00000000E-01  8.00000000E-01
  1.50000000E+00  8.00000000E-01  8.00000000E-01  1.50000000E+00  8.00000000E-01
  8.00000000E-01  1.50000000E+00  8.00000000E-01  8.00000000E-01  1.50000000E+00
  8.00000000E-01  8.00000000E-01  1.50000000E+00  8.00000000E-01  8.00000000E-01
  1.50000000E+00  8.00000000E-01  8.00000000E-01  1.50000000E+00  8.00000000E-01
  8.00000000E-01  1.50000000E+00  8.00000000E-01  8.00000000E-01  1.50000000E+00
  8.00000000E-01  8.00000000E-01  1.50000000E+00  8.00000000E-01  8.00000000E-01
  1.50000000E+00  8.00000000E-01  8.00000000E-01  1.50000000E+00  8.00000000E-01
  8.00000000E-01  1.50000000E+00  8.00000000E-01  8.00000000E-01  1.50000000E+00
  8.00000000E-01  8.00000000E-01  1.50000000E+00  8.00000000E-01  8.00000000E-01
  1.50000000E+00  8.00000000E-01  8.00000000E-01  1.50000000E+00  8.00000000E-01
  8.00000000E-01  1.50000000E+00  8.00000000E-01  8.00000000E-01  1.50000000E+00
  8.00000000E-01  8.00000000E-01  1.50000000E+00  8.00000000E-01  8.00000000E-01
  1.50000000E+00  8.00000000E-01  8.00000000E-01  1.50000000E+00  8.00000000E-01
  8.00000000E-01  1.50000000E+00  8.00000000E-01  8.00000000E-01  1.50000000E+00
  8.00000000E-01  8.00000000E-01  1.50000000E+00  8.00000000E-01  8.00000000E-01
  1.50000000E+00  8.00000000E-01  8.00000000E-01  1.50000000E+00  8.00000000E-01
  8.00000000E-01  1.50000000E+00  8.00000000E-01  8.00000000E-01  1.50000000E+00
  8.00000000E-01  8.00000000E-01  1.50000000E+00  8.00000000E-01  8.00000000E-01
  1.50000000E+00  8.00000000E-01  8.00000000E-01  1.50000000E+00  8.00000000E-01
  8.00000000E-01  1.50000000E+00  8.00000000E-01  8.00000000E-01  1.50000000E+00
  8.00000000E-01  8.00000000E-01  1.50000000E+00  8.00000000E-01  8.00000000E-01
  1.50000000E+00  8.00000000E-01  8.00000000E-01  1.50000000E+00  8.00000000E-01
  8.00000000E-01  1.50000000E+00  8.00000000E-01  8.00000000E-01  1.50000000E+00
  8.00000000E-01  8.00000000E-01  1.50000000E+00  8.00000000E-01  8.00000000E-01
  1.50000000E+00  8.00000000E-01  8.00000000E-01  1.50000000E+00  8.00000000E-01
  8.00000000E-01  1.50000000E+00  8.00000000E-01  8.00000000E-01  1.50000000E+00
  8.00000000E-01  8.00000000E-01  1.50000000E+00  8.00000000E-01  8.00000000E-01
  1.50000000E+00  8.00000000E-01  8.00000000E-01  1.50000000E+00  8.00000000E-01
  8.00000000E-01  1.50000000E+00  8.00000000E-01  8.00000000E-01  1.50000000E+00
  8.00000000E-01  8.00000000E-01  1.50000000E+00  8.00000000E-01  8.00000000E-01
  1.50000000E+00  8.00000000E-01  8.00000000E-01  1.50000000E+00  8.00000000E-01
  8.00000000E-01  1.50000000E+00  8.00000000E-01  8.00000000E-01  1.50000000E+00
  8.00000000E-01  8.00000000E-01  1.50000000E+00  8.00000000E-01  8.00000000E-01
  1.50000000E+00  8.00000000E-01  8.00000000E-01  1.50000000E+00  8.00000000E-01
  8.00000000E-01  1.50000000E+00  8.00000000E-01  8.00000000E-01  1.50000000E+00
  8.00000000E-01  8.00000000E-01  1.50000000E+00  8.00000000E-01  8.00000000E-01
  1.50000000E+00  8.00000000E-01  8.00000000E-01  1.50000000E+00  8.00000000E-01
  8.00000000E-01  1.50000000E+00  8.00000000E-01  8.00000000E-01  1.50000000E+00
  8.00000000E-01  8.00000000E-01  1.50000000E+00  8.00000000E-01  8.00000000E-01
  1.50000000E+00  8.00000000E-01  8.00000000E-01  1.50000000E+00  8.00000000E-01
  8.00000000E-01  1.50000000E+00  8.00000000E-01  8.00000000E-01  1.50000000E+00
  8.00000000E-01  8.00000000E-01  1.50000000E+00  8.00000000E-01  8.00000000E-01
  1.50000000E+00  8.00000000E-01  8.00000000E-01  1.50000000E+00  8.00000000E-01
  8.00000000E-01  1.50000000E+00  8.00000000E-01  8.00000000E-01  1.50000000E+00
  8.00000000E-01  8.00000000E-01  1.50000000E+00  8.00000000E-01  8.00000000E-01
  1.50000000E+00  8.00000000E-01  8.00000000E-01  1.50000000E+00  8.00000000E-01
  8.00000000E-01  1.50000000E+00  8.00000000E-01  8.00000000E-01  1.50000000E+00
  8.00000000E-01  8.00000000E-01  1.50000000E+00  8.00000000E-01  8.00000000E-01
  1.50000000E+00  8.00000000E-01  8.00000000E-01  1.50000000E+00  8.00000000E-01
  8.00000000E-01  1.50000000E+00  8.00000000E-01  8.00000000E-01  1.50000000E+00
  8.00000000E-01  8.00000000E-01  1.50000000E+00  8.00000000E-01  8.00000000E-01
  1.50000000E+00  8.00000000E-01  8.00000000E-01  1.50000000E+00  8.00000000E-01
  8.00000000E-01  1.50000000E+00  8.00000000E-01  8.00000000E-01  1.50000000E+00
  8.00000000E-01  8.00000000E-01  1.50000000E+00  8.00000000E-01  8.00000000E-01
  1.50000000E+00  8.00000000E-01  8.00000000E-01  1.50000000E+00  8.00000000E-01
  8.00000000E-01  1.50000000E+00  8.00000000E-01  8.00000000E-01  1.50000000E+00
  8.00000000E-01  8.00000000E-01  1.50000000E+00  8.00000000E-01  8.00000000E-01
  1.50000000E+00  8.00000000E-01  8.00000000E-01  1.50000000E+00  8.00000000E-01
  8.00000000E-01  1.50000000E+00  8.00000000E-01  8.00000000E-01  1.50000000E+00
  8.00000000E-01  8.00000000E-01  1.50000000E+00  8.00000000E-01  8.00000000E-01
  1.50000000E+00  8.00000000E-01  8.00000000E-01  1.50000000E+00  8.00000000E-01
  8.00000000E-01  1.50000000E+00  8.00000000E-01  8.00000000E-01  1.50000000E+00
  8.00000000E-01  8.00000000E-01  1.50000000E+00  8.00000000E-01  8.00000000E-01
  1.50000000E+00  8.00000000E-01  8.00000000E-01  1.50000000E+00  8.00000000E-01
  8.00000000E-01  1.50000000E+00  8.00000000E-01  8.00000000E-01  1.50000000E+00
  8.00000000E-01  8.00000000E-01  1.50000000E+00  8.00000000E-01  8.00000000E-01
  1.50000000E+00  8.00000000E-01  8.00000000E-01  1.50000000E+00  8.00000000E-01
  8.00000000E-01  1.50000000E+00  8.00000000E-01  8.00000000E-01  1.50000000E+00
  8.00000000E-01  8.00000000E-01  1.50000000E+00  8.00000000E-01  8.00000000E-01
  1.50000000E+00  8.00000000E-01  8.00000000E-01  1.50000000E+00  8.00000000E-01
  8.00000000E-01  1.50000000E+00  8.00000000E-01  8.00000000E-01  1.50000000E+00
  8.00000000E-01  8.00000000E-01  1.50000000E+00  8.00000000E-01  8.00000000E-01
  1.50000000E+00  8.00000000E-01  8.00000000E-01  1.50000000E+00  8.00000000E-01
  8.00000000E-01  1.50000000E+00  8.00000000E-01  8.00000000E-01  1.50000000E+00
  8.00000000E-01  8.00000000E-01  1.50000000E+00  8.00000000E-01  8.00000000E-01
  1.50000000E+00  8.00000000E-01  8.00000000E-01  1.50000000E+00  8.00000000E-01
  8.00000000E-01  1.50000000E+00  8.00000000E-01  8.00000000E-01  1.50000000E+00
  8.00000000E-01  8.00000000E-01  1.50000000E+00  8.00000000E-01  8.00000000E-01
  1.50000000E+00  8.00000000E-01  8.00000000E-01  1.50000000E+00  8.00000000E-01
  8.00000000E-01  1.50000000E+00  8.00000000E-01  8.00000000E-01  1.50000000E+00
  8.00000000E-01  8.00000000E-01  1.50000000E+00  8.00000000E-01  8.00000000E-01
  1.50000000E+00  8.00000000E-01  8.00000000E-01  1.50000000E+00  8.00000000E-01
  8.00000000E-01  1.50000000E+00  8.00000000E-01  8.00000000E-01  1.50000000E+00
  8.00000000E-01  8.00000000E-01  1.50000000E+00  8.00000000E-01  8.00000000E-01
  1.50000000E+00  8.00000000E-01  8.00000000E-01  1.50000000E+00  8.00000000E-01
  8.00000000E-01  1.50000000E+00  8.00000000E-01  8.00000000E-01  1.50000000E+00
  8.00000000E-01  8.00000000E-01  1.50000000E+00  8.00000000E-01  8.00000000E-01
  1.50000000E+00  8.00000000E-01  8.00000000E-01  1.50000000E+00  8.00000000E-01
  8.00000000E-01  1.50000000E+00  8.00000000E-01  8.00000000E-01  1.50000000E+00
  8.00000000E-01  8.00000000E-01  1.50000000E+00  8.00000000E-01  8.00000000E-01
  1.50000000E+00  8.00000000E-01  8.00000000E-01  1.50000000E+00  8.00000000E-01
  8.00000000E-01  1.50000000E+00  8.00000000E-01  8.00000000E-01  1.50000000E+00
  8.00000000E-01  8.00000000E-01  1.50000000E+00  8.00000000E-01  8.00000000E-01
  1.50000000E+00  8.00000000E-01  8.00000000E-01  1.50000000E+00  8.00000000E-01
  8.00000000E-01  1.50000000E+00  8.00000000E-01  8.00000000E-01  1.50000000E+00
  8.00000000E-01  8.00000000E-01  1.50000000E+00  8.00000000E-01  8.00000000E-01
  1.50000000E+00  8.00000000E-01  8.00000000E-01  1.50000000E+00  8.00000000E-01
  8.00000000E-01  1.50000000E+00  8.00000000E-01  8.00000000E-01  1.50000000E+00
  8.00000000E-01  8.00000000E-01  1.50000000E+00  8.00000000E-01  8.00000000E-01
  1.50000000E+00  8.00000000E-01  8.00000000E-01  1.50000000E+00  8.00000000E-01
  8.00000000E-01  1.50000000E+00  8.00000000E-01  8.00000000E-01  1.50000000E+00
  8.00000000E-01  8.00000000E-01  1.50000000E+00  8.00000000E-01  8.00000000E-01
  1.50000000E+00  8.00000000E-01  8.00000000E-01  1.50000000E+00  8.00000000E-01
  8.00000000E-01  1.50000000E+00  8.00000000E-01  8.00000000E-01  1.50000000E+00
  8.00000000E-01  8.00000000E-01  1.50000000E+00  8.00000000E-01  8.00000000E-01
  1.50000000E+00  8.00000000E-01  8.00000000E-01  1.50000000E+00  8.00000000E-01
  8.00000000E-01  1.50000000E+00  8.00000000E-01  8.00000000E-01  1.50000000E+00
  8.00000000E-01  8.00000000E-01  1.50000000E+00  8.00000000E-01  8.00000000E-01
  1.50000000E+00  8.00000000E-01  8.00000000E-01  1.50000000E+00  8.00000000E-01
  8.00000000E-01  1.50000000E+00  8.00000000E-01  8.00000000E-01  1.50000000E+00
  8.00000000E-01  8.00000000E-01  1.50000000E+00  8.00000000E-01  8.00000000E-01
  1.50000000E+00  8.00000000E-01  8.00000000E-01  1.50000000E+00  8.00000000E-01
  8.00000000E-01  1.50000000E+00  8.00000000E-01  8.00000000E-01  1.50000000E+00
  8.00000000E-01  8.00000000E-01  1.50000000E+00  8.00000000E-01  8.00000000E-01
  1.50000000E+00  8.00000000E-01  8.00000000E-01  1.50000000E+00  8.00000000E-01
  8.00000000E-01  1.50000000E+00  8.00000000E-01  8.00000000E-01  1.50000000E+00
  8.00000000E-01  8.00000000E-01  1.50000000E+00  8.00000000E-01  8.00000000E-01
  1.50000000E+00  8.00000000E-01  8.00000000E-01  1.50000000E+00  8.00000000E-01
  8.00000000E-01  1.50000000E+00  8.00000000E-01  8.00000000E-01  1.50000000E+00
  8.00000000E-01  8.00000000E-01  1.50000000E+00  8.00000000E-01  8.00000000E-01
  1.50000000E+00  8.00000000E-01  8.00000000E-01  1.50000000E+00  8.00000000E-01
  8.00000000E-01  1.50000000E+00  8.00000000E-01  8.00000000E-01  1.50000000E+00
  8.00000000E-01  8.00000000E-01  1.50000000E+00  8.00000000E-01  8.00000000E-01
  1.50000000E+00  8.00000000E-01  8.00000000E-01  1.50000000E+00  8.00000000E-01
  8.00000000E-01  1.50000000E+00  8.00000000E-01  8.00000000E-01  1.50000000E+00
  8.00000000E-01  8.00000000E-01  1.50000000E+00  8.00000000E-01  8.00000000E-01
  1.50000000E+00  8.00000000E-01  8.00000000E-01  1.50000000E+00  8.00000000E-01
  8.00000000E-01  1.50000000E+00  8.00000000E-01  8.00000000E-01  1.50000000E+00
  8.00000000E-01  8.00000000E-01  1.50000000E+00  8.00000000E-01  8.00000000E-01
  1.50000000E+00  8.00000000E-01  8.00000000E-01  1.50000000E+00  8.00000000E-01
  8.00000000E-01  1.50000000E+00  8.00000000E-01  8.00000000E-01  1.50000000E+00
  8.00000000E-01  8.00000000E-01  1.50000000E+00  8.00000000E-01  8.00000000E-01
  1.50000000E+00  8.00000000E-01  8.00000000E-01  1.50000000E+00  8.00000000E-01
  8.00000000E-01  1.50000000E+00  8.00000000E-01  8.00000000E-01  1.50000000E+00
  8.00000000E-01  8.00000000E-01  1.50000000E+00  8.00000000E-01  8.00000000E-01
  1.50000000E+00  8.00000000E-01  8.00000000E-01  1.50000000E+00  8.00000000E-01
  8.00000000E-01  1.50000000E+00  8.00000000E-01  8.00000000E-01  1.50000000E+00
  8.00000000E-01  8.00000000E-01  1.50000000E+00  8.00000000E-01  8.00000000E-01
  1.50000000E+00  8.00000000E-01  8.00000000E-01  1.50000000E+00  8.00000000E-01
  8.00000000E-01  1.50000000E+00  8.00000000E-01  8.00000000E-01  1.50000000E+00
  8.00000000E-01  8.00000000E-01  1.50000000E+00  8.00000000E-01  8.00000000E-01
  1.50000000E+00  8.00000000E-01  8.00000000E-01  1.50000000E+00  8.00000000E-01
  8.00000000E-01  1.50000000E+00  8.00000000E-01  8.00000000E-01  1.50000000E+00
  8.00000000E-01  8.00000000E-01  1.50000000E+00  8.00000000E-01  8.00000000E-01
  1.50000000E+00  8.00000000E-01  8.00000000E-01  1.50000000E+00  8.00000000E-01
  8.00000000E-01  1.50000000E+00  8.00000000E-01  8.00000000E-01  1.50000000E+00
  8.00000000E-01  8.00000000E-01  1.50000000E+00  8.00000000E-01  8.00000000E-01
  1.50000000E+00  8.00000000E-01  8.00000000E-01  1.50000000E+00  8.00000000E-01
  8.00000000E-01  1.50000000E+00  8.00000000E-01  8.00000000E-01  1.50000000E+00
  8.00000000E-01  8.00000000E-01  1.50000000E+00  8.00000000E-01  8.00000000E-01
  1.50000000E+00  8.00000000E-01  8.00000000E-01  1.50000000E+00  8.00000000E-01
  8.00000000E-01  1.50000000E+00  8.00000000E-01  8.00000000E-01  1.50000000E+00
  8.00000000E-01  8.00000000E-01  1.50000000E+00  8.00000000E-01  8.00000000E-01
  1.50000000E+00  8.00000000E-01  8.00000000E-01  1.50000000E+00  8.00000000E-01
  8.00000000E-01  1.50000000E+00  8.00000000E-01  8.00000000E-01  1.50000000E+00
  8.00000000E-01  8.00000000E-01  1.50000000E+00  8.00000000E-01  8.00000000E-01
  1.50000000E+00  8.00000000E-01  8.00000000E-01  1.50000000E+00  8.00000000E-01
  8.00000000E-01  1.50000000E+00  8.00000000E-01  8.00000000E-01  1.50000000E+00
  8.00000000E-01  8.00000000E-01  1.50000000E+00  8.00000000E-01  8.00000000E-01
  1.50000000E+00  8.00000000E-01  8.00000000E-01  1.50000000E+00  8.00000000E-01
  8.00000000E-01  1.50000000E+00  8.00000000E-01  8.00000000E-01  1.50000000E+00
  8.00000000E-01  8.00000000E-01  1.50000000E+00  8.00000000E-01  8.00000000E-01
  1.50000000E+00  8.00000000E-01  8.00000000E-01  1.50000000E+00  8.00000000E-01
  8.00000000E-01  1.50000000E+00  8.00000000E-01  8.00000000E-01  1.50000000E+00
  8.00000000E-01  8.00000000E-01  1.50000000E+00  8.00000000E-01  8.00000000E-01
  1.50000000E+00  8.00000000E-01  8.00000000E-01  1.50000000E+00  8.00000000E-01
  8.00000000E-01  1.50000000E+00  8.00000000E-01  8.00000000E-01  1.50000000E+00
  8.00000000E-01  8.00000000E-01  1.50000000E+00  8.00000000E-01  8.00000000E-01
  1.50000000E+00  8.00000000E-01  8.00000000E-01  1.50000000E+00  8.00000000E-01
  8.00000000E-01  1.50000000E+00  8.00000000E-01  8.00000000E-01  1.50000000E+00
  8.00000000E-01  8.00000000E-01  1.50000000E+00  8.00000000E-01  8.00000000E-01
  1.50000000E+00  8.00000000E-01  8.00000000E-01  1.50000000E+00  8.00000000E-01
  8.00000000E-01  1.50000000E+00  8.00000000E-01  8.00000000E-01  1.50000000E+00
  8.00000000E-01  8.00000000E-01  1.50000000E+00  8.00000000E-01  8.00000000E-01
  1.50000000E+00  8.00000000E-01  8.00000000E-01  1.50000000E+00  8.00000000E-01
  8.00000000E-01  1.50000000E+00  8.00000000E-01  8.00000000E-01  1.50000000E+00
  8.00000000E-01  8.00000000E-01  1.50000000E+00  8.00000000E-01  8.00000000E-01
  1.50000000E+00  8.00000000E-01  8.00000000E-01  1.50000000E+00  8.00000000E-01
  8.00000000E-01  1.50000000E+00  8.00000000E-01  8.00000000E-01  1.50000000E+00
  8.00000000E-01  8.00000000E-01  1.50000000E+00  8.00000000E-01  8.00000000E-01
  1.50000000E+00  8.00000000E-01  8.00000000E-01  1.50000000E+00  8.00000000E-01
  8.00000000E-01  1.50000000E+00  8.00000000E-01  8.00000000E-01  1.50000000E+00
  8.00000000E-01  8.00000000E-01  1.50000000E+00  8.00000000E-01  8.00000000E-01
  1.50000000E+00  8.00000000E-01  8.00000000E-01  1.50000000E+00  8.00000000E-01
  8.00000000E-01  1.50000000E+00  8.00000000E-01  8.00000000E-01  1.50000000E+00
  8.00000000E-01  8.00000000E-01  1.50000000E+00  8.00000000E-01  8.00000000E-01
  1.50000000E+00  8.00000000E-01  8.00000000E-01  1.50000000E+00  8.00000000E-01
  8.00000000E-01  1.50000000E+00  8.00000000E-01  8.00000000E-01  1.50000000E+00
  8.00000000E-01  8.00000000E-01  1.50000000E+00  8.00000000E-01  8.00000000E-01
  1.50000000E+00  8.00000000E-01  8.00000000E-01  1.50000000E+00  8.00000000E-01
  8.00000000E-01  1.50000000E+00  8.00000000E-01  8.00000000E-01  1.50000000E+00
  8.00000000E-01  8.00000000E-01  1.50000000E+00  8.00000000E-01  8.00000000E-01
  1.50000000E+00  8.00000000E-01  8.00000000E-01  1.50000000E+00  8.00000000E-01
  8.00000000E-01  1.50000000E+00  8.00000000E-01  8.00000000E-01  1.50000000E+00
  8.00000000E-01  8.00000000E-01  1.50000000E+00  8.00000000E-01  8.00000000E-01
  1.50000000E+00  8.00000000E-01  8.00000000E-01  1.50000000E+00  8.00000000E-01
  8.00000000E-01  1.50000000E+00  8.00000000E-01  8.00000000E-01  1.50000000E+00
  8.00000000E-01  8.00000000E-01  1.50000000E+00  8.00000000E-01  8.00000000E-01
  1.50000000E+00  8.00000000E-01  8.00000000E-01  1.50000000E+00  8.00000000E-01
  8.00000000E-01  1.50000000E+00  8.00000000E-01  8.00000000E-01  1.50000000E+00
  8.00000000E-01  8.00000000E-01  1.50000000E+00  8.00000000E-01  8.00000000E-01
  1.50000000E+00  8.00000000E-01  8.00000000E-01  1.50000000E+00  8.00000000E-01
  8.00000000E-01  1.50000000E+00  8.00000000E-01  8.00000000E-01  1.50000000E+00
  8.00000000E-01  8.00000000E-01  1.50000000E+00  8.00000000E-01  8.00000000E-01
  1.50000000E+00  8.00000000E-01  8.00000000E-01  1.50000000E+00  8.00000000E-01
  8.00000000E-01  1.50000000E+00  8.00000000E-01  8.00000000E-01  1.50000000E+00
  8.00000000E-01  8.00000000E-01  1.50000000E+00  8.00000000E-01  8.00000000E-01
  1.50000000E+00  8.00000000E-01  8.00000000E-01  1.50000000E+00  8.00000000E-01
  8.00000000E-01  1.50000000E+00  8.00000000E-01  8.00000000E-01  1.50000000E+00
  8.00000000E-01  8.00000000E-01  1.50000000E+00  8.00000000E-01  8.00000000E-01
  1.50000000E+00  8.00000000E-01  8.00000000E-01  1.50000000E+00  8.00000000E-01
  8.00000000E-01  1.50000000E+00  8.00000000E-01  8.00000000E-01  1.50000000E+00
  8.00000000E-01  8.00000000E-01  1.50000000E+00  8.00000000E-01  8.00000000E-01
  1.50000000E+00  8.00000000E-01  8.00000000E-01  1.50000000E+00  8.00000000E-01
  8.00000000E-01  1.50000000E+00  8.00000000E-01  8.00000000E-01  1.50000000E+00
  8.00000000E-01  8.00000000E-01  1.50000000E+00  8.00000000E-01  8.00000000E-01
  1.50000000E+00  8.00000000E-01  8.00000000E-01  1.50000000E+00  8.00000000E-01
  8.00000000E-01  1.50000000E+00  8.00000000E-01  8.00000000E-01  1.50000000E+00
  8.00000000E-01  8.00000000E-01  1.50000000E+00  8.00000000E-01  8.00000000E-01
  1.50000000E+00  8.00000000E-01  8.00000000E-01  1.50000000E+00  8.00000000E-01
  8.00000000E-01  1.50000000E+00  8.00000000E-01  8.00000000E-01  1.50000000E+00
  8.00000000E-01  8.00000000E-01  1.50000000E+00  8.00000000E-01  8.00000000E-01
  1.50000000E+00  8.00000000E-01  8.00000000E-01  1.50000000E+00  8.00000000E-01
  8.00000000E-01  1.50000000E+00  8.00000000E-01  8.00000000E-01  1.50000000E+00
  8.00000000E-01  8.00000000E-01  1.50000000E+00  8.00000000E-01  8.00000000E-01
  1.50000000E+00  8.00000000E-01  8.00000000E-01  1.50000000E+00  8.00000000E-01
  8.00000000E-01  1.50000000E+00  8.00000000E-01  8.00000000E-01  1.50000000E+00
  8.00000000E-01  8.00000000E-01  1.50000000E+00  8.00000000E-01  8.00000000E-01
  1.50000000E+00  8.00000000E-01  8.00000000E-01  1.50000000E+00  8.00000000E-01
  8.00000000E-01  1.50000000E+00  8.00000000E-01  8.00000000E-01  1.50000000E+00
  8.00000000E-01  8.00000000E-01  1.50000000E+00  8.00000000E-01  8.00000000E-01
  1.50000000E+00  8.00000000E-01  8.00000000E-01  1.50000000E+00  8.00000000E-01
  8.00000000E-01  1.50000000E+00  8.00000000E-01  8.00000000E-01  1.50000000E+00
  8.00000000E-01  8.00000000E-01  1.50000000E+00  8.00000000E-01  8.00000000E-01
  1.50000000E+00  8.00000000E-01  8.00000000E-01  1.50000000E+00  8.00000000E-01
  8.00000000E-01  1.50000000E+00  8.00000000E-01  8.00000000E-01  1.50000000E+00
  8.00000000E-01  8.00000000E-01  1.50000000E+00  8.00000000E-01  8.00000000E-01
  1.50000000E+00  8.00000000E-01  8.00000000E-01  1.50000000E+00  8.00000000E-01
  8.00000000E-01  1.50000000E+00  8.00000000E-01  8.00000000E-01  1.50000000E+00
  8.00000000E-01  8.00000000E-01  1.50000000E+00  8.00000000E-01  8.00000000E-01
  1.50000000E+00  8.00000000E-01  8.00000000E-01  1.50000000E+00  8.00000000E-01
  8.00000000E-01  1.50000000E+00  8.00000000E-01  8.00000000E-01  1.50000000E+00
  8.00000000E-01  8.00000000E-01  1.50000000E+00  8.00000000E-01  8.00000000E-01
  1.50000000E+00  8.00000000E-01  8.00000000E-01  1.50000000E+00  8.00000000E-01
  8.00000000E-01  1.50000000E+00  8.00000000E-01  8.00000000E-01  1.50000000E+00
  8.00000000E-01  8.00000000E-01  1.50000000E+00  8.00000000E-01  8.00000000E-01
  1.50000000E+00  8.00000000E-01  8.00000000E-01  1.50000000E+00  8.00000000E-01
  8.00000000E-01  1.50000000E+00  8.00000000E-01  8.00000000E-01  1.50000000E+00
  8.00000000E-01  8.00000000E-01  1.50000000E+00  8.00000000E-01  8.00000000E-01
  1.50000000E+00  8.00000000E-01  8.00000000E-01  1.50000000E+00  8.00000000E-01
  8.00000000E-01  1.50000000E+00  8.00000000E-01  8.00000000E-01  1.50000000E+00
  8.00000000E-01  8.00000000E-01  1.50000000E+00  8.00000000E-01  8.00000000E-01
  1.50000000E+00  8.00000000E-01  8.00000000E-01  1.50000000E+00  8.00000000E-01
  8.00000000E-01  1.50000000E+00  8.00000000E-01  8.00000000E-01  1.50000000E+00
  8.00000000E-01  8.00000000E-01  1.50000000E+00  8.00000000E-01  8.00000000E-01
  1.50000000E+00  8.00000000E-01  8.00000000E-01  1.50000000E+00  8.00000000E-01
  8.00000000E-01  1.50000000E+00  8.00000000E-01  8.00000000E-01  1.50000000E+00
  8.00000000E-01  8.00000000E-01  1.50000000E+00  8.00000000E-01  8.00000000E-01
  1.50000000E+00  8.00000000E-01  8.00000000E-01  1.50000000E+00  8.00000000E-01
  8.00000000E-01  1.50000000E+00  8.00000000E-01  8.00000000E-01  1.50000000E+00
  8.00000000E-01  8.00000000E-01  1.50000000E+00  8.00000000E-01  8.00000000E-01
  1.50000000E+00  8.00000000E-01  8.00000000E-01  1.50000000E+00  8.00000000E-01
  8.00000000E-01  1.50000000E+00  8.00000000E-01  8.00000000E-01  1.50000000E+00
  8.00000000E-01  8.00000000E-01  1.50000000E+00  8.00000000E-01  8.00000000E-01
  1.50000000E+00  8.00000000E-01  8.00000000E-01  1.50000000E+00  8.00000000E-01
  8.00000000E-01  1.50000000E+00  8.00000000E-01  8.00000000E-01  1.50000000E+00
  8.00000000E-01  8.00000000E-01  1.50000000E+00  8.00000000E-01  8.00000000E-01
  1.50000000E+00  8.00000000E-01  8.00000000E-01  1.50000000E+00  8.00000000E-01
  8.00000000E-01  1.50000000E+00  8.00000000E-01  8.00000000E-01  1.50000000E+00
  8.00000000E-01  8.00000000E-01  1.50000000E+00  8.00000000E-01  8.00000000E-01
  1.50000000E+00  8.00000000E-01  8.00000000E-01  1.50000000E+00  8.00000000E-01
  8.00000000E-01  1.50000000E+00  8.00000000E-01  8.00000000E-01  1.50000000E+00
  8.00000000E-01  8.00000000E-01  1.50000000E+00  8.00000000E-01  8.00000000E-01
  1.50000000E+00  8.00000000E-01  8.00000000E-01  1.50000000E+00  8.00000000E-01
  8.00000000E-01  1.50000000E+00  8.00000000E-01  8.00000000E-01  1.50000000E+00
  8.00000000E-01  8.00000000E-01  1.50000000E+00  8.00000000E-01  8.00000000E-01
  1.50000000E+00  8.00000000E-01  8.00000000E-01  1.50000000E+00  8.00000000E-01
  8.00000000E-01  1.50000000E+00  8.00000000E-01  8.00000000E-01  1.50000000E+00
  8.00000000E-01  8.00000000E-01  1.50000000E+00  8.00000000E-01  8.00000000E-01
  1.50000000E+00  8.00000000E-01  8.00000000E-01  1.50000000E+00  8.00000000E-01
  8.00000000E-01  1.50000000E+00  8.00000000E-01  8.00000000E-01  1.50000000E+00
  8.00000000E-01  8.00000000E-01  1.50000000E+00  8.00000000E-01  8.00000000E-01
  1.50000000E+00  8.00000000E-01  8.00000000E-01  1.50000000E+00  8.00000000E-01
  8.00000000E-01  1.50000000E+00  8.00000000E-01  8.00000000E-01  1.50000000E+00
  8.00000000E-01  8.00000000E-01  1.50000000E+00  8.00000000E-01  8.00000000E-01
  1.50000000E+00  8.00000000E-01  8.00000000E-01  1.50000000E+00  8.00000000E-01
  8.00000000E-01  1.50000000E+00  8.00000000E-01  8.00000000E-01  1.50000000E+00
  8.00000000E-01  8.00000000E-01  1.50000000E+00  8.00000000E-01  8.00000000E-01
  1.50000000E+00  8.00000000E-01  8.00000000E-01  1.50000000E+00  8.00000000E-01
  8.00000000E-01  1.50000000E+00  8.00000000E-01  8.00000000E-01  1.50000000E+00
  8.00000000E-01  8.00000000E-01  1.50000000E+00  8.00000000E-01  8.00000000E-01
  1.50000000E+00  8.00000000E-01  8.00000000E-01  1.50000000E+00  8.00000000E-01
  8.00000000E-01  1.50000000E+00  8.00000000E-01  8.00000000E-01  1.50000000E+00
  8.00000000E-01  8.00000000E-01  1.50000000E+00  8.00000000E-01  8.00000000E-01
  1.50000000E+00  8.00000000E-01  8.00000000E-01  1.50000000E+00  8.00000000E-01
  8.00000000E-01  1.50000000E+00  8.00000000E-01  8.00000000E-01  1.50000000E+00
  8.00000000E-01  8.00000000E-01  1.50000000E+00  8.00000000E-01  8.00000000E-01
  1.50000000E+00  8.00000000E-01  8.00000000E-01  1.50000000E+00  8.00000000E-01
  8.00000000E-01  1.50000000E+00  8.00000000E-01  8.00000000E-01  1.50000000E+00
  8.00000000E-01  8.00000000E-01  1.50000000E+00  8.00000000E-01  8.00000000E-01
  1.50000000E+00  8.00000000E-01  8.00000000E-01  1.50000000E+00  8.00000000E-01
  8.00000000E-01  1.50000000E+00  8.00000000E-01  8.00000000E-01  1.50000000E+00
  8.00000000E-01  8.00000000E-01  1.50000000E+00  8.00000000E-01  8.00000000E-01
  1.50000000E+00  8.00000000E-01  8.00000000E-01  1.50000000E+00  8.00000000E-01
  8.00000000E-01  1.50000000E+00  8.00000000E-01  8.00000000E-01  1.50000000E+00
  8.00000000E-01  8.00000000E-01  1.50000000E+00  8.00000000E-01  8.00000000E-01
  1.50000000E+00  8.00000000E-01  8.00000000E-01  1.50000000E+00  8.00000000E-01
  8.00000000E-01  1.50000000E+00  8.00000000E-01  8.00000000E-01  1.50000000E+00
  8.00000000E-01  8.00000000E-01  1.50000000E+00  8.00000000E-01  8.00000000E-01
  1.50000000E+00  8.00000000E-01  8.00000000E-01  1.50000000E+00  8.00000000E-01
  8.00000000E-01  1.50000000E+00  8.00000000E-01  8.00000000E-01  1.50000000E+00
  8.00000000E-01  8.00000000E-01  1.50000000E+00  8.00000000E-01  8.00000000E-01
  1.50000000E+00  8.00000000E-01  8.00000000E-01  1.50000000E+00  8.00000000E-01
  8.00000000E-01  1.50000000E+00  8.00000000E-01  8.00000000E-01  1.50000000E+00
  8.00000000E-01  8.00000000E-01  1.50000000E+00  8.00000000E-01  8.00000000E-01
  1.50000000E+00  8.00000000E-01  8.00000000E-01  1.50000000E+00  8.00000000E-01
  8.00000000E-01  1.50000000E+00  8.00000000E-01  8.00000000E-01  1.50000000E+00
  8.00000000E-01  8.00000000E-01  1.50000000E+00  8.00000000E-01  8.00000000E-01
  1.50000000E+00  8.00000000E-01  8.00000000E-01  1.50000000E+00  8.00000000E-01
  8.00000000E-01  1.50000000E+00  8.00000000E-01  8.00000000E-01  1.50000000E+00
  8.00000000E-01  8.00000000E-01  1.50000000E+00  8.00000000E-01  8.00000000E-01
  1.50000000E+00  8.00000000E-01  8.00000000E-01  1.50000000E+00  8.00000000E-01
  8.00000000E-01  1.50000000E+00  8.00000000E-01  8.00000000E-01  1.50000000E+00
  8.00000000E-01  8.00000000E-01  1.50000000E+00  8.00000000E-01  8.00000000E-01
  1.50000000E+00  8.00000000E-01  8.00000000E-01  1.50000000E+00  8.00000000E-01
  8.00000000E-01  1.50000000E+00  8.00000000E-01  8.00000000E-01  1.50000000E+00
  8.00000000E-01  8.00000000E-01  1.50000000E+00  8.00000000E-01  8.00000000E-01
  1.50000000E+00  8.00000000E-01  8.00000000E-01  1.50000000E+00  8.00000000E-01
  8.00000000E-01  1.50000000E+00  8.00000000E-01  8.00000000E-01  1.50000000E+00
  8.00000000E-01  8.00000000E-01  1.50000000E+00  8.00000000E-01  8.00000000E-01
  1.50000000E+00  8.00000000E-01  8.00000000E-01  1.50000000E+00  8.00000000E-01
  8.00000000E-01  1.50000000E+00  8.00000000E-01  8.00000000E-01  1.50000000E+00
  8.00000000E-01  8.00000000E-01  1.50000000E+00  8.00000000E-01  8.00000000E-01
  1.50000000E+00  8.00000000E-01  8.00000000E-01  1.50000000E+00  8.00000000E-01
  8.00000000E-01  1.50000000E+00  8.00000000E-01  8.00000000E-01  1.50000000E+00
  8.00000000E-01  8.00000000E-01  1.50000000E+00  8.00000000E-01  8.00000000E-01
  1.50000000E+00  8.00000000E-01  8.00000000E-01  1.50000000E+00  8.00000000E-01
  8.00000000E-01  1.50000000E+00  8.00000000E-01  8.00000000E-01  1.50000000E+00
  8.00000000E-01  8.00000000E-01  1.50000000E+00  8.00000000E-01  8.00000000E-01
  1.50000000E+00  8.00000000E-01  8.00000000E-01  1.50000000E+00  8.00000000E-01
  8.00000000E-01  1.50000000E+00  8.00000000E-01  8.00000000E-01  1.50000000E+00
  8.00000000E-01  8.00000000E-01  1.50000000E+00  8.00000000E-01  8.00000000E-01
  1.50000000E+00  8.00000000E-01  8.00000000E-01  1.50000000E+00  8.00000000E-01
  8.00000000E-01  1.50000000E+00  8.00000000E-01  8.00000000E-01  1.50000000E+00
  8.00000000E-01  8.00000000E-01  1.50000000E+00  8.00000000E-01  8.00000000E-01
  1.50000000E+00  8.00000000E-01  8.00000000E-01  1.50000000E+00  8.00000000E-01
  8.00000000E-01  1.50000000E+00  8.00000000E-01  8.00000000E-01  1.50000000E+00
  8.00000000E-01  8.00000000E-01  1.50000000E+00  8.00000000E-01  8.00000000E-01
  1.50000000E+00  8.00000000E-01  8.00000000E-01  1.50000000E+00  8.00000000E-01
  8.00000000E-01  1.50000000E+00  8.00000000E-01  8.00000000E-01  1.50000000E+00
  8.00000000E-01  8.00000000E-01  1.50000000E+00  8.00000000E-01  8.00000000E-01
  1.50000000E+00  8.00000000E-01  8.00000000E-01  1.50000000E+00  8.00000000E-01
  8.00000000E-01  1.50000000E+00  8.00000000E-01  8.00000000E-01  1.50000000E+00
  8.00000000E-01  8.00000000E-01  1.50000000E+00  8.00000000E-01  8.00000000E-01
  1.50000000E+00  8.00000000E-01  8.00000000E-01  1.50000000E+00  8.00000000E-01
  8.00000000E-01  1.50000000E+00  8.00000000E-01  8.00000000E-01  1.50000000E+00
  8.00000000E-01  8.00000000E-01  1.50000000E+00  8.00000000E-01  8.00000000E-01
  1.50000000E+00  8.00000000E-01  8.00000000E-01  1.50000000E+00  8.00000000E-01
  8.00000000E-01  1.50000000E+00  8.00000000E-01  8.00000000E-01  1.50000000E+00
  8.00000000E-01  8.00000000E-01  1.50000000E+00  8.00000000E-01  8.00000000E-01
  1.50000000E+00  8.00000000E-01  8.00000000E-01  1.50000000E+00  8.00000000E-01
  8.00000000E-01  1.50000000E+00  8.00000000E-01  8.00000000E-01  1.50000000E+00
  8.00000000E-01  8.00000000E-01  1.50000000E+00  8.00000000E-01  8.00000000E-01
  1.50000000E+00  8.00000000E-01  8.00000000E-01  1.50000000E+00  8.00000000E-01
  8.00000000E-01  1.50000000E+00  8.00000000E-01  8.00000000E-01  1.50000000E+00
  8.00000000E-01  8.00000000E-01  1.50000000E+00  8.00000000E-01  8.00000000E-01
  1.50000000E+00  8.00000000E-01  8.00000000E-01  1.50000000E+00  8.00000000E-01
  8.00000000E-01  1.50000000E+00  8.00000000E-01  8.00000000E-01  1.50000000E+00
  8.00000000E-01  8.00000000E-01  1.50000000E+00  8.00000000E-01  8.00000000E-01
  1.50000000E+00  8.00000000E-01  8.00000000E-01  1.50000000E+00  8.00000000E-01
  8.00000000E-01  1.50000000E+00  8.00000000E-01  8.00000000E-01  1.50000000E+00
  8.00000000E-01  8.00000000E-01  1.50000000E+00  8.00000000E-01  8.00000000E-01
  1.50000000E+00  8.00000000E-01  8.00000000E-01  1.50000000E+00  8.00000000E-01
  8.00000000E-01  1.50000000E+00  8.00000000E-01  8.00000000E-01  1.50000000E+00
  8.00000000E-01  8.00000000E-01  1.50000000E+00  8.00000000E-01  8.00000000E-01
  1.50000000E+00  8.00000000E-01  8.00000000E-01  1.50000000E+00  8.00000000E-01
  8.00000000E-01  1.50000000E+00  8.00000000E-01  8.00000000E-01  1.50000000E+00
  8.00000000E-01  8.00000000E-01  1.50000000E+00  8.00000000E-01  8.00000000E-01
  1.50000000E+00  8.00000000E-01  8.00000000E-01  1.50000000E+00  8.00000000E-01
  8.00000000E-01  1.50000000E+00  8.00000000E-01  8.00000000E-01  1.50000000E+00
  8.00000000E-01  8.00000000E-01  1.50000000E+00  8.00000000E-01  8.00000000E-01
  1.50000000E+00  8.00000000E-01  8.00000000E-01  1.50000000E+00  8.00000000E-01
  8.00000000E-01  1.50000000E+00  8.00000000E-01  8.00000000E-01  1.50000000E+00
  8.00000000E-01  8.00000000E-01  1.50000000E+00  8.00000000E-01  8.00000000E-01
  1.50000000E+00  8.00000000E-01  8.00000000E-01  1.50000000E+00  8.00000000E-01
  8.00000000E-01  1.50000000E+00  8.00000000E-01  8.00000000E-01  1.50000000E+00
  8.00000000E-01  8.00000000E-01  1.50000000E+00  8.00000000E-01  8.00000000E-01
  1.50000000E+00  8.00000000E-01  8.00000000E-01  1.50000000E+00  8.00000000E-01
  8.00000000E-01  1.50000000E+00  8.00000000E-01  8.00000000E-01  1.50000000E+00
  8.00000000E-01  8.00000000E-01  1.50000000E+00  8.00000000E-01  8.00000000E-01
  1.50000000E+00  8.00000000E-01  8.00000000E-01  1.50000000E+00  8.00000000E-01
  8.00000000E-01  1.50000000E+00  8.00000000E-01  8.00000000E-01  1.50000000E+00
  8.00000000E-01  8.00000000E-01  1.50000000E+00  8.00000000E-01  8.00000000E-01
  1.50000000E+00  8.00000000E-01  8.00000000E-01  1.50000000E+00  8.00000000E-01
  8.00000000E-01  1.50000000E+00  8.00000000E-01  8.00000000E-01  1.50000000E+00
  8.00000000E-01  8.00000000E-01  1.50000000E+00  8.00000000E-01  8.00000000E-01
  1.50000000E+00  8.00000000E-01  8.00000000E-01  1.50000000E+00  8.00000000E-01
  8.00000000E-01  1.50000000E+00  8.00000000E-01  8.00000000E-01  1.50000000E+00
  8.00000000E-01  8.00000000E-01  1.50000000E+00  8.00000000E-01  8.00000000E-01
  1.50000000E+00  8.00000000E-01  8.00000000E-01  1.50000000E+00  8.00000000E-01
  8.00000000E-01  1.50000000E+00  8.00000000E-01  8.00000000E-01  1.50000000E+00
  8.00000000E-01  8.00000000E-01  1.50000000E+00  8.00000000E-01  8.00000000E-01
  1.50000000E+00  8.00000000E-01  8.00000000E-01  1.50000000E+00  8.00000000E-01
  8.00000000E-01  1.50000000E+00  8.00000000E-01  8.00000000E-01  1.50000000E+00
  8.00000000E-01  8.00000000E-01  1.50000000E+00  8.00000000E-01  8.00000000E-01
  1.50000000E+00  8.00000000E-01  8.00000000E-01  1.50000000E+00  8.00000000E-01
  8.00000000E-01  1.50000000E+00  8.00000000E-01  8.00000000E-01  1.50000000E+00
  8.00000000E-01  8.00000000E-01  1.50000000E+00  8.00000000E-01  8.00000000E-01
  1.50000000E+00  8.00000000E-01  8.00000000E-01  1.50000000E+00  8.00000000E-01
  8.00000000E-01  1.50000000E+00  8.00000000E-01  8.00000000E-01  1.50000000E+00
  8.00000000E-01  8.00000000E-01  1.50000000E+00  8.00000000E-01  8.00000000E-01
  1.50000000E+00  8.00000000E-01  8.00000000E-01  1.50000000E+00  8.00000000E-01
  8.00000000E-01  1.50000000E+00  8.00000000E-01  8.00000000E-01  1.50000000E+00
  8.00000000E-01  8.00000000E-01  1.50000000E+00  8.00000000E-01  8.00000000E-01
  1.50000000E+00  8.00000000E-01  8.00000000E-01  1.50000000E+00  8.00000000E-01
  8.00000000E-01  1.50000000E+00  8.00000000E-01  8.00000000E-01  1.50000000E+00
  8.00000000E-01  8.00000000E-01  1.50000000E+00  8.00000000E-01  8.00000000E-01
  1.50000000E+00  8.00000000E-01  8.00000000E-01  1.50000000E+00  8.00000000E-01
  8.00000000E-01  1.50000000E+00  8.00000000E-01  8.00000000E-01  1.50000000E+00
  8.00000000E-01  8.00000000E-01  1.50000000E+00  8.00000000E-01  8.00000000E-01
  1.50000000E+00  8.00000000E-01  8.00000000E-01  1.50000000E+00  8.00000000E-01
  8.00000000E-01  1.50000000E+00  8.00000000E-01  8.00000000E-01  1.50000000E+00
  8.00000000E-01  8.00000000E-01  1.50000000E+00  8.00000000E-01  8.00000000E-01
  1.50000000E+00  8.00000000E-01  8.00000000E-01  1.50000000E+00  8.00000000E-01
  8.00000000E-01  1.50000000E+00  8.00000000E-01  8.00000000E-01  1.50000000E+00
  8.00000000E-01  8.00000000E-01  1.50000000E+00  8.00000000E-01  8.00000000E-01
  1.50000000E+00  8.00000000E-01  8.00000000E-01  1.50000000E+00  8.00000000E-01
  8.00000000E-01  1.50000000E+00  8.00000000E-01  8.00000000E-01  1.50000000E+00
  8.00000000E-01  8.00000000E-01  1.50000000E+00  8.00000000E-01  8.00000000E-01
  1.50000000E+00  8.00000000E-01  8.00000000E-01  1.50000000E+00  8.00000000E-01
  8.00000000E-01  1.50000000E+00  8.00000000E-01  8.00000000E-01  1.50000000E+00
  8.00000000E-01  8.00000000E-01  1.50000000E+00  8.00000000E-01  8.00000000E-01
  1.50000000E+00  8.00000000E-01  8.00000000E-01  1.50000000E+00  8.00000000E-01
  8.00000000E-01  1.50000000E+00  8.00000000E-01  8.00000000E-01  1.50000000E+00
  8.00000000E-01  8.00000000E-01  1.50000000E+00  8.00000000E-01  8.00000000E-01
  1.50000000E+00  8.00000000E-01  8.00000000E-01  1.50000000E+00  8.00000000E-01
  8.00000000E-01  1.50000000E+00  8.00000000E-01  8.00000000E-01  1.50000000E+00
  8.00000000E-01  8.00000000E-01  1.50000000E+00  8.00000000E-01  8.00000000E-01
  1.50000000E+00  8.00000000E-01  8.00000000E-01  1.50000000E+00  8.00000000E-01
  8.00000000E-01  1.50000000E+00  8.00000000E-01  8.00000000E-01  1.50000000E+00
  8.00000000E-01  8.00000000E-01  1.50000000E+00  8.00000000E-01  8.00000000E-01
  1.50000000E+00  8.00000000E-01  8.00000000E-01  1.50000000E+00  8.00000000E-01
  8.00000000E-01  1.50000000E+00  8.00000000E-01  8.00000000E-01  1.50000000E+00
  8.00000000E-01  8.00000000E-01  1.50000000E+00  8.00000000E-01  8.00000000E-01
  1.50000000E+00  8.00000000E-01  8.00000000E-01  1.50000000E+00  8.00000000E-01
  8.00000000E-01  1.50000000E+00  8.00000000E-01  8.00000000E-01  1.50000000E+00
  8.00000000E-01  8.00000000E-01  1.50000000E+00  8.00000000E-01  8.00000000E-01
  1.50000000E+00  8.00000000E-01  8.00000000E-01  1.50000000E+00  8.00000000E-01
  8.00000000E-01  1.50000000E+00  8.00000000E-01  8.00000000E-01  1.50000000E+00
  8.00000000E-01  8.00000000E-01  1.50000000E+00  8.00000000E-01  8.00000000E-01
  1.50000000E+00  8.00000000E-01  8.00000000E-01  1.50000000E+00  8.00000000E-01
  8.00000000E-01  1.50000000E+00  8.00000000E-01  8.00000000E-01  1.50000000E+00
  8.00000000E-01  8.00000000E-01  1.50000000E+00  8.00000000E-01  8.00000000E-01
  1.50000000E+00  8.00000000E-01  8.00000000E-01  1.50000000E+00  8.00000000E-01
  8.00000000E-01  1.50000000E+00  8.00000000E-01  8.00000000E-01  1.50000000E+00
  8.00000000E-01  8.00000000E-01  1.50000000E+00  8.00000000E-01  8.00000000E-01
  1.50000000E+00  8.00000000E-01  8.00000000E-01  1.50000000E+00  8.00000000E-01
  8.00000000E-01  1.50000000E+00  8.00000000E-01  8.00000000E-01  1.50000000E+00
  8.00000000E-01  8.00000000E-01  1.50000000E+00  8.00000000E-01  8.00000000E-01
  1.50000000E+00  8.00000000E-01  8.00000000E-01  1.50000000E+00  8.00000000E-01
  8.00000000E-01  1.50000000E+00  8.00000000E-01  8.00000000E-01  1.50000000E+00
  8.00000000E-01  8.00000000E-01  1.50000000E+00  8.00000000E-01  8.00000000E-01
  1.50000000E+00  8.00000000E-01  8.00000000E-01  1.50000000E+00  8.00000000E-01
  8.00000000E-01  1.50000000E+00  8.00000000E-01  8.00000000E-01  1.50000000E+00
  8.00000000E-01  8.00000000E-01  1.50000000E+00  8.00000000E-01  8.00000000E-01
  1.50000000E+00  8.00000000E-01  8.00000000E-01  1.50000000E+00  8.00000000E-01
  8.00000000E-01  1.50000000E+00  8.00000000E-01  8.00000000E-01  1.50000000E+00
  8.00000000E-01  8.00000000E-01  1.50000000E+00  8.00000000E-01  8.00000000E-01
  1.50000000E+00  8.00000000E-01  8.00000000E-01  1.50000000E+00  8.00000000E-01
  8.00000000E-01  1.50000000E+00  8.00000000E-01  8.00000000E-01  1.50000000E+00
  8.00000000E-01  8.00000000E-01  1.50000000E+00  8.00000000E-01  8.00000000E-01
  1.50000000E+00  8.00000000E-01  8.00000000E-01  1.50000000E+00  8.00000000E-01
  8.00000000E-01  1.50000000E+00  8.00000000E-01  8.00000000E-01  1.50000000E+00
  8.00000000E-01  8.00000000E-01  1.50000000E+00  8.00000000E-01  8.00000000E-01
  1.50000000E+00  8.00000000E-01  8.00000000E-01  1.50000000E+00  8.00000000E-01
  8.00000000E-01  1.50000000E+00  8.00000000E-01  8.00000000E-01  1.50000000E+00
  8.00000000E-01  8.00000000E-01  1.50000000E+00  8.00000000E-01  8.00000000E-01
  1.50000000E+00  8.00000000E-01  8.00000000E-01  1.50000000E+00  8.00000000E-01
  8.00000000E-01  1.50000000E+00  8.00000000E-01  8.00000000E-01  1.50000000E+00
  8.00000000E-01  8.00000000E-01  1.50000000E+00  8.00000000E-01  8.00000000E-01
  1.50000000E+00  8.00000000E-01  8.00000000E-01  1.50000000E+00  8.00000000E-01
  8.00000000E-01  1.50000000E+00  8.00000000E-01  8.00000000E-01  1.50000000E+00
  8.00000000E-01  8.00000000E-01  1.50000000E+00  8.00000000E-01  8.00000000E-01
  1.50000000E+00  8.00000000E-01  8.00000000E-01  1.50000000E+00  8.00000000E-01
  8.00000000E-01  1.50000000E+00  8.00000000E-01  8.00000000E-01  1.50000000E+00
  8.00000000E-01  8.00000000E-01  1.50000000E+00  8.00000000E-01  8.00000000E-01
  1.50000000E+00  8.00000000E-01  8.00000000E-01  1.50000000E+00  8.00000000E-01
  8.00000000E-01  1.50000000E+00  8.00000000E-01  8.00000000E-01  1.50000000E+00
  8.00000000E-01  8.00000000E-01  1.50000000E+00  8.00000000E-01  8.00000000E-01
  1.50000000E+00  8.00000000E-01  8.00000000E-01  1.50000000E+00  8.00000000E-01
  8.00000000E-01  1.50000000E+00  8.00000000E-01  8.00000000E-01  1.50000000E+00
  8.00000000E-01  8.00000000E-01  1.50000000E+00  8.00000000E-01  8.00000000E-01
  1.50000000E+00  8.00000000E-01  8.00000000E-01  1.50000000E+00  8.00000000E-01
  8.00000000E-01  1.50000000E+00  8.00000000E-01  8.00000000E-01  1.50000000E+00
  8.00000000E-01  8.00000000E-01  1.50000000E+00  8.00000000E-01  8.00000000E-01
  1.50000000E+00  8.00000000E-01  8.00000000E-01  1.50000000E+00  8.00000000E-01
  8.00000000E-01  1.50000000E+00  8.00000000E-01  8.00000000E-01  1.50000000E+00
  8.00000000E-01  8.00000000E-01  1.50000000E+00  8.00000000E-01  8.00000000E-01
  1.50000000E+00  8.00000000E-01  8.00000000E-01  1.50000000E+00  8.00000000E-01
  8.00000000E-01  1.50000000E+00  8.00000000E-01  8.00000000E-01  1.50000000E+00
  8.00000000E-01  8.00000000E-01  1.50000000E+00  8.00000000E-01  8.00000000E-01
  1.50000000E+00  8.00000000E-01  8.00000000E-01  1.50000000E+00  8.00000000E-01
  8.00000000E-01  1.50000000E+00  8.00000000E-01  8.00000000E-01  1.50000000E+00
  8.00000000E-01  8.00000000E-01  1.50000000E+00  8.00000000E-01  8.00000000E-01
  1.50000000E+00  8.00000000E-01  8.00000000E-01  1.50000000E+00  8.00000000E-01
  8.00000000E-01  1.50000000E+00  8.00000000E-01  8.00000000E-01  1.50000000E+00
  8.00000000E-01  8.00000000E-01  1.50000000E+00  8.00000000E-01  8.00000000E-01
  1.50000000E+00  8.00000000E-01  8.00000000E-01  1.50000000E+00  8.00000000E-01
  8.00000000E-01  1.50000000E+00  8.00000000E-01  8.00000000E-01  1.50000000E+00
  8.00000000E-01  8.00000000E-01  1.50000000E+00  8.00000000E-01  8.00000000E-01
  1.50000000E+00  8.00000000E-01  8.00000000E-01  1.50000000E+00  8.00000000E-01
  8.00000000E-01  1.50000000E+00  8.00000000E-01  8.00000000E-01  1.50000000E+00
  8.00000000E-01  8.00000000E-01  1.50000000E+00  8.00000000E-01  8.00000000E-01
  1.50000000E+00  8.00000000E-01  8.00000000E-01  1.50000000E+00  8.00000000E-01
  8.00000000E-01  1.50000000E+00  8.00000000E-01  8.00000000E-01  1.50000000E+00
  8.00000000E-01  8.00000000E-01  1.50000000E+00  8.00000000E-01  8.00000000E-01
  1.50000000E+00  8.00000000E-01  8.00000000E-01  1.50000000E+00  8.00000000E-01
  8.00000000E-01  1.50000000E+00  8.00000000E-01  8.00000000E-01  1.50000000E+00
  8.00000000E-01  8.00000000E-01  1.50000000E+00  8.00000000E-01  8.00000000E-01
  1.50000000E+00  8.00000000E-01  8.00000000E-01  1.50000000E+00  8.00000000E-01
  8.00000000E-01  1.50000000E+00  8.00000000E-01  8.00000000E-01  1.50000000E+00
  8.00000000E-01  8.00000000E-01  1.50000000E+00  8.00000000E-01  8.00000000E-01
  1.50000000E+00  8.00000000E-01  8.00000000E-01  1.50000000E+00  8.00000000E-01
  8.00000000E-01  1.50000000E+00  8.00000000E-01  8.00000000E-01  1.50000000E+00
  8.00000000E-01  8.00000000E-01  1.50000000E+00  8.00000000E-01  8.00000000E-01
  1.50000000E+00  8.00000000E-01  8.00000000E-01  1.50000000E+00  8.00000000E-01
  8.00000000E-01  1.50000000E+00  8.00000000E-01  8.00000000E-01  1.50000000E+00
  8.00000000E-01  8.00000000E-01  1.50000000E+00  8.00000000E-01  8.00000000E-01
  1.50000000E+00  8.00000000E-01  8.00000000E-01  1.50000000E+00  8.00000000E-01
  8.00000000E-01  1.50000000E+00  8.00000000E-01  8.00000000E-01  1.50000000E+00
  8.00000000E-01  8.00000000E-01  1.50000000E+00  8.00000000E-01  8.00000000E-01
  1.50000000E+00  8.00000000E-01  8.00000000E-01  1.50000000E+00  8.00000000E-01
  8.00000000E-01  1.50000000E+00  8.00000000E-01  8.00000000E-01  1.50000000E+00
  8.00000000E-01  8.00000000E-01  1.50000000E+00  8.00000000E-01  8.00000000E-01
  1.50000000E+00  8.00000000E-01  8.00000000E-01  1.50000000E+00  8.00000000E-01
  8.00000000E-01  1.50000000E+00  8.00000000E-01  8.00000000E-01  1.50000000E+00
  8.00000000E-01  8.00000000E-01  1.50000000E+00  8.00000000E-01  8.00000000E-01
  1.50000000E+00  8.00000000E-01  8.00000000E-01  1.50000000E+00  8.00000000E-01
  8.00000000E-01  1.50000000E+00  8.00000000E-01  8.00000000E-01  1.50000000E+00
  8.00000000E-01  8.00000000E-01  1.50000000E+00  8.00000000E-01  8.00000000E-01
  1.50000000E+00  8.00000000E-01  8.00000000E-01  1.50000000E+00  8.00000000E-01
  8.00000000E-01  1.50000000E+00  8.00000000E-01  8.00000000E-01  1.50000000E+00
  8.00000000E-01  8.00000000E-01  1.50000000E+00  8.00000000E-01  8.00000000E-01
  1.50000000E+00  8.00000000E-01  8.00000000E-01  1.50000000E+00  8.00000000E-01
  8.00000000E-01  1.50000000E+00  8.00000000E-01  8.00000000E-01  1.50000000E+00
  8.00000000E-01  8.00000000E-01  1.50000000E+00  8.00000000E-01  8.00000000E-01
  1.50000000E+00  8.00000000E-01  8.00000000E-01  1.50000000E+00  8.00000000E-01
  8.00000000E-01  1.50000000E+00  8.00000000E-01  8.00000000E-01  1.50000000E+00
  8.00000000E-01  8.00000000E-01  1.50000000E+00  8.00000000E-01  8.00000000E-01
  1.50000000E+00  8.00000000E-01  8.00000000E-01  1.50000000E+00  8.00000000E-01
  8.00000000E-01  1.50000000E+00  8.00000000E-01  8.00000000E-01  1.50000000E+00
  8.00000000E-01  8.00000000E-01  1.50000000E+00  8.00000000E-01  8.00000000E-01
  1.50000000E+00  8.00000000E-01  8.00000000E-01  1.50000000E+00  8.00000000E-01
  8.00000000E-01  1.50000000E+00  8.00000000E-01  8.00000000E-01  1.50000000E+00
  8.00000000E-01  8.00000000E-01  1.50000000E+00  8.00000000E-01  8.00000000E-01
  1.50000000E+00  8.00000000E-01  8.00000000E-01  1.50000000E+00  8.00000000E-01
  8.00000000E-01  1.50000000E+00  8.00000000E-01  8.00000000E-01  1.50000000E+00
  8.00000000E-01  8.00000000E-01  1.50000000E+00  8.00000000E-01  8.00000000E-01
  1.50000000E+00  8.00000000E-01  8.00000000E-01  1.50000000E+00  8.00000000E-01
  8.00000000E-01  1.50000000E+00  8.00000000E-01  8.00000000E-01  1.50000000E+00
  8.00000000E-01  8.00000000E-01  1.50000000E+00  8.00000000E-01  8.00000000E-01
  1.50000000E+00  8.00000000E-01  8.00000000E-01  1.50000000E+00  8.00000000E-01
  8.00000000E-01  1.50000000E+00  8.00000000E-01  8.00000000E-01  1.50000000E+00
  8.00000000E-01  8.00000000E-01  1.50000000E+00  8.00000000E-01  8.00000000E-01
  1.50000000E+00  8.00000000E-01  8.00000000E-01  1.50000000E+00  8.00000000E-01
  8.00000000E-01  1.50000000E+00  8.00000000E-01  8.00000000E-01  1.50000000E+00
  8.00000000E-01  8.00000000E-01  1.50000000E+00  8.00000000E-01  8.00000000E-01
  1.50000000E+00  8.00000000E-01  8.00000000E-01  1.50000000E+00  8.00000000E-01
  8.00000000E-01  1.50000000E+00  8.00000000E-01  8.00000000E-01  1.50000000E+00
  8.00000000E-01  8.00000000E-01  1.50000000E+00  8.00000000E-01  8.00000000E-01
  1.50000000E+00  8.00000000E-01  8.00000000E-01  1.50000000E+00  8.00000000E-01
  8.00000000E-01  1.50000000E+00  8.00000000E-01  8.00000000E-01  1.50000000E+00
  8.00000000E-01  8.00000000E-01  1.50000000E+00  8.00000000E-01  8.00000000E-01
  1.50000000E+00  8.00000000E-01  8.00000000E-01  1.50000000E+00  8.00000000E-01
  8.00000000E-01  1.50000000E+00  8.00000000E-01  8.00000000E-01  1.50000000E+00
  8.00000000E-01  8.00000000E-01  1.50000000E+00  8.00000000E-01  8.00000000E-01
  1.50000000E+00  8.00000000E-01  8.00000000E-01  1.50000000E+00  8.00000000E-01
  8.00000000E-01  1.50000000E+00  8.00000000E-01  8.00000000E-01  1.50000000E+00
  8.00000000E-01  8.00000000E-01  1.50000000E+00  8.00000000E-01  8.00000000E-01
  1.50000000E+00  8.00000000E-01  8.00000000E-01  1.50000000E+00  8.00000000E-01
  8.00000000E-01  1.50000000E+00  8.00000000E-01  8.00000000E-01  1.50000000E+00
  8.00000000E-01  8.00000000E-01  1.50000000E+00  8.00000000E-01  8.00000000E-01
  1.50000000E+00  8.00000000E-01  8.00000000E-01  1.50000000E+00  8.00000000E-01
  8.00000000E-01  1.50000000E+00  8.00000000E-01  8.00000000E-01  1.50000000E+00
  8.00000000E-01  8.00000000E-01  1.50000000E+00  8.00000000E-01  8.00000000E-01
  1.50000000E+00  8.00000000E-01  8.00000000E-01  1.50000000E+00  8.00000000E-01
  8.00000000E-01  1.50000000E+00  8.00000000E-01  8.00000000E-01  1.50000000E+00
  8.00000000E-01  8.00000000E-01  1.50000000E+00  8.00000000E-01  8.00000000E-01
  1.50000000E+00  8.00000000E-01  8.00000000E-01  1.50000000E+00  8.00000000E-01
  8.00000000E-01  1.50000000E+00  8.00000000E-01  8.00000000E-01  1.50000000E+00
  8.00000000E-01  8.00000000E-01  1.50000000E+00  8.00000000E-01  8.00000000E-01
  1.50000000E+00  8.00000000E-01  8.00000000E-01  1.50000000E+00  8.00000000E-01
  8.00000000E-01  1.50000000E+00  8.00000000E-01  8.00000000E-01  1.50000000E+00
  8.00000000E-01  8.00000000E-01  1.50000000E+00  8.00000000E-01  8.00000000E-01
  1.50000000E+00  8.00000000E-01  8.00000000E-01  1.50000000E+00  8.00000000E-01
  8.00000000E-01  1.50000000E+00  8.00000000E-01  8.00000000E-01  1.50000000E+00
  8.00000000E-01  8.00000000E-01  1.50000000E+00  8.00000000E-01  8.00000000E-01
  1.50000000E+00  8.00000000E-01  8.00000000E-01  1.50000000E+00  8.00000000E-01
  8.00000000E-01  1.50000000E+00  8.00000000E-01  8.00000000E-01  1.50000000E+00
  8.00000000E-01  8.00000000E-01  1.50000000E+00  8.00000000E-01  8.00000000E-01
  1.50000000E+00  8.00000000E-01  8.00000000E-01  1.50000000E+00  8.00000000E-01
  8.00000000E-01  1.50000000E+00  8.00000000E-01  8.00000000E-01  1.50000000E+00
  8.00000000E-01  8.00000000E-01  1.50000000E+00  8.00000000E-01  8.00000000E-01
  1.50000000E+00  8.00000000E-01  8.00000000E-01  1.50000000E+00  8.00000000E-01
  8.00000000E-01  1.50000000E+00  8.00000000E-01  8.00000000E-01  1.50000000E+00
  8.00000000E-01  8.00000000E-01  1.50000000E+00  8.00000000E-01  8.00000000E-01
  1.50000000E+00  8.00000000E-01  8.00000000E-01  1.50000000E+00  8.00000000E-01
  8.00000000E-01  1.50000000E+00  8.00000000E-01  8.00000000E-01  1.50000000E+00
  8.00000000E-01  8.00000000E-01  1.50000000E+00  8.00000000E-01  8.00000000E-01
  1.50000000E+00  8.00000000E-01  8.00000000E-01  1.50000000E+00  8.00000000E-01
  8.00000000E-01  1.50000000E+00  8.00000000E-01  8.00000000E-01  1.50000000E+00
  8.00000000E-01  8.00000000E-01  1.50000000E+00  8.00000000E-01  8.00000000E-01
  1.50000000E+00  8.00000000E-01  8.00000000E-01  1.50000000E+00  8.00000000E-01
  8.00000000E-01  1.50000000E+00  8.00000000E-01  8.00000000E-01  1.50000000E+00
  8.00000000E-01  8.00000000E-01  1.50000000E+00  8.00000000E-01  8.00000000E-01
  1.50000000E+00  8.00000000E-01  8.00000000E-01  1.50000000E+00  8.00000000E-01
  8.00000000E-01  1.50000000E+00  8.00000000E-01  8.00000000E-01  1.50000000E+00
  8.00000000E-01  8.00000000E-01  1.50000000E+00  8.00000000E-01  8.00000000E-01
  1.50000000E+00  8.00000000E-01  8.00000000E-01  1.50000000E+00  8.00000000E-01
  8.00000000E-01  1.50000000E+00  8.00000000E-01  8.00000000E-01  1.50000000E+00
  8.00000000E-01  8.00000000E-01  1.50000000E+00  8.00000000E-01  8.00000000E-01
  1.50000000E+00  8.00000000E-01  8.00000000E-01  1.50000000E+00  8.00000000E-01
  8.00000000E-01  1.50000000E+00  8.00000000E-01  8.00000000E-01  1.50000000E+00
  8.00000000E-01  8.00000000E-01  1.50000000E+00  8.00000000E-01  8.00000000E-01
  1.50000000E+00  8.00000000E-01  8.00000000E-01  1.50000000E+00  8.00000000E-01
  8.00000000E-01  1.50000000E+00  8.00000000E-01  8.00000000E-01  1.50000000E+00
  8.00000000E-01  8.00000000E-01  1.50000000E+00  8.00000000E-01  8.00000000E-01
  1.50000000E+00  8.00000000E-01  8.00000000E-01  1.50000000E+00  8.00000000E-01
  8.00000000E-01  1.50000000E+00  8.00000000E-01  8.00000000E-01  1.50000000E+00
  8.00000000E-01  8.00000000E-01  1.50000000E+00  8.00000000E-01  8.00000000E-01
  1.50000000E+00  8.00000000E-01  8.00000000E-01  1.50000000E+00  8.00000000E-01
  8.00000000E-01  1.50000000E+00  8.00000000E-01  8.00000000E-01  1.50000000E+00
  8.00000000E-01  8.00000000E-01  1.50000000E+00  8.00000000E-01  8.00000000E-01
  1.50000000E+00  8.00000000E-01  8.00000000E-01  1.50000000E+00  8.00000000E-01
  8.00000000E-01  1.50000000E+00  8.00000000E-01  8.00000000E-01  1.50000000E+00
  8.00000000E-01  8.00000000E-01  1.50000000E+00  8.00000000E-01  8.00000000E-01
  1.50000000E+00  8.00000000E-01  8.00000000E-01  1.50000000E+00  8.00000000E-01
  8.00000000E-01  1.50000000E+00  8.00000000E-01  8.00000000E-01  1.50000000E+00
  8.00000000E-01  8.00000000E-01  1.50000000E+00  8.00000000E-01  8.00000000E-01
  1.50000000E+00  8.00000000E-01  8.00000000E-01  1.50000000E+00  8.00000000E-01
  8.00000000E-01  1.50000000E+00  8.00000000E-01  8.00000000E-01  1.50000000E+00
  8.00000000E-01  8.00000000E-01  1.50000000E+00  8.00000000E-01  8.00000000E-01
  1.50000000E+00  8.00000000E-01  8.00000000E-01  1.50000000E+00  8.00000000E-01
  8.00000000E-01  1.50000000E+00  8.00000000E-01  8.00000000E-01  1.50000000E+00
  8.00000000E-01  8.00000000E-01  1.50000000E+00  8.00000000E-01  8.00000000E-01
  1.50000000E+00  8.00000000E-01  8.00000000E-01  1.50000000E+00  8.00000000E-01
  8.00000000E-01  1.50000000E+00  8.00000000E-01  8.00000000E-01  1.50000000E+00
  8.00000000E-01  8.00000000E-01  1.50000000E+00  8.00000000E-01  8.00000000E-01
  1.50000000E+00  8.00000000E-01  8.00000000E-01  1.50000000E+00  8.00000000E-01
  8.00000000E-01  1.50000000E+00  8.00000000E-01  8.00000000E-01  1.50000000E+00
  8.00000000E-01  8.00000000E-01  1.50000000E+00  8.00000000E-01  8.00000000E-01
  1.50000000E+00  8.00000000E-01  8.00000000E-01  1.50000000E+00  8.00000000E-01
  8.00000000E-01  1.50000000E+00  8.00000000E-01  8.00000000E-01  1.50000000E+00
  8.00000000E-01  8.00000000E-01  1.50000000E+00  8.00000000E-01  8.00000000E-01
  1.50000000E+00  8.00000000E-01  8.00000000E-01  1.50000000E+00  8.00000000E-01
  8.00000000E-01  1.50000000E+00  8.00000000E-01  8.00000000E-01  1.50000000E+00
  8.00000000E-01  8.00000000E-01  1.50000000E+00  8.00000000E-01  8.00000000E-01
  1.50000000E+00  8.00000000E-01  8.00000000E-01  1.50000000E+00  8.00000000E-01
  8.00000000E-01  1.50000000E+00  8.00000000E-01  8.00000000E-01  1.50000000E+00
  8.00000000E-01  8.00000000E-01  1.50000000E+00  8.00000000E-01  8.00000000E-01
  1.50000000E+00  8.00000000E-01  8.00000000E-01  1.50000000E+00  8.00000000E-01
  8.00000000E-01  1.50000000E+00  8.00000000E-01  8.00000000E-01  1.50000000E+00
  8.00000000E-01  8.00000000E-01  1.50000000E+00  8.00000000E-01  8.00000000E-01
  1.50000000E+00  8.00000000E-01  8.00000000E-01  1.50000000E+00  8.00000000E-01
  8.00000000E-01  1.50000000E+00  8.00000000E-01  8.00000000E-01  1.50000000E+00
  8.00000000E-01  8.00000000E-01  1.50000000E+00  8.00000000E-01  8.00000000E-01
  1.50000000E+00  8.00000000E-01  8.00000000E-01  1.50000000E+00  8.00000000E-01
  8.00000000E-01  1.50000000E+00  8.00000000E-01  8.00000000E-01  1.50000000E+00
  8.00000000E-01  8.00000000E-01  1.50000000E+00  8.00000000E-01  8.00000000E-01
  1.50000000E+00  8.00000000E-01  8.00000000E-01  1.50000000E+00  8.00000000E-01
  8.00000000E-01  1.50000000E+00  8.00000000E-01  8.00000000E-01  1.50000000E+00
  8.00000000E-01  8.00000000E-01  1.50000000E+00  8.00000000E-01  8.00000000E-01
  1.50000000E+00  8.00000000E-01  8.00000000E-01  1.50000000E+00  8.00000000E-01
  8.00000000E-01  1.50000000E+00  8.00000000E-01  8.00000000E-01  1.50000000E+00
  8.00000000E-01  8.00000000E-01  1.50000000E+00  8.00000000E-01  8.00000000E-01
  1.50000000E+00  8.00000000E-01  8.00000000E-01  1.50000000E+00  8.00000000E-01
  8.00000000E-01  1.50000000E+00  8.00000000E-01  8.00000000E-01  1.50000000E+00
  8.00000000E-01  8.00000000E-01  1.50000000E+00  8.00000000E-01  8.00000000E-01
  1.50000000E+00  8.00000000E-01  8.00000000E-01  1.50000000E+00  8.00000000E-01
  8.00000000E-01  1.50000000E+00  8.00000000E-01  8.00000000E-01  1.50000000E+00
  8.00000000E-01  8.00000000E-01  1.50000000E+00  8.00000000E-01  8.00000000E-01
  1.50000000E+00  8.00000000E-01  8.00000000E-01  1.50000000E+00  8.00000000E-01
  8.00000000E-01  1.50000000E+00  8.00000000E-01  8.00000000E-01  1.50000000E+00
  8.00000000E-01  8.00000000E-01  1.50000000E+00  8.00000000E-01  8.00000000E-01
  1.50000000E+00  8.00000000E-01  8.00000000E-01  1.50000000E+00  8.00000000E-01
  8.00000000E-01  1.50000000E+00  8.00000000E-01  8.00000000E-01  1.50000000E+00
  8.00000000E-01  8.00000000E-01  1.50000000E+00  8.00000000E-01  8.00000000E-01
  1.50000000E+00  8.00000000E-01  8.00000000E-01  1.50000000E+00  8.00000000E-01
  8.00000000E-01  1.50000000E+00  8.00000000E-01  8.00000000E-01  1.50000000E+00
  8.00000000E-01  8.00000000E-01  1.50000000E+00  8.00000000E-01  8.00000000E-01
  1.50000000E+00  8.00000000E-01  8.00000000E-01  1.50000000E+00  8.00000000E-01
  8.00000000E-01  1.50000000E+00  8.00000000E-01  8.00000000E-01  1.50000000E+00
  8.00000000E-01  8.00000000E-01  1.50000000E+00  8.00000000E-01  8.00000000E-01
  1.50000000E+00  8.00000000E-01  8.00000000E-01  1.50000000E+00  8.00000000E-01
  8.00000000E-01  1.50000000E+00  8.00000000E-01  8.00000000E-01  1.50000000E+00
  8.00000000E-01  8.00000000E-01  1.50000000E+00  8.00000000E-01  8.00000000E-01
  1.50000000E+00  8.00000000E-01  8.00000000E-01  1.50000000E+00  8.00000000E-01
  8.00000000E-01  1.50000000E+00  8.00000000E-01  8.00000000E-01  1.50000000E+00
  8.00000000E-01  8.00000000E-01  1.50000000E+00  8.00000000E-01  8.00000000E-01
  1.50000000E+00  8.00000000E-01  8.00000000E-01  1.50000000E+00  8.00000000E-01
  8.00000000E-01  1.50000000E+00  8.00000000E-01  8.00000000E-01  1.50000000E+00
  8.00000000E-01  8.00000000E-01  1.50000000E+00  8.00000000E-01  8.00000000E-01
  1.50000000E+00  8.00000000E-01  8.00000000E-01  1.50000000E+00  8.00000000E-01
  8.00000000E-01  1.50000000E+00  8.00000000E-01  8.00000000E-01  1.50000000E+00
  8.00000000E-01  8.00000000E-01  1.50000000E+00  8.00000000E-01  8.00000000E-01
  1.50000000E+00  8.00000000E-01  8.00000000E-01  1.50000000E+00  8.00000000E-01
  8.00000000E-01  1.50000000E+00  8.00000000E-01  8.00000000E-01  1.50000000E+00
  8.00000000E-01  8.00000000E-01  1.50000000E+00  8.00000000E-01  8.00000000E-01
  1.50000000E+00  8.00000000E-01  8.00000000E-01  1.50000000E+00  8.00000000E-01
  8.00000000E-01  1.50000000E+00  8.00000000E-01  8.00000000E-01  1.50000000E+00
  8.00000000E-01  8.00000000E-01  1.50000000E+00  8.00000000E-01  8.00000000E-01
  1.50000000E+00  8.00000000E-01  8.00000000E-01  1.50000000E+00  8.00000000E-01
  8.00000000E-01  1.50000000E+00  8.00000000E-01  8.00000000E-01  1.50000000E+00
  8.00000000E-01  8.00000000E-01  1.50000000E+00  8.00000000E-01  8.00000000E-01
  1.50000000E+00  8.00000000E-01  8.00000000E-01  1.50000000E+00  8.00000000E-01
  8.00000000E-01  1.50000000E+00  8.00000000E-01  8.00000000E-01  1.50000000E+00
  8.00000000E-01  8.00000000E-01  1.50000000E+00  8.00000000E-01  8.00000000E-01
  1.50000000E+00  8.00000000E-01  8.00000000E-01  1.50000000E+00  8.00000000E-01
  8.00000000E-01  1.50000000E+00  8.00000000E-01  8.00000000E-01  1.50000000E+00
  8.00000000E-01  8.00000000E-01  1.50000000E+00  8.00000000E-01  8.00000000E-01
  1.50000000E+00  8.00000000E-01  8.00000000E-01  1.50000000E+00  8.00000000E-01
  8.00000000E-01  1.50000000E+00  8.00000000E-01  8.00000000E-01  1.50000000E+00
  8.00000000E-01  8.00000000E-01  1.50000000E+00  8.00000000E-01  8.00000000E-01
  1.50000000E+00  8.00000000E-01  8.00000000E-01  1.50000000E+00  8.00000000E-01
  8.00000000E-01  1.50000000E+00  8.00000000E-01  8.00000000E-01  1.50000000E+00
  8.00000000E-01  8.00000000E-01  1.50000000E+00  8.00000000E-01  8.00000000E-01
  1.50000000E+00  8.00000000E-01  8.00000000E-01  1.50000000E+00  8.00000000E-01
  8.00000000E-01  1.50000000E+00  8.00000000E-01  8.00000000E-01  1.50000000E+00
  8.00000000E-01  8.00000000E-01  1.50000000E+00  8.00000000E-01  8.00000000E-01
  1.50000000E+00  8.00000000E-01  8.00000000E-01  1.50000000E+00  8.00000000E-01
  8.00000000E-01  1.50000000E+00  8.00000000E-01  8.00000000E-01  1.50000000E+00
  8.00000000E-01  8.00000000E-01  1.50000000E+00  8.00000000E-01  8.00000000E-01
  1.50000000E+00  8.00000000E-01  8.00000000E-01  1.50000000E+00  8.00000000E-01
  8.00000000E-01  1.50000000E+00  8.00000000E-01  8.00000000E-01  1.50000000E+00
  8.00000000E-01  8.00000000E-01  1.50000000E+00  8.00000000E-01  8.00000000E-01
  1.50000000E+00  8.00000000E-01  8.00000000E-01  1.50000000E+00  8.00000000E-01
  8.00000000E-01  1.50000000E+00  8.00000000E-01  8.00000000E-01  1.50000000E+00
  8.00000000E-01  8.00000000E-01  1.50000000E+00  8.00000000E-01  8.00000000E-01
  1.50000000E+00  8.00000000E-01  8.00000000E-01  1.50000000E+00  8.00000000E-01
  8.00000000E-01  1.50000000E+00  8.00000000E-01  8.00000000E-01  1.50000000E+00
  8.00000000E-01  8.00000000E-01  1.50000000E+00  8.00000000E-01  8.00000000E-01
  1.50000000E+00  8.00000000E-01  8.00000000E-01  1.50000000E+00  8.00000000E-01
  8.00000000E-01  1.50000000E+00  8.00000000E-01  8.00000000E-01  1.50000000E+00
  8.00000000E-01  8.00000000E-01  1.50000000E+00  8.00000000E-01  8.00000000E-01
  1.50000000E+00  8.00000000E-01  8.00000000E-01  1.50000000E+00  8.00000000E-01
  8.00000000E-01  1.50000000E+00  8.00000000E-01  8.00000000E-01  1.50000000E+00
  8.00000000E-01  8.00000000E-01  1.50000000E+00  8.00000000E-01  8.00000000E-01
  1.50000000E+00  8.00000000E-01  8.00000000E-01  1.50000000E+00  8.00000000E-01
  8.00000000E-01  1.50000000E+00  8.00000000E-01  8.00000000E-01  1.50000000E+00
  8.00000000E-01  8.00000000E-01  1.50000000E+00  8.00000000E-01  8.00000000E-01
  1.50000000E+00  8.00000000E-01  8.00000000E-01  1.50000000E+00  8.00000000E-01
  8.00000000E-01  1.50000000E+00  8.00000000E-01  8.00000000E-01  1.50000000E+00
  8.00000000E-01  8.00000000E-01  1.50000000E+00  8.00000000E-01  8.00000000E-01
  1.50000000E+00  8.00000000E-01  8.00000000E-01  1.50000000E+00  8.00000000E-01
  8.00000000E-01  1.50000000E+00  8.00000000E-01  8.00000000E-01  1.50000000E+00
  8.00000000E-01  8.00000000E-01  1.50000000E+00  8.00000000E-01  8.00000000E-01
  1.50000000E+00  8.00000000E-01  8.00000000E-01  1.50000000E+00  8.00000000E-01
  8.00000000E-01  1.50000000E+00  8.00000000E-01  8.00000000E-01  1.50000000E+00
  8.00000000E-01  8.00000000E-01  1.50000000E+00  8.00000000E-01  8.00000000E-01
  1.50000000E+00  8.00000000E-01  8.00000000E-01  1.50000000E+00  8.00000000E-01
  8.00000000E-01  1.50000000E+00  8.00000000E-01  8.00000000E-01  1.50000000E+00
  8.00000000E-01  8.00000000E-01  1.50000000E+00  8.00000000E-01  8.00000000E-01
  1.50000000E+00  8.00000000E-01  8.00000000E-01  1.50000000E+00  8.00000000E-01
  8.00000000E-01  1.50000000E+00  8.00000000E-01  8.00000000E-01  1.50000000E+00
  8.00000000E-01  8.00000000E-01  1.50000000E+00  8.00000000E-01  8.00000000E-01
  1.50000000E+00  8.00000000E-01  8.00000000E-01  1.50000000E+00  8.00000000E-01
  8.00000000E-01  1.50000000E+00  8.00000000E-01  8.00000000E-01  1.50000000E+00
  8.00000000E-01  8.00000000E-01  1.50000000E+00  8.00000000E-01  8.00000000E-01
  1.50000000E+00  8.00000000E-01  8.00000000E-01  1.50000000E+00  8.00000000E-01
  8.00000000E-01  1.50000000E+00  8.00000000E-01  8.00000000E-01  1.50000000E+00
  8.00000000E-01  8.00000000E-01  1.50000000E+00  8.00000000E-01  8.00000000E-01
  1.50000000E+00  8.00000000E-01  8.00000000E-01  1.50000000E+00  8.00000000E-01
  8.00000000E-01  1.50000000E+00  8.00000000E-01  8.00000000E-01  1.50000000E+00
  8.00000000E-01  8.00000000E-01  1.50000000E+00  8.00000000E-01  8.00000000E-01
  1.50000000E+00  8.00000000E-01  8.00000000E-01  1.50000000E+00  8.00000000E-01
  8.00000000E-01  1.50000000E+00  8.00000000E-01  8.00000000E-01  1.50000000E+00
  8.00000000E-01  8.00000000E-01  1.50000000E+00  8.00000000E-01  8.00000000E-01
  1.50000000E+00  8.00000000E-01  8.00000000E-01  1.50000000E+00  8.00000000E-01
  8.00000000E-01  1.50000000E+00  8.00000000E-01  8.00000000E-01  1.50000000E+00
  8.00000000E-01  8.00000000E-01  1.50000000E+00  8.00000000E-01  8.00000000E-01
  1.50000000E+00  8.00000000E-01  8.00000000E-01  1.50000000E+00  8.00000000E-01
  8.00000000E-01  1.50000000E+00  8.00000000E-01  8.00000000E-01  1.50000000E+00
  8.00000000E-01  8.00000000E-01  1.50000000E+00  8.00000000E-01  8.00000000E-01
  1.50000000E+00  8.00000000E-01  8.00000000E-01  1.50000000E+00  8.00000000E-01
  8.00000000E-01  1.50000000E+00  8.00000000E-01  8.00000000E-01  1.50000000E+00
  8.00000000E-01  8.00000000E-01  1.50000000E+00  8.00000000E-01  8.00000000E-01
  1.50000000E+00  8.00000000E-01  8.00000000E-01  1.50000000E+00  8.00000000E-01
  8.00000000E-01  1.50000000E+00  8.00000000E-01  8.00000000E-01  1.50000000E+00
  8.00000000E-01  8.00000000E-01  1.50000000E+00  8.00000000E-01  8.00000000E-01
  1.50000000E+00  8.00000000E-01  8.00000000E-01  1.50000000E+00  8.00000000E-01
  8.00000000E-01  1.50000000E+00  8.00000000E-01  8.00000000E-01  1.50000000E+00
  8.00000000E-01  8.00000000E-01  1.50000000E+00  8.00000000E-01  8.00000000E-01
  1.50000000E+00  8.00000000E-01  8.00000000E-01  1.50000000E+00  8.00000000E-01
  8.00000000E-01  1.50000000E+00  8.00000000E-01  8.00000000E-01  1.50000000E+00
  8.00000000E-01  8.00000000E-01  1.50000000E+00  8.00000000E-01  8.00000000E-01
  1.50000000E+00  8.00000000E-01  8.00000000E-01  1.50000000E+00  8.00000000E-01
  8.00000000E-01  1.50000000E+00  8.00000000E-01  8.00000000E-01  1.50000000E+00
  8.00000000E-01  8.00000000E-01  1.50000000E+00  8.00000000E-01  8.00000000E-01
  1.50000000E+00  8.00000000E-01  8.00000000E-01  1.50000000E+00  8.00000000E-01
  8.00000000E-01  1.50000000E+00  8.00000000E-01  8.00000000E-01  1.50000000E+00
  8.00000000E-01  8.00000000E-01  1.50000000E+00  8.00000000E-01  8.00000000E-01
  1.50000000E+00  8.00000000E-01  8.00000000E-01  1.50000000E+00  8.00000000E-01
  8.00000000E-01  1.50000000E+00  8.00000000E-01  8.00000000E-01  1.50000000E+00
  8.00000000E-01  8.00000000E-01  1.50000000E+00  8.00000000E-01  8.00000000E-01
  1.50000000E+00  8.00000000E-01  8.00000000E-01  1.50000000E+00  8.00000000E-01
  8.00000000E-01  1.50000000E+00  8.00000000E-01  8.00000000E-01  1.50000000E+00
  8.00000000E-01  8.00000000E-01  1.50000000E+00  8.00000000E-01  8.00000000E-01
  1.50000000E+00  8.00000000E-01  8.00000000E-01  1.50000000E+00  8.00000000E-01
  8.00000000E-01  1.50000000E+00  8.00000000E-01  8.00000000E-01  1.50000000E+00
  8.00000000E-01  8.00000000E-01  1.50000000E+00  8.00000000E-01  8.00000000E-01
  1.50000000E+00  8.00000000E-01  8.00000000E-01  1.50000000E+00  8.00000000E-01
  8.00000000E-01  1.50000000E+00  8.00000000E-01  8.00000000E-01  1.50000000E+00
  8.00000000E-01  8.00000000E-01  1.50000000E+00  8.00000000E-01  8.00000000E-01
  1.50000000E+00  8.00000000E-01  8.00000000E-01  1.50000000E+00  8.00000000E-01
  8.00000000E-01  1.50000000E+00  8.00000000E-01  8.00000000E-01  1.50000000E+00
  8.00000000E-01  8.00000000E-01  1.50000000E+00  8.00000000E-01  8.00000000E-01
  1.50000000E+00  8.00000000E-01  8.00000000E-01  1.50000000E+00  8.00000000E-01
  8.00000000E-01  1.50000000E+00  8.00000000E-01  8.00000000E-01  1.50000000E+00
  8.00000000E-01  8.00000000E-01  1.50000000E+00  8.00000000E-01  8.00000000E-01
  1.50000000E+00  8.00000000E-01  8.00000000E-01  1.50000000E+00  8.00000000E-01
  8.00000000E-01  1.50000000E+00  8.00000000E-01  8.00000000E-01  1.50000000E+00
  8.00000000E-01  8.00000000E-01  1.50000000E+00  8.00000000E-01  8.00000000E-01
  1.50000000E+00  8.00000000E-01  8.00000000E-01  1.50000000E+00  8.00000000E-01
  8.00000000E-01  1.50000000E+00  8.00000000E-01  8.00000000E-01  1.50000000E+00
  8.00000000E-01  8.00000000E-01  1.50000000E+00  8.00000000E-01  8.00000000E-01
  1.50000000E+00  8.00000000E-01  8.00000000E-01  1.50000000E+00  8.00000000E-01
  8.00000000E-01  1.50000000E+00  8.00000000E-01  8.00000000E-01  1.50000000E+00
  8.00000000E-01  8.00000000E-01  1.50000000E+00  8.00000000E-01  8.00000000E-01
  1.50000000E+00  8.00000000E-01  8.00000000E-01  1.50000000E+00  8.00000000E-01
  8.00000000E-01  1.50000000E+00  8.00000000E-01  8.00000000E-01  1.50000000E+00
  8.00000000E-01  8.00000000E-01  1.50000000E+00  8.00000000E-01  8.00000000E-01
  1.50000000E+00  8.00000000E-01  8.00000000E-01  1.50000000E+00  8.00000000E-01
  8.00000000E-01  1.50000000E+00  8.00000000E-01  8.00000000E-01  1.50000000E+00
  8.00000000E-01  8.00000000E-01  1.50000000E+00  8.00000000E-01  8.00000000E-01
  1.50000000E+00  8.00000000E-01  8.00000000E-01  1.50000000E+00  8.00000000E-01
  8.00000000E-01  1.50000000E+00  8.00000000E-01  8.00000000E-01  1.50000000E+00
  8.00000000E-01  8.00000000E-01  1.50000000E+00  8.00000000E-01  8.00000000E-01
  1.50000000E+00  8.00000000E-01  8.00000000E-01  1.50000000E+00  8.00000000E-01
  8.00000000E-01  1.50000000E+00  8.00000000E-01  8.00000000E-01  1.50000000E+00
  8.00000000E-01  8.00000000E-01  1.50000000E+00  8.00000000E-01  8.00000000E-01
  1.50000000E+00  8.00000000E-01  8.00000000E-01  1.50000000E+00  8.00000000E-01
  8.00000000E-01  1.50000000E+00  8.00000000E-01  8.00000000E-01  1.50000000E+00
  8.00000000E-01  8.00000000E-01  1.50000000E+00  8.00000000E-01  8.00000000E-01
  1.50000000E+00  8.00000000E-01  8.00000000E-01  1.50000000E+00  8.00000000E-01
  8.00000000E-01  1.50000000E+00  8.00000000E-01  8.00000000E-01  1.50000000E+00
  8.00000000E-01  8.00000000E-01  1.50000000E+00  8.00000000E-01  8.00000000E-01
  1.50000000E+00  8.00000000E-01  8.00000000E-01  1.50000000E+00  8.00000000E-01
  8.00000000E-01  1.50000000E+00  8.00000000E-01  8.00000000E-01  1.50000000E+00
  8.00000000E-01  8.00000000E-01  1.50000000E+00  8.00000000E-01  8.00000000E-01
  1.50000000E+00  8.00000000E-01  8.00000000E-01  1.50000000E+00  8.00000000E-01
  8.00000000E-01  1.50000000E+00  8.00000000E-01  8.00000000E-01  1.50000000E+00
  8.00000000E-01  8.00000000E-01  1.50000000E+00  8.00000000E-01  8.00000000E-01
  1.50000000E+00  8.00000000E-01  8.00000000E-01  1.50000000E+00  8.00000000E-01
  8.00000000E-01  1.50000000E+00  8.00000000E-01  8.00000000E-01  1.50000000E+00
  8.00000000E-01  8.00000000E-01  1.50000000E+00  8.00000000E-01  8.00000000E-01
  1.50000000E+00  8.00000000E-01  8.00000000E-01  1.50000000E+00  8.00000000E-01
  8.00000000E-01  1.50000000E+00  8.00000000E-01  8.00000000E-01  1.50000000E+00
  8.00000000E-01  8.00000000E-01  1.50000000E+00  8.00000000E-01  8.00000000E-01
  1.50000000E+00  8.00000000E-01  8.00000000E-01  1.50000000E+00  8.00000000E-01
  8.00000000E-01  1.50000000E+00  8.00000000E-01  8.00000000E-01  1.50000000E+00
  8.00000000E-01  8.00000000E-01  1.50000000E+00  8.00000000E-01  8.00000000E-01
  1.50000000E+00  8.00000000E-01  8.00000000E-01  1.50000000E+00  8.00000000E-01
  8.00000000E-01  1.50000000E+00  8.00000000E-01  8.00000000E-01  1.50000000E+00
  8.00000000E-01  8.00000000E-01  1.50000000E+00  8.00000000E-01  8.00000000E-01
  1.50000000E+00  8.00000000E-01  8.00000000E-01  1.50000000E+00  8.00000000E-01
  8.00000000E-01  1.50000000E+00  8.00000000E-01  8.00000000E-01  1.50000000E+00
  8.00000000E-01  8.00000000E-01  1.50000000E+00  8.00000000E-01  8.00000000E-01
  1.50000000E+00  8.00000000E-01  8.00000000E-01  1.50000000E+00  8.00000000E-01
  8.00000000E-01  1.50000000E+00  8.00000000E-01  8.00000000E-01  1.50000000E+00
  8.00000000E-01  8.00000000E-01  1.50000000E+00  8.00000000E-01  8.00000000E-01
  1.50000000E+00  8.00000000E-01  8.00000000E-01  1.50000000E+00  8.00000000E-01
  8.00000000E-01  1.50000000E+00  8.00000000E-01  8.00000000E-01  1.50000000E+00
  8.00000000E-01  8.00000000E-01  1.50000000E+00  8.00000000E-01  8.00000000E-01
  1.50000000E+00  8.00000000E-01  8.00000000E-01  1.50000000E+00  8.00000000E-01
  8.00000000E-01  1.50000000E+00  8.00000000E-01  8.00000000E-01  1.50000000E+00
  8.00000000E-01  8.00000000E-01  1.50000000E+00  8.00000000E-01  8.00000000E-01
  1.50000000E+00  8.00000000E-01  8.00000000E-01  1.50000000E+00  8.00000000E-01
  8.00000000E-01  1.50000000E+00  8.00000000E-01  8.00000000E-01  1.50000000E+00
  8.00000000E-01  8.00000000E-01  1.50000000E+00  8.00000000E-01  8.00000000E-01
  1.50000000E+00  8.00000000E-01  8.00000000E-01  1.50000000E+00  8.00000000E-01
  8.00000000E-01  1.50000000E+00  8.00000000E-01  8.00000000E-01  1.50000000E+00
  8.00000000E-01  8.00000000E-01  1.50000000E+00  8.00000000E-01  8.00000000E-01
  1.50000000E+00  8.00000000E-01  8.00000000E-01  1.50000000E+00  8.00000000E-01
  8.00000000E-01  1.50000000E+00  8.00000000E-01  8.00000000E-01  1.50000000E+00
  8.00000000E-01  8.00000000E-01  1.50000000E+00  8.00000000E-01  8.00000000E-01
  1.50000000E+00  8.00000000E-01  8.00000000E-01  1.50000000E+00  8.00000000E-01
  8.00000000E-01  1.50000000E+00  8.00000000E-01  8.00000000E-01  1.50000000E+00
  8.00000000E-01  8.00000000E-01  1.50000000E+00  8.00000000E-01  8.00000000E-01
  1.50000000E+00  8.00000000E-01  8.00000000E-01  1.50000000E+00  8.00000000E-01
  8.00000000E-01  1.50000000E+00  8.00000000E-01  8.00000000E-01  1.50000000E+00
  8.00000000E-01  8.00000000E-01  1.50000000E+00  8.00000000E-01  8.00000000E-01
  1.50000000E+00  8.00000000E-01  8.00000000E-01  1.50000000E+00  8.00000000E-01
  8.00000000E-01  1.50000000E+00  8.00000000E-01  8.00000000E-01  1.50000000E+00
  8.00000000E-01  8.00000000E-01  1.50000000E+00  8.00000000E-01  8.00000000E-01
  1.50000000E+00  8.00000000E-01  8.00000000E-01  1.50000000E+00  8.00000000E-01
  8.00000000E-01  1.50000000E+00  8.00000000E-01  8.00000000E-01  1.50000000E+00
  8.00000000E-01  8.00000000E-01  1.50000000E+00  8.00000000E-01  8.00000000E-01
  1.50000000E+00  8.00000000E-01  8.00000000E-01  1.50000000E+00  8.00000000E-01
  8.00000000E-01  1.50000000E+00  8.00000000E-01  8.00000000E-01  1.50000000E+00
  8.00000000E-01  8.00000000E-01  1.50000000E+00  8.00000000E-01  8.00000000E-01
  1.50000000E+00  8.00000000E-01  8.00000000E-01  1.50000000E+00  8.00000000E-01
  8.00000000E-01  1.50000000E+00  8.00000000E-01  8.00000000E-01  1.50000000E+00
  8.00000000E-01  8.00000000E-01  1.50000000E+00  8.00000000E-01  8.00000000E-01
  1.50000000E+00  8.00000000E-01  8.00000000E-01  1.50000000E+00  8.00000000E-01
  8.00000000E-01  1.50000000E+00  8.00000000E-01  8.00000000E-01  1.50000000E+00
  8.00000000E-01  8.00000000E-01  1.50000000E+00  8.00000000E-01  8.00000000E-01
  1.50000000E+00  8.00000000E-01  8.00000000E-01  1.50000000E+00  8.00000000E-01
  8.00000000E-01  1.50000000E+00  8.00000000E-01  8.00000000E-01  1.50000000E+00
  8.00000000E-01  8.00000000E-01  1.50000000E+00  8.00000000E-01  8.00000000E-01
  1.50000000E+00  8.00000000E-01  8.00000000E-01  1.50000000E+00  8.00000000E-01
  8.00000000E-01  1.50000000E+00  8.00000000E-01  8.00000000E-01  1.50000000E+00
  8.00000000E-01  8.00000000E-01  1.50000000E+00  8.00000000E-01  8.00000000E-01
  1.50000000E+00  8.00000000E-01  8.00000000E-01  1.50000000E+00  8.00000000E-01
  8.00000000E-01  1.50000000E+00  8.00000000E-01  8.00000000E-01  1.50000000E+00
  8.00000000E-01  8.00000000E-01  1.50000000E+00  8.00000000E-01  8.00000000E-01
  1.50000000E+00  8.00000000E-01  8.00000000E-01  1.50000000E+00  8.00000000E-01
  8.00000000E-01  1.50000000E+00  8.00000000E-01  8.00000000E-01  1.50000000E+00
  8.00000000E-01  8.00000000E-01  1.50000000E+00  8.00000000E-01  8.00000000E-01
  1.50000000E+00  8.00000000E-01  8.00000000E-01  1.50000000E+00  8.00000000E-01
  8.00000000E-01  1.50000000E+00  8.00000000E-01  8.00000000E-01  1.50000000E+00
  8.00000000E-01  8.00000000E-01  1.50000000E+00  8.00000000E-01  8.00000000E-01
  1.50000000E+00  8.00000000E-01  8.00000000E-01  1.50000000E+00  8.00000000E-01
  8.00000000E-01  1.50000000E+00  8.00000000E-01  8.00000000E-01  1.50000000E+00
  8.00000000E-01  8.00000000E-01  1.50000000E+00  8.00000000E-01  8.00000000E-01
  1.50000000E+00  8.00000000E-01  8.00000000E-01  1.50000000E+00  8.00000000E-01
  8.00000000E-01  1.50000000E+00  8.00000000E-01  8.00000000E-01  1.50000000E+00
  8.00000000E-01  8.00000000E-01  1.50000000E+00  8.00000000E-01  8.00000000E-01
  1.50000000E+00  8.00000000E-01  8.00000000E-01  1.50000000E+00  8.00000000E-01
  8.00000000E-01  1.50000000E+00  8.00000000E-01  8.00000000E-01  1.50000000E+00
  8.00000000E-01  8.00000000E-01  1.50000000E+00  8.00000000E-01  8.00000000E-01
  1.50000000E+00  8.00000000E-01  8.00000000E-01  1.50000000E+00  8.00000000E-01
  8.00000000E-01  1.50000000E+00  8.00000000E-01  8.00000000E-01  1.50000000E+00
  8.00000000E-01  8.00000000E-01  1.50000000E+00  8.00000000E-01  8.00000000E-01
  1.50000000E+00  8.00000000E-01  8.00000000E-01  1.50000000E+00  8.00000000E-01
  8.00000000E-01  1.50000000E+00  8.00000000E-01  8.00000000E-01  1.50000000E+00
  8.00000000E-01  8.00000000E-01  1.50000000E+00  8.00000000E-01  8.00000000E-01
  1.50000000E+00  8.00000000E-01  8.00000000E-01  1.50000000E+00  8.00000000E-01
  8.00000000E-01  1.50000000E+00  8.00000000E-01  8.00000000E-01  1.50000000E+00
  8.00000000E-01  8.00000000E-01  1.50000000E+00  8.00000000E-01  8.00000000E-01
  1.50000000E+00  8.00000000E-01  8.00000000E-01  1.50000000E+00  8.00000000E-01
  8.00000000E-01  1.50000000E+00  8.00000000E-01  8.00000000E-01  1.50000000E+00
  8.00000000E-01  8.00000000E-01  1.50000000E+00  8.00000000E-01  8.00000000E-01
  1.50000000E+00  8.00000000E-01  8.00000000E-01  1.50000000E+00  8.00000000E-01
  8.00000000E-01  1.50000000E+00  8.00000000E-01  8.00000000E-01  1.50000000E+00
  8.00000000E-01  8.00000000E-01  1.50000000E+00  8.00000000E-01  8.00000000E-01
  1.50000000E+00  8.00000000E-01  8.00000000E-01  1.50000000E+00  8.00000000E-01
  8.00000000E-01  1.50000000E+00  8.00000000E-01  8.00000000E-01  1.50000000E+00
  8.00000000E-01  8.00000000E-01  1.50000000E+00  8.00000000E-01  8.00000000E-01
  1.50000000E+00  8.00000000E-01  8.00000000E-01  1.50000000E+00  8.00000000E-01
  8.00000000E-01  1.50000000E+00  8.00000000E-01  8.00000000E-01  1.50000000E+00
  8.00000000E-01  8.00000000E-01  1.50000000E+00  8.00000000E-01  8.00000000E-01
  1.50000000E+00  8.00000000E-01  8.00000000E-01  1.50000000E+00  8.00000000E-01
  8.00000000E-01  1.50000000E+00  8.00000000E-01  8.00000000E-01  1.50000000E+00
  8.00000000E-01  8.00000000E-01  1.50000000E+00  8.00000000E-01  8.00000000E-01
  1.50000000E+00  8.00000000E-01  8.00000000E-01  1.50000000E+00  8.00000000E-01
  8.00000000E-01  1.50000000E+00  8.00000000E-01  8.00000000E-01  1.50000000E+00
  8.00000000E-01  8.00000000E-01  1.50000000E+00  8.00000000E-01  8.00000000E-01
  1.50000000E+00  8.00000000E-01  8.00000000E-01  1.50000000E+00  8.00000000E-01
  8.00000000E-01  1.50000000E+00  8.00000000E-01  8.00000000E-01  1.50000000E+00
  8.00000000E-01  8.00000000E-01  1.50000000E+00  8.00000000E-01  8.00000000E-01
  1.50000000E+00  8.00000000E-01  8.00000000E-01  1.50000000E+00  8.00000000E-01
  8.00000000E-01  1.50000000E+00  8.00000000E-01  8.00000000E-01  1.50000000E+00
  8.00000000E-01  8.00000000E-01  1.50000000E+00  8.00000000E-01  8.00000000E-01
  1.50000000E+00  8.00000000E-01  8.00000000E-01  1.50000000E+00  8.00000000E-01
  8.00000000E-01  1.50000000E+00  8.00000000E-01  8.00000000E-01  1.50000000E+00
  8.00000000E-01  8.00000000E-01  1.50000000E+00  8.00000000E-01  8.00000000E-01
  1.50000000E+00  8.00000000E-01  8.00000000E-01  1.50000000E+00  8.00000000E-01
  8.00000000E-01  1.50000000E+00  8.00000000E-01  8.00000000E-01  1.50000000E+00
  8.00000000E-01  8.00000000E-01  1.50000000E+00  8.00000000E-01  8.00000000E-01
  1.50000000E+00  8.00000000E-01  8.00000000E-01  1.50000000E+00  8.00000000E-01
  8.00000000E-01  1.50000000E+00  8.00000000E-01  8.00000000E-01  1.50000000E+00
  8.00000000E-01  8.00000000E-01  1.50000000E+00  8.00000000E-01  8.00000000E-01
  1.50000000E+00  8.00000000E-01  8.00000000E-01  1.50000000E+00  8.00000000E-01
  8.00000000E-01  1.50000000E+00  8.00000000E-01  8.00000000E-01  1.50000000E+00
  8.00000000E-01  8.00000000E-01  1.50000000E+00  8.00000000E-01  8.00000000E-01
  1.50000000E+00  8.00000000E-01  8.00000000E-01  1.50000000E+00  8.00000000E-01
  8.00000000E-01  1.50000000E+00  8.00000000E-01  8.00000000E-01  1.50000000E+00
  8.00000000E-01  8.00000000E-01  1.50000000E+00  8.00000000E-01  8.00000000E-01
  1.50000000E+00  8.00000000E-01  8.00000000E-01  1.50000000E+00  8.00000000E-01
  8.00000000E-01  1.50000000E+00  8.00000000E-01  8.00000000E-01  1.50000000E+00
  8.00000000E-01  8.00000000E-01  1.50000000E+00  8.00000000E-01  8.00000000E-01
  1.50000000E+00  8.00000000E-01  8.00000000E-01  1.50000000E+00  8.00000000E-01
  8.00000000E-01  1.50000000E+00  8.00000000E-01  8.00000000E-01  1.50000000E+00
  8.00000000E-01  8.00000000E-01  1.50000000E+00  8.00000000E-01  8.00000000E-01
  1.50000000E+00  8.00000000E-01  8.00000000E-01  1.50000000E+00  8.00000000E-01
  8.00000000E-01  1.50000000E+00  8.00000000E-01  8.00000000E-01  1.50000000E+00
  8.00000000E-01  8.00000000E-01  1.50000000E+00  8.00000000E-01  8.00000000E-01
  1.50000000E+00  8.00000000E-01  8.00000000E-01  1.50000000E+00  8.00000000E-01
  8.00000000E-01  1.50000000E+00  8.00000000E-01  8.00000000E-01  1.50000000E+00
  8.00000000E-01  8.00000000E-01  1.50000000E+00  8.00000000E-01  8.00000000E-01
  1.50000000E+00  8.00000000E-01  8.00000000E-01  1.50000000E+00  8.00000000E-01
  8.00000000E-01  1.50000000E+00  8.00000000E-01  8.00000000E-01  1.50000000E+00
  8.00000000E-01  8.00000000E-01  1.50000000E+00  8.00000000E-01  8.00000000E-01
  1.50000000E+00  8.00000000E-01  8.00000000E-01  1.50000000E+00  8.00000000E-01
  8.00000000E-01  1.50000000E+00  8.00000000E-01  8.00000000E-01  1.50000000E+00
  8.00000000E-01  8.00000000E-01  1.50000000E+00  8.00000000E-01  8.00000000E-01
  1.50000000E+00  8.00000000E-01  8.00000000E-01  1.50000000E+00  8.00000000E-01
  8.00000000E-01  1.50000000E+00  8.00000000E-01  8.00000000E-01  1.50000000E+00
  8.00000000E-01  8.00000000E-01  1.50000000E+00  8.00000000E-01  8.00000000E-01
  1.50000000E+00  8.00000000E-01  8.00000000E-01  1.50000000E+00  8.00000000E-01
  8.00000000E-01  1.50000000E+00  8.00000000E-01  8.00000000E-01  1.50000000E+00
  8.00000000E-01  8.00000000E-01  1.50000000E+00  8.00000000E-01  8.00000000E-01
  1.50000000E+00  8.00000000E-01  8.00000000E-01  1.50000000E+00  8.00000000E-01
  8.00000000E-01  1.50000000E+00  8.00000000E-01  8.00000000E-01  1.50000000E+00
  8.00000000E-01  8.00000000E-01  1.50000000E+00  8.00000000E-01  8.00000000E-01
  1.50000000E+00  8.00000000E-01  8.00000000E-01  1.50000000E+00  8.00000000E-01
  8.00000000E-01  1.50000000E+00  8.00000000E-01  8.00000000E-01  1.50000000E+00
  8.00000000E-01  8.00000000E-01  1.50000000E+00  8.00000000E-01  8.00000000E-01
  1.50000000E+00  8.00000000E-01  8.00000000E-01  1.50000000E+00  8.00000000E-01
  8.00000000E-01  1.50000000E+00  8.00000000E-01  8.00000000E-01  1.50000000E+00
  8.00000000E-01  8.00000000E-01  1.50000000E+00  8.00000000E-01  8.00000000E-01
  1.50000000E+00  8.00000000E-01  8.00000000E-01  1.50000000E+00  8.00000000E-01
  8.00000000E-01  1.50000000E+00  8.00000000E-01  8.00000000E-01  1.50000000E+00
  8.00000000E-01  8.00000000E-01  1.50000000E+00  8.00000000E-01  8.00000000E-01
  1.50000000E+00  8.00000000E-01  8.00000000E-01  1.50000000E+00  8.00000000E-01
  8.00000000E-01  1.50000000E+00  8.00000000E-01  8.00000000E-01  1.50000000E+00
  8.00000000E-01  8.00000000E-01  1.50000000E+00  8.00000000E-01  8.00000000E-01
  1.50000000E+00  8.00000000E-01  8.00000000E-01  1.50000000E+00  8.00000000E-01
  8.00000000E-01  1.50000000E+00  8.00000000E-01  8.00000000E-01  1.50000000E+00
  8.00000000E-01  8.00000000E-01  1.50000000E+00  8.00000000E-01  8.00000000E-01
  1.50000000E+00  8.00000000E-01  8.00000000E-01  1.50000000E+00  8.00000000E-01
  8.00000000E-01  1.50000000E+00  8.00000000E-01  8.00000000E-01  1.50000000E+00
  8.00000000E-01  8.00000000E-01  1.50000000E+00  8.00000000E-01  8.00000000E-01
  1.50000000E+00  8.00000000E-01  8.00000000E-01  1.50000000E+00  8.00000000E-01
  8.00000000E-01  1.50000000E+00  8.00000000E-01  8.00000000E-01  1.50000000E+00
  8.00000000E-01  8.00000000E-01  1.50000000E+00  8.00000000E-01  8.00000000E-01
  1.50000000E+00  8.00000000E-01  8.00000000E-01  1.50000000E+00  8.00000000E-01
  8.00000000E-01  1.50000000E+00  8.00000000E-01  8.00000000E-01  1.50000000E+00
  8.00000000E-01  8.00000000E-01  1.50000000E+00  8.00000000E-01  8.00000000E-01
  1.50000000E+00  8.00000000E-01  8.00000000E-01  1.50000000E+00  8.00000000E-01
  8.00000000E-01  1.50000000E+00  8.00000000E-01  8.00000000E-01  1.50000000E+00
  8.00000000E-01  8.00000000E-01  1.50000000E+00  8.00000000E-01  8.00000000E-01
  1.50000000E+00  8.00000000E-01  8.00000000E-01  1.50000000E+00  8.00000000E-01
  8.00000000E-01  1.50000000E+00  8.00000000E-01  8.00000000E-01  1.50000000E+00
  8.00000000E-01  8.00000000E-01  1.50000000E+00  8.00000000E-01  8.00000000E-01
  1.50000000E+00  8.00000000E-01  8.00000000E-01  1.50000000E+00  8.00000000E-01
  8.00000000E-01  1.50000000E+00  8.00000000E-01  8.00000000E-01  1.50000000E+00
  8.00000000E-01  8.00000000E-01  1.50000000E+00  8.00000000E-01  8.00000000E-01
  1.50000000E+00  8.00000000E-01  8.00000000E-01  1.50000000E+00  8.00000000E-01
  8.00000000E-01  1.50000000E+00  8.00000000E-01  8.00000000E-01  1.50000000E+00
  8.00000000E-01  8.00000000E-01  1.50000000E+00  8.00000000E-01  8.00000000E-01
  1.50000000E+00  8.00000000E-01  8.00000000E-01  1.50000000E+00  8.00000000E-01
  8.00000000E-01  1.50000000E+00  8.00000000E-01  8.00000000E-01  1.50000000E+00
  8.00000000E-01  8.00000000E-01  1.50000000E+00  8.00000000E-01  8.00000000E-01
  1.50000000E+00  8.00000000E-01  8.00000000E-01  1.50000000E+00  8.00000000E-01
  8.00000000E-01  1.50000000E+00  8.00000000E-01  8.00000000E-01  1.50000000E+00
  8.00000000E-01  8.00000000E-01  1.50000000E+00  8.00000000E-01  8.00000000E-01
  1.50000000E+00  8.00000000E-01  8.00000000E-01  1.50000000E+00  8.00000000E-01
  8.00000000E-01  1.50000000E+00  8.00000000E-01  8.00000000E-01  1.50000000E+00
  8.00000000E-01  8.00000000E-01  1.50000000E+00  8.00000000E-01  8.00000000E-01
  1.50000000E+00  8.00000000E-01  8.00000000E-01  1.50000000E+00  8.00000000E-01
  8.00000000E-01  1.50000000E+00  8.00000000E-01  8.00000000E-01  1.50000000E+00
  8.00000000E-01  8.00000000E-01  1.50000000E+00  8.00000000E-01  8.00000000E-01
  1.50000000E+00  8.00000000E-01  8.00000000E-01  1.50000000E+00  8.00000000E-01
  8.00000000E-01  1.50000000E+00  8.00000000E-01  8.00000000E-01  1.50000000E+00
  8.00000000E-01  8.00000000E-01  1.50000000E+00  8.00000000E-01  8.00000000E-01
  1.50000000E+00  8.00000000E-01  8.00000000E-01  1.50000000E+00  8.00000000E-01
  8.00000000E-01  1.50000000E+00  8.00000000E-01  8.00000000E-01  1.50000000E+00
  8.00000000E-01  8.00000000E-01  1.50000000E+00  8.00000000E-01  8.00000000E-01
  1.50000000E+00  8.00000000E-01  8.00000000E-01  1.50000000E+00  8.00000000E-01
  8.00000000E-01  1.50000000E+00  8.00000000E-01  8.00000000E-01  1.50000000E+00
  8.00000000E-01  8.00000000E-01  1.50000000E+00  8.00000000E-01  8.00000000E-01
  1.50000000E+00  8.00000000E-01  8.00000000E-01  1.50000000E+00  8.00000000E-01
  8.00000000E-01  1.50000000E+00  8.00000000E-01  8.00000000E-01  1.50000000E+00
  8.00000000E-01  8.00000000E-01  1.50000000E+00  8.00000000E-01  8.00000000E-01
  1.50000000E+00  8.00000000E-01  8.00000000E-01  1.50000000E+00  8.00000000E-01
  8.00000000E-01  1.50000000E+00  8.00000000E-01  8.00000000E-01  1.50000000E+00
  8.00000000E-01  8.00000000E-01  1.50000000E+00  8.00000000E-01  8.00000000E-01
  1.50000000E+00  8.00000000E-01  8.00000000E-01  1.50000000E+00  8.00000000E-01
  8.00000000E-01  1.50000000E+00  8.00000000E-01  8.00000000E-01  1.50000000E+00
  8.00000000E-01  8.00000000E-01  1.50000000E+00  8.00000000E-01  8.00000000E-01
  1.50000000E+00  8.00000000E-01  8.00000000E-01  1.50000000E+00  8.00000000E-01
  8.00000000E-01  1.50000000E+00  8.00000000E-01  8.00000000E-01  1.50000000E+00
  8.00000000E-01  8.00000000E-01  1.50000000E+00  8.00000000E-01  8.00000000E-01
  1.50000000E+00  8.00000000E-01  8.00000000E-01  1.50000000E+00  8.00000000E-01
  8.00000000E-01  1.50000000E+00  8.00000000E-01  8.00000000E-01  1.50000000E+00
  8.00000000E-01  8.00000000E-01  1.50000000E+00  8.00000000E-01  8.00000000E-01
  1.50000000E+00  8.00000000E-01  8.00000000E-01  1.50000000E+00  8.00000000E-01
  8.00000000E-01  1.50000000E+00  8.00000000E-01  8.00000000E-01  1.50000000E+00
  8.00000000E-01  8.00000000E-01  1.50000000E+00  8.00000000E-01  8.00000000E-01
  1.50000000E+00  8.00000000E-01  8.00000000E-01  1.50000000E+00  8.00000000E-01
  8.00000000E-01  1.50000000E+00  8.00000000E-01  8.00000000E-01  1.50000000E+00
  8.00000000E-01  8.00000000E-01  1.50000000E+00  8.00000000E-01  8.00000000E-01
  1.50000000E+00  8.00000000E-01  8.00000000E-01  1.50000000E+00  8.00000000E-01
  8.00000000E-01  1.50000000E+00  8.00000000E-01  8.00000000E-01  1.50000000E+00
  8.00000000E-01  8.00000000E-01  1.50000000E+00  8.00000000E-01  8.00000000E-01
  1.50000000E+00  8.00000000E-01  8.00000000E-01  1.50000000E+00  8.00000000E-01
  8.00000000E-01  1.50000000E+00  8.00000000E-01  8.00000000E-01  1.50000000E+00
  8.00000000E-01  8.00000000E-01  1.50000000E+00  8.00000000E-01  8.00000000E-01
  1.50000000E+00  8.00000000E-01  8.00000000E-01  1.50000000E+00  8.00000000E-01
  8.00000000E-01  1.50000000E+00  8.00000000E-01  8.00000000E-01  1.50000000E+00
  8.00000000E-01  8.00000000E-01  1.50000000E+00  8.00000000E-01  8.00000000E-01
  1.50000000E+00  8.00000000E-01  8.00000000E-01  1.50000000E+00  8.00000000E-01
  8.00000000E-01  1.50000000E+00  8.00000000E-01  8.00000000E-01  1.50000000E+00
  8.00000000E-01  8.00000000E-01  1.50000000E+00  8.00000000E-01  8.00000000E-01
  1.50000000E+00  8.00000000E-01  8.00000000E-01  1.50000000E+00  8.00000000E-01
  8.00000000E-01  1.50000000E+00  8.00000000E-01  8.00000000E-01  1.50000000E+00
  8.00000000E-01  8.00000000E-01  1.50000000E+00  8.00000000E-01  8.00000000E-01
  1.50000000E+00  8.00000000E-01  8.00000000E-01  1.50000000E+00  8.00000000E-01
  8.00000000E-01  1.50000000E+00  8.00000000E-01  8.00000000E-01  1.50000000E+00
  8.00000000E-01  8.00000000E-01  1.50000000E+00  8.00000000E-01  8.00000000E-01
  1.50000000E+00  8.00000000E-01  8.00000000E-01  1.50000000E+00  8.00000000E-01
  8.00000000E-01  1.50000000E+00  8.00000000E-01  8.00000000E-01  1.50000000E+00
  8.00000000E-01  8.00000000E-01  1.50000000E+00  8.00000000E-01  8.00000000E-01
  1.50000000E+00  8.00000000E-01  8.00000000E-01  1.50000000E+00  8.00000000E-01
  8.00000000E-01  1.50000000E+00  8.00000000E-01  8.00000000E-01  1.50000000E+00
  8.00000000E-01  8.00000000E-01  1.50000000E+00  8.00000000E-01  8.00000000E-01
  1.50000000E+00  8.00000000E-01  8.00000000E-01  1.50000000E+00  8.00000000E-01
  8.00000000E-01  1.50000000E+00  8.00000000E-01  8.00000000E-01  1.50000000E+00
  8.00000000E-01  8.00000000E-01  1.50000000E+00  8.00000000E-01  8.00000000E-01
  1.50000000E+00  8.00000000E-01  8.00000000E-01  1.50000000E+00  8.00000000E-01
  8.00000000E-01  1.50000000E+00  8.00000000E-01  8.00000000E-01  1.50000000E+00
  8.00000000E-01  8.00000000E-01  1.50000000E+00  8.00000000E-01  8.00000000E-01
  1.50000000E+00  8.00000000E-01  8.00000000E-01  1.50000000E+00  8.00000000E-01
  8.00000000E-01  1.50000000E+00  8.00000000E-01  8.00000000E-01  1.50000000E+00
  8.00000000E-01  8.00000000E-01  1.50000000E+00  8.00000000E-01  8.00000000E-01
  1.50000000E+00  8.00000000E-01  8.00000000E-01  1.50000000E+00  8.00000000E-01
  8.00000000E-01  1.50000000E+00  8.00000000E-01  8.00000000E-01  1.50000000E+00
  8.00000000E-01  8.00000000E-01  1.50000000E+00  8.00000000E-01  8.00000000E-01
  1.50000000E+00  8.00000000E-01  8.00000000E-01  1.50000000E+00  8.00000000E-01
  8.00000000E-01  1.50000000E+00  8.00000000E-01  8.00000000E-01  1.50000000E+00
  8.00000000E-01  8.00000000E-01  1.50000000E+00  8.00000000E-01  8.00000000E-01
  1.50000000E+00  8.00000000E-01  8.00000000E-01  1.50000000E+00  8.00000000E-01
  8.00000000E-01  1.50000000E+00  8.00000000E-01  8.00000000E-01  1.50000000E+00
  8.00000000E-01  8.00000000E-01  1.50000000E+00  8.00000000E-01  8.00000000E-01
  1.50000000E+00  8.00000000E-01  8.00000000E-01  1.50000000E+00  8.00000000E-01
  8.00000000E-01  1.50000000E+00  8.00000000E-01  8.00000000E-01  1.50000000E+00
  8.00000000E-01  8.00000000E-01  1.50000000E+00  8.00000000E-01  8.00000000E-01
  1.50000000E+00  8.00000000E-01  8.00000000E-01  1.50000000E+00  8.00000000E-01
  8.00000000E-01  1.50000000E+00  8.00000000E-01  8.00000000E-01  1.50000000E+00
  8.00000000E-01  8.00000000E-01  1.50000000E+00  8.00000000E-01  8.00000000E-01
  1.50000000E+00  8.00000000E-01  8.00000000E-01  1.50000000E+00  8.00000000E-01
  8.00000000E-01  1.50000000E+00  8.00000000E-01  8.00000000E-01  1.50000000E+00
  8.00000000E-01  8.00000000E-01  1.50000000E+00  8.00000000E-01  8.00000000E-01
  1.50000000E+00  8.00000000E-01  8.00000000E-01  1.50000000E+00  8.00000000E-01
  8.00000000E-01  1.50000000E+00  8.00000000E-01  8.00000000E-01  1.50000000E+00
  8.00000000E-01  8.00000000E-01  1.50000000E+00  8.00000000E-01  8.00000000E-01
  1.50000000E+00  8.00000000E-01  8.00000000E-01  1.50000000E+00  8.00000000E-01
  8.00000000E-01  1.50000000E+00  8.00000000E-01  8.00000000E-01  1.50000000E+00
  8.00000000E-01  8.00000000E-01  1.50000000E+00  8.00000000E-01  8.00000000E-01
  1.50000000E+00  8.00000000E-01  8.00000000E-01  1.50000000E+00  8.00000000E-01
  8.00000000E-01  1.50000000E+00  8.00000000E-01  8.00000000E-01  1.50000000E+00
  8.00000000E-01  8.00000000E-01  1.50000000E+00  8.00000000E-01  8.00000000E-01
  1.50000000E+00  8.00000000E-01  8.00000000E-01  1.50000000E+00  8.00000000E-01
  8.00000000E-01  1.50000000E+00  8.00000000E-01  8.00000000E-01  1.50000000E+00
  8.00000000E-01  8.00000000E-01  1.50000000E+00  8.00000000E-01  8.00000000E-01
  1.50000000E+00  8.00000000E-01  8.00000000E-01  1.50000000E+00  8.00000000E-01
  8.00000000E-01  1.50000000E+00  8.00000000E-01  8.00000000E-01  1.50000000E+00
  8.00000000E-01  8.00000000E-01  1.50000000E+00  8.00000000E-01  8.00000000E-01
  1.50000000E+00  8.00000000E-01  8.00000000E-01  1.50000000E+00  8.00000000E-01
  8.00000000E-01  1.50000000E+00  8.00000000E-01  8.00000000E-01  1.50000000E+00
  8.00000000E-01  8.00000000E-01  1.50000000E+00  8.00000000E-01  8.00000000E-01
  1.50000000E+00  8.00000000E-01  8.00000000E-01  1.50000000E+00  8.00000000E-01
  8.00000000E-01  1.50000000E+00  8.00000000E-01  8.00000000E-01  1.50000000E+00
  8.00000000E-01  8.00000000E-01  1.50000000E+00  8.00000000E-01  8.00000000E-01
  1.50000000E+00  8.00000000E-01  8.00000000E-01  1.50000000E+00  8.00000000E-01
  8.00000000E-01  1.50000000E+00  8.00000000E-01  8.00000000E-01  1.50000000E+00
  8.00000000E-01  8.00000000E-01  1.50000000E+00  8.00000000E-01  8.00000000E-01
  1.50000000E+00  8.00000000E-01  8.00000000E-01  1.50000000E+00  8.00000000E-01
  8.00000000E-01  1.50000000E+00  8.00000000E-01  8.00000000E-01  1.50000000E+00
  8.00000000E-01  8.00000000E-01  1.50000000E+00  8.00000000E-01  8.00000000E-01
  1.50000000E+00  8.00000000E-01  8.00000000E-01  1.50000000E+00  8.00000000E-01
  8.00000000E-01  1.50000000E+00  8.00000000E-01  8.00000000E-01  1.50000000E+00
  8.00000000E-01  8.00000000E-01  1.50000000E+00  8.00000000E-01  8.00000000E-01
  1.50000000E+00  8.00000000E-01  8.00000000E-01  1.50000000E+00  8.00000000E-01
  8.00000000E-01  1.50000000E+00  8.00000000E-01  8.00000000E-01  1.50000000E+00
  8.00000000E-01  8.00000000E-01  1.50000000E+00  8.00000000E-01  8.00000000E-01
  1.50000000E+00  8.00000000E-01  8.00000000E-01  1.50000000E+00  8.00000000E-01
  8.00000000E-01  1.50000000E+00  8.00000000E-01  8.00000000E-01  1.50000000E+00
  8.00000000E-01  8.00000000E-01  1.50000000E+00  8.00000000E-01  8.00000000E-01
  1.50000000E+00  8.00000000E-01  8.00000000E-01  1.50000000E+00  8.00000000E-01
  8.00000000E-01  1.50000000E+00  8.00000000E-01  8.00000000E-01  1.50000000E+00
  8.00000000E-01  8.00000000E-01  1.50000000E+00  8.00000000E-01  8.00000000E-01
  1.50000000E+00  8.00000000E-01  8.00000000E-01  1.50000000E+00  8.00000000E-01
  8.00000000E-01  1.50000000E+00  8.00000000E-01  8.00000000E-01  1.50000000E+00
  8.00000000E-01  8.00000000E-01  1.50000000E+00  8.00000000E-01  8.00000000E-01
  1.50000000E+00  8.00000000E-01  8.00000000E-01  1.50000000E+00  8.00000000E-01
  8.00000000E-01  1.50000000E+00  8.00000000E-01  8.00000000E-01  1.50000000E+00
  8.00000000E-01  8.00000000E-01  1.50000000E+00  8.00000000E-01  8.00000000E-01
  1.50000000E+00  8.00000000E-01  8.00000000E-01  1.50000000E+00  8.00000000E-01
  8.00000000E-01  1.50000000E+00  8.00000000E-01  8.00000000E-01  1.50000000E+00
  8.00000000E-01  8.00000000E-01  1.50000000E+00  8.00000000E-01  8.00000000E-01
  1.50000000E+00  8.00000000E-01  8.00000000E-01  1.50000000E+00  8.00000000E-01
  8.00000000E-01  1.50000000E+00  8.00000000E-01  8.00000000E-01  1.50000000E+00
  8.00000000E-01  8.00000000E-01  1.50000000E+00  8.00000000E-01  8.00000000E-01
  1.50000000E+00  8.00000000E-01  8.00000000E-01  1.50000000E+00  8.00000000E-01
  8.00000000E-01  1.50000000E+00  8.00000000E-01  8.00000000E-01  1.50000000E+00
  8.00000000E-01  8.00000000E-01  1.50000000E+00  8.00000000E-01  8.00000000E-01
  1.50000000E+00  8.00000000E-01  8.00000000E-01  1.50000000E+00  8.00000000E-01
  8.00000000E-01  1.50000000E+00  8.00000000E-01  8.00000000E-01  1.50000000E+00
  8.00000000E-01  8.00000000E-01  1.50000000E+00  8.00000000E-01  8.00000000E-01
  1.50000000E+00  8.00000000E-01  8.00000000E-01  1.50000000E+00  8.00000000E-01
  8.00000000E-01  1.50000000E+00  8.00000000E-01  8.00000000E-01  1.50000000E+00
  8.00000000E-01  8.00000000E-01  1.50000000E+00  8.00000000E-01  8.00000000E-01
  1.50000000E+00  8.00000000E-01  8.00000000E-01  1.50000000E+00  8.00000000E-01
  8.00000000E-01  1.50000000E+00  8.00000000E-01  8.00000000E-01  1.50000000E+00
  8.00000000E-01  8.00000000E-01  1.50000000E+00  8.00000000E-01  8.00000000E-01
  1.50000000E+00  8.00000000E-01  8.00000000E-01  1.50000000E+00  8.00000000E-01
  8.00000000E-01  1.50000000E+00  8.00000000E-01  8.00000000E-01  1.50000000E+00
  8.00000000E-01  8.00000000E-01  1.50000000E+00  8.00000000E-01  8.00000000E-01
  1.50000000E+00  8.00000000E-01  8.00000000E-01  1.50000000E+00  8.00000000E-01
  8.00000000E-01  1.50000000E+00  8.00000000E-01  8.00000000E-01  1.50000000E+00
  8.00000000E-01  8.00000000E-01  1.50000000E+00  8.00000000E-01  8.00000000E-01
  1.50000000E+00  8.00000000E-01  8.00000000E-01  1.50000000E+00  8.00000000E-01
  8.00000000E-01  1.50000000E+00  8.00000000E-01  8.00000000E-01  1.50000000E+00
  8.00000000E-01  8.00000000E-01  1.50000000E+00  8.00000000E-01  8.00000000E-01
  1.50000000E+00  8.00000000E-01  8.00000000E-01  1.50000000E+00  8.00000000E-01
  8.00000000E-01  1.50000000E+00  8.00000000E-01  8.00000000E-01  1.50000000E+00
  8.00000000E-01  8.00000000E-01  1.50000000E+00  8.00000000E-01  8.00000000E-01
  1.50000000E+00  8.00000000E-01  8.00000000E-01  1.50000000E+00  8.00000000E-01
  8.00000000E-01  1.50000000E+00  8.00000000E-01  8.00000000E-01  1.50000000E+00
  8.00000000E-01  8.00000000E-01  1.50000000E+00  8.00000000E-01  8.00000000E-01
  1.50000000E+00  8.00000000E-01  8.00000000E-01  1.50000000E+00  8.00000000E-01
  8.00000000E-01  1.50000000E+00  8.00000000E-01  8.00000000E-01  1.50000000E+00
  8.00000000E-01  8.00000000E-01  1.50000000E+00  8.00000000E-01  8.00000000E-01
  1.50000000E+00  8.00000000E-01  8.00000000E-01  1.50000000E+00  8.00000000E-01
  8.00000000E-01  1.50000000E+00  8.00000000E-01  8.00000000E-01  1.50000000E+00
  8.00000000E-01  8.00000000E-01  1.50000000E+00  8.00000000E-01  8.00000000E-01
  1.50000000E+00  8.00000000E-01  8.00000000E-01  1.50000000E+00  8.00000000E-01
  8.00000000E-01  1.50000000E+00  8.00000000E-01  8.00000000E-01  1.50000000E+00
  8.00000000E-01  8.00000000E-01  1.50000000E+00  8.00000000E-01  8.00000000E-01
  1.50000000E+00  8.00000000E-01  8.00000000E-01  1.50000000E+00  8.00000000E-01
  8.00000000E-01  1.50000000E+00  8.00000000E-01  8.00000000E-01  1.50000000E+00
  8.00000000E-01  8.00000000E-01  1.50000000E+00  8.00000000E-01  8.00000000E-01
  1.50000000E+00  8.00000000E-01  8.00000000E-01  1.50000000E+00  8.00000000E-01
  8.00000000E-01  1.50000000E+00  8.00000000E-01  8.00000000E-01  1.50000000E+00
  8.00000000E-01  8.00000000E-01  1.50000000E+00  8.00000000E-01  8.00000000E-01
  1.50000000E+00  8.00000000E-01  8.00000000E-01  1.50000000E+00  8.00000000E-01
  8.00000000E-01  1.50000000E+00  8.00000000E-01  8.00000000E-01  1.50000000E+00
  8.00000000E-01  8.00000000E-01  1.50000000E+00  8.00000000E-01  8.00000000E-01
  1.50000000E+00  8.00000000E-01  8.00000000E-01  1.50000000E+00  8.00000000E-01
  8.00000000E-01  1.50000000E+00  8.00000000E-01  8.00000000E-01  1.50000000E+00
  8.00000000E-01  8.00000000E-01  1.50000000E+00  8.00000000E-01  8.00000000E-01
  1.50000000E+00  8.00000000E-01  8.00000000E-01  1.50000000E+00  8.00000000E-01
  8.00000000E-01  1.50000000E+00  8.00000000E-01  8.00000000E-01  1.50000000E+00
  8.00000000E-01  8.00000000E-01  1.50000000E+00  8.00000000E-01  8.00000000E-01
  1.50000000E+00  8.00000000E-01  8.00000000E-01  1.50000000E+00  8.00000000E-01
  8.00000000E-01  1.50000000E+00  8.00000000E-01  8.00000000E-01  1.50000000E+00
  8.00000000E-01  8.00000000E-01  1.50000000E+00  8.00000000E-01  8.00000000E-01
  1.50000000E+00  8.00000000E-01  8.00000000E-01  1.50000000E+00  8.00000000E-01
  8.00000000E-01  1.50000000E+00  8.00000000E-01  8.00000000E-01  1.50000000E+00
  8.00000000E-01  8.00000000E-01  1.50000000E+00  8.00000000E-01  8.00000000E-01
  1.50000000E+00  8.00000000E-01  8.00000000E-01  1.50000000E+00  8.00000000E-01
  8.00000000E-01  1.50000000E+00  8.00000000E-01  8.00000000E-01  1.50000000E+00
  8.00000000E-01  8.00000000E-01  1.50000000E+00  8.00000000E-01  8.00000000E-01
  1.50000000E+00  8.00000000E-01  8.00000000E-01  1.50000000E+00  8.00000000E-01
  8.00000000E-01  1.50000000E+00  8.00000000E-01  8.00000000E-01  1.50000000E+00
  8.00000000E-01  8.00000000E-01  1.50000000E+00  8.00000000E-01  8.00000000E-01
  1.50000000E+00  8.00000000E-01  8.00000000E-01  1.50000000E+00  8.00000000E-01
  8.00000000E-01  1.50000000E+00  8.00000000E-01  8.00000000E-01  1.50000000E+00
  8.00000000E-01  8.00000000E-01  1.50000000E+00  8.00000000E-01  8.00000000E-01
  1.50000000E+00  8.00000000E-01  8.00000000E-01  1.50000000E+00  8.00000000E-01
  8.00000000E-01  1.50000000E+00  8.00000000E-01  8.00000000E-01  1.50000000E+00
  8.00000000E-01  8.00000000E-01  1.50000000E+00  8.00000000E-01  8.00000000E-01
  1.50000000E+00  8.00000000E-01  8.00000000E-01  1.50000000E+00  8.00000000E-01
  8.00000000E-01  1.50000000E+00  8.00000000E-01  8.00000000E-01  1.50000000E+00
  8.00000000E-01  8.00000000E-01  1.50000000E+00  8.00000000E-01  8.00000000E-01
  1.50000000E+00  8.00000000E-01  8.00000000E-01  1.50000000E+00  8.00000000E-01
  8.00000000E-01  1.50000000E+00  8.00000000E-01  8.00000000E-01  1.50000000E+00
  8.00000000E-01  8.00000000E-01  1.50000000E+00  8.00000000E-01  8.00000000E-01
  1.50000000E+00  8.00000000E-01  8.00000000E-01  1.50000000E+00  8.00000000E-01
  8.00000000E-01  1.50000000E+00  8.00000000E-01  8.00000000E-01  1.50000000E+00
  8.00000000E-01  8.00000000E-01  1.50000000E+00  8.00000000E-01  8.00000000E-01
  1.50000000E+00  8.00000000E-01  8.00000000E-01  1.50000000E+00  8.00000000E-01
  8.00000000E-01  1.50000000E+00  8.00000000E-01  8.00000000E-01  1.50000000E+00
  8.00000000E-01  8.00000000E-01  1.50000000E+00  8.00000000E-01  8.00000000E-01
  1.50000000E+00  8.00000000E-01  8.00000000E-01  1.50000000E+00  8.00000000E-01
  8.00000000E-01  1.50000000E+00  8.00000000E-01  8.00000000E-01  1.50000000E+00
  8.00000000E-01  8.00000000E-01  1.50000000E+00  8.00000000E-01  8.00000000E-01
  1.50000000E+00  8.00000000E-01  8.00000000E-01  1.50000000E+00  8.00000000E-01
  8.00000000E-01  1.50000000E+00  8.00000000E-01  8.00000000E-01  1.50000000E+00
  8.00000000E-01  8.00000000E-01  1.50000000E+00  8.00000000E-01  8.00000000E-01
  1.50000000E+00  8.00000000E-01  8.00000000E-01  1.50000000E+00  8.00000000E-01
  8.00000000E-01  1.50000000E+00  8.00000000E-01  8.00000000E-01  1.50000000E+00
  8.00000000E-01  8.00000000E-01  1.50000000E+00  8.00000000E-01  8.00000000E-01
  1.50000000E+00  8.00000000E-01  8.00000000E-01  1.50000000E+00  8.00000000E-01
  8.00000000E-01  1.50000000E+00  8.00000000E-01  8.00000000E-01  1.50000000E+00
  8.00000000E-01  8.00000000E-01  1.50000000E+00  8.00000000E-01  8.00000000E-01
  1.50000000E+00  8.00000000E-01  8.00000000E-01  1.50000000E+00  8.00000000E-01
  8.00000000E-01  1.50000000E+00  8.00000000E-01  8.00000000E-01  1.50000000E+00
  8.00000000E-01  8.00000000E-01  1.50000000E+00  8.00000000E-01  8.00000000E-01
  1.50000000E+00  8.00000000E-01  8.00000000E-01  1.50000000E+00  8.00000000E-01
  8.00000000E-01  1.50000000E+00  8.00000000E-01  8.00000000E-01  1.50000000E+00
  8.00000000E-01  8.00000000E-01  1.50000000E+00  8.00000000E-01  8.00000000E-01
  1.50000000E+00  8.00000000E-01  8.00000000E-01  1.50000000E+00  8.00000000E-01
  8.00000000E-01  1.50000000E+00  8.00000000E-01  8.00000000E-01  1.50000000E+00
  8.00000000E-01  8.00000000E-01  1.50000000E+00  8.00000000E-01  8.00000000E-01
  1.50000000E+00  8.00000000E-01  8.00000000E-01  1.50000000E+00  8.00000000E-01
  8.00000000E-01  1.50000000E+00  8.00000000E-01  8.00000000E-01  1.50000000E+00
  8.00000000E-01  8.00000000E-01  1.50000000E+00  8.00000000E-01  8.00000000E-01
  1.50000000E+00  8.00000000E-01  8.00000000E-01  1.50000000E+00  8.00000000E-01
  8.00000000E-01  1.50000000E+00  8.00000000E-01  8.00000000E-01  1.50000000E+00
  8.00000000E-01  8.00000000E-01  1.50000000E+00  8.00000000E-01  8.00000000E-01
  1.50000000E+00  8.00000000E-01  8.00000000E-01  1.50000000E+00  8.00000000E-01
  8.00000000E-01  1.50000000E+00  8.00000000E-01  8.00000000E-01  1.50000000E+00
  8.00000000E-01  8.00000000E-01  1.50000000E+00  8.00000000E-01  8.00000000E-01
  1.50000000E+00  8.00000000E-01  8.00000000E-01  1.50000000E+00  8.00000000E-01
  8.00000000E-01  1.50000000E+00  8.00000000E-01  8.00000000E-01  1.50000000E+00
  8.00000000E-01  8.00000000E-01  1.50000000E+00  8.00000000E-01  8.00000000E-01
  1.50000000E+00  8.00000000E-01  8.00000000E-01  1.50000000E+00  8.00000000E-01
  8.00000000E-01  1.50000000E+00  8.00000000E-01  8.00000000E-01  1.50000000E+00
  8.00000000E-01  8.00000000E-01  1.50000000E+00  8.00000000E-01  8.00000000E-01
  1.50000000E+00  8.00000000E-01  8.00000000E-01  1.50000000E+00  8.00000000E-01
  8.00000000E-01  1.50000000E+00  8.00000000E-01  8.00000000E-01  1.50000000E+00
  8.00000000E-01  8.00000000E-01  1.50000000E+00  8.00000000E-01  8.00000000E-01
  1.50000000E+00  8.00000000E-01  8.00000000E-01  1.50000000E+00  8.00000000E-01
  8.00000000E-01  1.50000000E+00  8.00000000E-01  8.00000000E-01  1.50000000E+00
  8.00000000E-01  8.00000000E-01  1.50000000E+00  8.00000000E-01  8.00000000E-01
  1.50000000E+00  8.00000000E-01  8.00000000E-01  1.50000000E+00  8.00000000E-01
  8.00000000E-01  1.50000000E+00  8.00000000E-01  8.00000000E-01  1.50000000E+00
  8.00000000E-01  8.00000000E-01  1.50000000E+00  8.00000000E-01  8.00000000E-01
  1.50000000E+00  8.00000000E-01  8.00000000E-01  1.50000000E+00  8.00000000E-01
  8.00000000E-01  1.50000000E+00  8.00000000E-01  8.00000000E-01  1.50000000E+00
  8.00000000E-01  8.00000000E-01  1.50000000E+00  8.00000000E-01  8.00000000E-01
  1.50000000E+00  8.00000000E-01  8.00000000E-01  1.50000000E+00  8.00000000E-01
  8.00000000E-01  1.50000000E+00  8.00000000E-01  8.00000000E-01  1.50000000E+00
  8.00000000E-01  8.00000000E-01  1.50000000E+00  8.00000000E-01  8.00000000E-01
  1.50000000E+00  8.00000000E-01  8.00000000E-01  1.50000000E+00  8.00000000E-01
  8.00000000E-01  1.50000000E+00  8.00000000E-01  8.00000000E-01  1.50000000E+00
  8.00000000E-01  8.00000000E-01  1.50000000E+00  8.00000000E-01  8.00000000E-01
  1.50000000E+00  8.00000000E-01  8.00000000E-01  1.50000000E+00  8.00000000E-01
  8.00000000E-01  1.50000000E+00  8.00000000E-01  8.00000000E-01  1.50000000E+00
  8.00000000E-01  8.00000000E-01  1.50000000E+00  8.00000000E-01  8.00000000E-01
  1.50000000E+00  8.00000000E-01  8.00000000E-01  1.50000000E+00  8.00000000E-01
  8.00000000E-01  1.50000000E+00  8.00000000E-01  8.00000000E-01  1.50000000E+00
  8.00000000E-01  8.00000000E-01  1.50000000E+00  8.00000000E-01  8.00000000E-01
  1.50000000E+00  8.00000000E-01  8.00000000E-01  1.50000000E+00  8.00000000E-01
  8.00000000E-01  1.50000000E+00  8.00000000E-01  8.00000000E-01  1.50000000E+00
  8.00000000E-01  8.00000000E-01  1.50000000E+00  8.00000000E-01  8.00000000E-01
  1.50000000E+00  8.00000000E-01  8.00000000E-01  1.50000000E+00  8.00000000E-01
  8.00000000E-01  1.50000000E+00  8.00000000E-01  8.00000000E-01  1.50000000E+00
  8.00000000E-01  8.00000000E-01  1.50000000E+00  8.00000000E-01  8.00000000E-01
  1.50000000E+00  8.00000000E-01  8.00000000E-01  1.50000000E+00  8.00000000E-01
  8.00000000E-01  1.50000000E+00  8.00000000E-01  8.00000000E-01  1.50000000E+00
  8.00000000E-01  8.00000000E-01  1.50000000E+00  8.00000000E-01  8.00000000E-01
  1.50000000E+00  8.00000000E-01  8.00000000E-01  1.50000000E+00  8.00000000E-01
  8.00000000E-01  1.50000000E+00  8.00000000E-01  8.00000000E-01  1.50000000E+00
  8.00000000E-01  8.00000000E-01  1.50000000E+00  8.00000000E-01  8.00000000E-01
  1.50000000E+00  8.00000000E-01  8.00000000E-01  1.50000000E+00  8.00000000E-01
  8.00000000E-01  1.50000000E+00  8.00000000E-01  8.00000000E-01  1.50000000E+00
  8.00000000E-01  8.00000000E-01  1.50000000E+00  8.00000000E-01  8.00000000E-01
  1.50000000E+00  8.00000000E-01  8.00000000E-01  1.50000000E+00  8.00000000E-01
  8.00000000E-01  1.50000000E+00  8.00000000E-01  8.00000000E-01  1.50000000E+00
  8.00000000E-01  8.00000000E-01  1.50000000E+00  8.00000000E-01  8.00000000E-01
  1.50000000E+00  8.00000000E-01  8.00000000E-01  1.50000000E+00  8.00000000E-01
  8.00000000E-01  1.50000000E+00  8.00000000E-01  8.00000000E-01  1.50000000E+00
  8.00000000E-01  8.00000000E-01  1.50000000E+00  8.00000000E-01  8.00000000E-01
  1.50000000E+00  8.00000000E-01  8.00000000E-01  1.50000000E+00  8.00000000E-01
  8.00000000E-01  1.50000000E+00  8.00000000E-01  8.00000000E-01  1.50000000E+00
  8.00000000E-01  8.00000000E-01  1.50000000E+00  8.00000000E-01  8.00000000E-01
  1.50000000E+00  8.00000000E-01  8.00000000E-01  1.50000000E+00  8.00000000E-01
  8.00000000E-01  1.50000000E+00  8.00000000E-01  8.00000000E-01  1.50000000E+00
  8.00000000E-01  8.00000000E-01  1.50000000E+00  8.00000000E-01  8.00000000E-01
  1.50000000E+00  8.00000000E-01  8.00000000E-01  1.50000000E+00  8.00000000E-01
  8.00000000E-01  1.50000000E+00  8.00000000E-01  8.00000000E-01  1.50000000E+00
  8.00000000E-01  8.00000000E-01  1.50000000E+00  8.00000000E-01  8.00000000E-01
  1.50000000E+00  8.00000000E-01  8.00000000E-01  1.50000000E+00  8.00000000E-01
  8.00000000E-01  1.50000000E+00  8.00000000E-01  8.00000000E-01  1.50000000E+00
  8.00000000E-01  8.00000000E-01  1.50000000E+00  8.00000000E-01  8.00000000E-01
  1.50000000E+00  8.00000000E-01  8.00000000E-01  1.50000000E+00  8.00000000E-01
  8.00000000E-01  1.50000000E+00  8.00000000E-01  8.00000000E-01  1.50000000E+00
  8.00000000E-01  8.00000000E-01  1.50000000E+00  8.00000000E-01  8.00000000E-01
  1.50000000E+00  8.00000000E-01  8.00000000E-01  1.50000000E+00  8.00000000E-01
  8.00000000E-01  1.50000000E+00  8.00000000E-01  8.00000000E-01  1.50000000E+00
  8.00000000E-01  8.00000000E-01  1.50000000E+00  8.00000000E-01  8.00000000E-01
  1.50000000E+00  8.00000000E-01  8.00000000E-01  1.50000000E+00  8.00000000E-01
  8.00000000E-01  1.50000000E+00  8.00000000E-01  8.00000000E-01  1.50000000E+00
  8.00000000E-01  8.00000000E-01  1.50000000E+00  8.00000000E-01  8.00000000E-01
  1.50000000E+00  8.00000000E-01  8.00000000E-01  1.50000000E+00  8.00000000E-01
  8.00000000E-01  1.50000000E+00  8.00000000E-01  8.00000000E-01  1.50000000E+00
  8.00000000E-01  8.00000000E-01  1.50000000E+00  8.00000000E-01  8.00000000E-01
  1.50000000E+00  8.00000000E-01  8.00000000E-01  1.50000000E+00  8.00000000E-01
  8.00000000E-01  1.50000000E+00  8.00000000E-01  8.00000000E-01  1.50000000E+00
  8.00000000E-01  8.00000000E-01  1.50000000E+00  8.00000000E-01  8.00000000E-01
  1.50000000E+00  8.00000000E-01  8.00000000E-01  1.50000000E+00  8.00000000E-01
  8.00000000E-01  1.50000000E+00  8.00000000E-01  8.00000000E-01  1.50000000E+00
  8.00000000E-01  8.00000000E-01  1.50000000E+00  8.00000000E-01  8.00000000E-01
  1.50000000E+00  8.00000000E-01  8.00000000E-01  1.50000000E+00  8.00000000E-01
  8.00000000E-01  1.50000000E+00  8.00000000E-01  8.00000000E-01  1.50000000E+00
  8.00000000E-01  8.00000000E-01  1.50000000E+00  8.00000000E-01  8.00000000E-01
  1.50000000E+00  8.00000000E-01  8.00000000E-01  1.50000000E+00  8.00000000E-01
  8.00000000E-01  1.50000000E+00  8.00000000E-01  8.00000000E-01  1.50000000E+00
  8.00000000E-01  8.00000000E-01  1.50000000E+00  8.00000000E-01  8.00000000E-01
  1.50000000E+00  8.00000000E-01  8.00000000E-01  1.50000000E+00  8.00000000E-01
  8.00000000E-01  1.50000000E+00  8.00000000E-01  8.00000000E-01  1.50000000E+00
  8.00000000E-01  8.00000000E-01  1.50000000E+00  8.00000000E-01  8.00000000E-01
  1.50000000E+00  8.00000000E-01  8.00000000E-01  1.50000000E+00  8.00000000E-01
  8.00000000E-01  1.50000000E+00  8.00000000E-01  8.00000000E-01  1.50000000E+00
  8.00000000E-01  8.00000000E-01  1.50000000E+00  8.00000000E-01  8.00000000E-01
  1.50000000E+00  8.00000000E-01  8.00000000E-01  1.50000000E+00  8.00000000E-01
  8.00000000E-01  1.50000000E+00  8.00000000E-01  8.00000000E-01  1.50000000E+00
  8.00000000E-01  8.00000000E-01  1.50000000E+00  8.00000000E-01  8.00000000E-01
  1.50000000E+00  8.00000000E-01  8.00000000E-01  1.50000000E+00  8.00000000E-01
  8.00000000E-01  1.50000000E+00  8.00000000E-01  8.00000000E-01  1.50000000E+00
  8.00000000E-01  8.00000000E-01  1.50000000E+00  8.00000000E-01  8.00000000E-01
  1.50000000E+00  8.00000000E-01  8.00000000E-01  1.50000000E+00  8.00000000E-01
  8.00000000E-01  1.50000000E+00  8.00000000E-01  8.00000000E-01  1.50000000E+00
  8.00000000E-01  8.00000000E-01  1.50000000E+00  8.00000000E-01  8.00000000E-01
  1.50000000E+00  8.00000000E-01  8.00000000E-01  1.50000000E+00  8.00000000E-01
  8.00000000E-01  1.50000000E+00  8.00000000E-01  8.00000000E-01  1.50000000E+00
  8.00000000E-01  8.00000000E-01  1.50000000E+00  8.00000000E-01  8.00000000E-01
  1.50000000E+00  8.00000000E-01  8.00000000E-01  1.50000000E+00  8.00000000E-01
  8.00000000E-01  1.50000000E+00  8.00000000E-01  8.00000000E-01  1.50000000E+00
  8.00000000E-01  8.00000000E-01  1.50000000E+00  8.00000000E-01  8.00000000E-01
  1.50000000E+00  8.00000000E-01  8.00000000E-01  1.50000000E+00  8.00000000E-01
  8.00000000E-01  1.50000000E+00  8.00000000E-01  8.00000000E-01  1.50000000E+00
  8.00000000E-01  8.00000000E-01  1.50000000E+00  8.00000000E-01  8.00000000E-01
  1.50000000E+00  8.00000000E-01  8.00000000E-01  1.50000000E+00  8.00000000E-01
  8.00000000E-01  1.50000000E+00  8.00000000E-01  8.00000000E-01  1.50000000E+00
  8.00000000E-01  8.00000000E-01  1.50000000E+00  8.00000000E-01  8.00000000E-01
  1.50000000E+00  8.00000000E-01  8.00000000E-01  1.50000000E+00  8.00000000E-01
  8.00000000E-01  1.50000000E+00  8.00000000E-01  8.00000000E-01  1.50000000E+00
  8.00000000E-01  8.00000000E-01  1.50000000E+00  8.00000000E-01  8.00000000E-01
  1.50000000E+00  8.00000000E-01  8.00000000E-01  1.50000000E+00  8.00000000E-01
  8.00000000E-01  1.50000000E+00  8.00000000E-01  8.00000000E-01  1.50000000E+00
  8.00000000E-01  8.00000000E-01  1.50000000E+00  8.00000000E-01  8.00000000E-01
  1.50000000E+00  8.00000000E-01  8.00000000E-01  1.50000000E+00  8.00000000E-01
  8.00000000E-01  1.50000000E+00  8.00000000E-01  8.00000000E-01  1.50000000E+00
  8.00000000E-01  8.00000000E-01  1.50000000E+00  8.00000000E-01  8.00000000E-01
  1.50000000E+00  8.00000000E-01  8.00000000E-01  1.50000000E+00  8.00000000E-01
  8.00000000E-01  1.50000000E+00  8.00000000E-01  8.00000000E-01  1.50000000E+00
  8.00000000E-01  8.00000000E-01  1.50000000E+00  8.00000000E-01  8.00000000E-01
  1.50000000E+00  8.00000000E-01  8.00000000E-01  1.50000000E+00  8.00000000E-01
  8.00000000E-01  1.50000000E+00  8.00000000E-01  8.00000000E-01  1.50000000E+00
  8.00000000E-01  8.00000000E-01  1.50000000E+00  8.00000000E-01  8.00000000E-01
  1.50000000E+00  8.00000000E-01  8.00000000E-01  1.50000000E+00  8.00000000E-01
  8.00000000E-01  1.50000000E+00  8.00000000E-01  8.00000000E-01  1.50000000E+00
  8.00000000E-01  8.00000000E-01  1.50000000E+00  8.00000000E-01  8.00000000E-01
  1.50000000E+00  8.00000000E-01  8.00000000E-01  1.50000000E+00  8.00000000E-01
  8.00000000E-01  1.50000000E+00  8.00000000E-01  8.00000000E-01  1.50000000E+00
  8.00000000E-01  8.00000000E-01  1.50000000E+00  8.00000000E-01  8.00000000E-01
  1.50000000E+00  8.00000000E-01  8.00000000E-01  1.50000000E+00  8.00000000E-01
  8.00000000E-01  1.50000000E+00  8.00000000E-01  8.00000000E-01  1.50000000E+00
  8.00000000E-01  8.00000000E-01  1.50000000E+00  8.00000000E-01  8.00000000E-01
  1.50000000E+00  8.00000000E-01  8.00000000E-01  1.50000000E+00  8.00000000E-01
  8.00000000E-01  1.50000000E+00  8.00000000E-01  8.00000000E-01  1.50000000E+00
  8.00000000E-01  8.00000000E-01  1.50000000E+00  8.00000000E-01  8.00000000E-01
  1.50000000E+00  8.00000000E-01  8.00000000E-01  1.50000000E+00  8.00000000E-01
  8.00000000E-01  1.50000000E+00  8.00000000E-01  8.00000000E-01  1.50000000E+00
  8.00000000E-01  8.00000000E-01  1.50000000E+00  8.00000000E-01  8.00000000E-01
  1.50000000E+00  8.00000000E-01  8.00000000E-01  1.50000000E+00  8.00000000E-01
  8.00000000E-01  1.50000000E+00  8.00000000E-01  8.00000000E-01  1.50000000E+00
  8.00000000E-01  8.00000000E-01  1.50000000E+00  8.00000000E-01  8.00000000E-01
  1.50000000E+00  8.00000000E-01  8.00000000E-01  1.50000000E+00  8.00000000E-01
  8.00000000E-01  1.50000000E+00  8.00000000E-01  8.00000000E-01  1.50000000E+00
  8.00000000E-01  8.00000000E-01  1.50000000E+00  8.00000000E-01  8.00000000E-01
  1.50000000E+00  8.00000000E-01  8.00000000E-01  1.50000000E+00  8.00000000E-01
  8.00000000E-01  1.50000000E+00  8.00000000E-01  8.00000000E-01  1.50000000E+00
  8.00000000E-01  8.00000000E-01  1.50000000E+00  8.00000000E-01  8.00000000E-01
  1.50000000E+00  8.00000000E-01  8.00000000E-01  1.50000000E+00  8.00000000E-01
  8.00000000E-01  1.50000000E+00  8.00000000E-01  8.00000000E-01  1.50000000E+00
  8.00000000E-01  8.00000000E-01  1.50000000E+00  8.00000000E-01  8.00000000E-01
  1.50000000E+00  8.00000000E-01  8.00000000E-01  1.50000000E+00  8.00000000E-01
  8.00000000E-01  1.50000000E+00  8.00000000E-01  8.00000000E-01  1.50000000E+00
  8.00000000E-01  8.00000000E-01  1.50000000E+00  8.00000000E-01  8.00000000E-01
  1.50000000E+00  8.00000000E-01  8.00000000E-01  1.50000000E+00  8.00000000E-01
  8.00000000E-01  1.50000000E+00  8.00000000E-01  8.00000000E-01  1.50000000E+00
  8.00000000E-01  8.00000000E-01  1.50000000E+00  8.00000000E-01  8.00000000E-01
  1.50000000E+00  8.00000000E-01  8.00000000E-01  1.50000000E+00  8.00000000E-01
  8.00000000E-01  1.50000000E+00  8.00000000E-01  8.00000000E-01  1.50000000E+00
  8.00000000E-01  8.00000000E-01  1.50000000E+00  8.00000000E-01  8.00000000E-01
  1.50000000E+00  8.00000000E-01  8.00000000E-01  1.50000000E+00  8.00000000E-01
  8.00000000E-01  1.50000000E+00  8.00000000E-01  8.00000000E-01  1.50000000E+00
  8.00000000E-01  8.00000000E-01  1.50000000E+00  8.00000000E-01  8.00000000E-01
  1.50000000E+00  8.00000000E-01  8.00000000E-01  1.50000000E+00  8.00000000E-01
  8.00000000E-01  1.50000000E+00  8.00000000E-01  8.00000000E-01  1.50000000E+00
  8.00000000E-01  8.00000000E-01  1.50000000E+00  8.00000000E-01  8.00000000E-01
  1.50000000E+00  8.00000000E-01  8.00000000E-01  1.50000000E+00  8.00000000E-01
  8.00000000E-01  1.50000000E+00  8.00000000E-01  8.00000000E-01  1.50000000E+00
  8.00000000E-01  8.00000000E-01  1.50000000E+00  8.00000000E-01  8.00000000E-01
  1.50000000E+00  8.00000000E-01  8.00000000E-01  1.50000000E+00  8.00000000E-01
  8.00000000E-01  1.50000000E+00  8.00000000E-01  8.00000000E-01  1.50000000E+00
  8.00000000E-01  8.00000000E-01  1.50000000E+00  8.00000000E-01  8.00000000E-01
  1.50000000E+00  8.00000000E-01  8.00000000E-01  1.50000000E+00  8.00000000E-01
  8.00000000E-01  1.50000000E+00  8.00000000E-01  8.00000000E-01  1.50000000E+00
  8.00000000E-01  8.00000000E-01  1.50000000E+00  8.00000000E-01  8.00000000E-01
  1.50000000E+00  8.00000000E-01  8.00000000E-01  1.50000000E+00  8.00000000E-01
  8.00000000E-01  1.50000000E+00  8.00000000E-01  8.00000000E-01  1.50000000E+00
  8.00000000E-01  8.00000000E-01  1.50000000E+00  8.00000000E-01  8.00000000E-01
  1.50000000E+00  8.00000000E-01  8.00000000E-01  1.50000000E+00  8.00000000E-01
  8.00000000E-01  1.50000000E+00  8.00000000E-01  8.00000000E-01  1.50000000E+00
  8.00000000E-01  8.00000000E-01  1.50000000E+00  8.00000000E-01  8.00000000E-01
  1.50000000E+00  8.00000000E-01  8.00000000E-01  1.50000000E+00  8.00000000E-01
  8.00000000E-01  1.50000000E+00  8.00000000E-01  8.00000000E-01  1.50000000E+00
  8.00000000E-01  8.00000000E-01  1.50000000E+00  8.00000000E-01  8.00000000E-01
  1.50000000E+00  8.00000000E-01  8.00000000E-01  1.50000000E+00  8.00000000E-01
  8.00000000E-01  1.50000000E+00  8.00000000E-01  8.00000000E-01  1.50000000E+00
  8.00000000E-01  8.00000000E-01  1.50000000E+00  8.00000000E-01  8.00000000E-01
  1.50000000E+00  8.00000000E-01  8.00000000E-01  1.50000000E+00  8.00000000E-01
  8.00000000E-01  1.50000000E+00  8.00000000E-01  8.00000000E-01  1.50000000E+00
  8.00000000E-01  8.00000000E-01  1.50000000E+00  8.00000000E-01  8.00000000E-01
  1.50000000E+00  8.00000000E-01  8.00000000E-01  1.50000000E+00  8.00000000E-01
  8.00000000E-01  1.50000000E+00  8.00000000E-01  8.00000000E-01  1.50000000E+00
  8.00000000E-01  8.00000000E-01  1.50000000E+00  8.00000000E-01  8.00000000E-01
  1.50000000E+00  8.00000000E-01  8.00000000E-01  1.50000000E+00  8.00000000E-01
  8.00000000E-01  1.50000000E+00  8.00000000E-01  8.00000000E-01  1.50000000E+00
  8.00000000E-01  8.00000000E-01  1.50000000E+00  8.00000000E-01  8.00000000E-01
  1.50000000E+00  8.00000000E-01  8.00000000E-01  1.50000000E+00  8.00000000E-01
  8.00000000E-01  1.50000000E+00  8.00000000E-01  8.00000000E-01  1.50000000E+00
  8.00000000E-01  8.00000000E-01  1.50000000E+00  8.00000000E-01  8.00000000E-01
  1.50000000E+00  8.00000000E-01  8.00000000E-01  1.50000000E+00  8.00000000E-01
  8.00000000E-01  1.50000000E+00  8.00000000E-01  8.00000000E-01  1.50000000E+00
  8.00000000E-01  8.00000000E-01  1.50000000E+00  8.00000000E-01  8.00000000E-01
  1.50000000E+00  8.00000000E-01  8.00000000E-01  1.50000000E+00  8.00000000E-01
  8.00000000E-01  1.50000000E+00  8.00000000E-01  8.00000000E-01  1.50000000E+00
  8.00000000E-01  8.00000000E-01  1.50000000E+00  8.00000000E-01  8.00000000E-01
  1.50000000E+00  8.00000000E-01  8.00000000E-01  1.50000000E+00  8.00000000E-01
  8.00000000E-01  1.50000000E+00  8.00000000E-01  8.00000000E-01  1.50000000E+00
  8.00000000E-01  8.00000000E-01  1.50000000E+00  8.00000000E-01  8.00000000E-01
  1.50000000E+00  8.00000000E-01  8.00000000E-01  1.50000000E+00  8.00000000E-01
  8.00000000E-01  1.50000000E+00  8.00000000E-01  8.00000000E-01  1.50000000E+00
  8.00000000E-01  8.00000000E-01  1.50000000E+00  8.00000000E-01  8.00000000E-01
  1.50000000E+00  8.00000000E-01  8.00000000E-01  1.50000000E+00  8.00000000E-01
  8.00000000E-01  1.50000000E+00  8.00000000E-01  8.00000000E-01  1.50000000E+00
  8.00000000E-01  8.00000000E-01  1.50000000E+00  8.00000000E-01  8.00000000E-01
  1.50000000E+00  8.00000000E-01  8.00000000E-01  1.50000000E+00  8.00000000E-01
  8.00000000E-01  1.50000000E+00  8.00000000E-01  8.00000000E-01  1.50000000E+00
  8.00000000E-01  8.00000000E-01  1.50000000E+00  8.00000000E-01  8.00000000E-01
  1.50000000E+00  8.00000000E-01  8.00000000E-01  1.50000000E+00  8.00000000E-01
  8.00000000E-01  1.50000000E+00  8.00000000E-01  8.00000000E-01  1.50000000E+00
  8.00000000E-01  8.00000000E-01  1.50000000E+00  8.00000000E-01  8.00000000E-01
  1.50000000E+00  8.00000000E-01  8.00000000E-01  1.50000000E+00  8.00000000E-01
  8.00000000E-01  1.50000000E+00  8.00000000E-01  8.00000000E-01  1.50000000E+00
  8.00000000E-01  8.00000000E-01  1.50000000E+00  8.00000000E-01  8.00000000E-01
  1.50000000E+00  8.00000000E-01  8.00000000E-01  1.50000000E+00  8.00000000E-01
  8.00000000E-01  1.50000000E+00  8.00000000E-01  8.00000000E-01  1.50000000E+00
  8.00000000E-01  8.00000000E-01  1.50000000E+00  8.00000000E-01  8.00000000E-01
  1.50000000E+00  8.00000000E-01  8.00000000E-01  1.50000000E+00  8.00000000E-01
  8.00000000E-01  1.50000000E+00  8.00000000E-01  8.00000000E-01  1.50000000E+00
  8.00000000E-01  8.00000000E-01  1.50000000E+00  8.00000000E-01  8.00000000E-01
  1.50000000E+00  8.00000000E-01  8.00000000E-01  1.50000000E+00  8.00000000E-01
  8.00000000E-01  1.50000000E+00  8.00000000E-01  8.00000000E-01  1.50000000E+00
  8.00000000E-01  8.00000000E-01  1.50000000E+00  8.00000000E-01  8.00000000E-01
  1.50000000E+00  8.00000000E-01  8.00000000E-01  1.50000000E+00  8.00000000E-01
  8.00000000E-01  1.50000000E+00  8.00000000E-01  8.00000000E-01  1.50000000E+00
  8.00000000E-01  8.00000000E-01  1.50000000E+00  8.00000000E-01  8.00000000E-01
  1.50000000E+00  8.00000000E-01  8.00000000E-01  1.50000000E+00  8.00000000E-01
  8.00000000E-01  1.50000000E+00  8.00000000E-01  8.00000000E-01  1.50000000E+00
  8.00000000E-01  8.00000000E-01  1.50000000E+00  8.00000000E-01  8.00000000E-01
  1.50000000E+00  8.00000000E-01  8.00000000E-01  1.50000000E+00  8.00000000E-01
  8.00000000E-01  1.50000000E+00  8.00000000E-01  8.00000000E-01  1.50000000E+00
  8.00000000E-01  8.00000000E-01  1.50000000E+00  8.00000000E-01  8.00000000E-01
  1.50000000E+00  8.00000000E-01  8.00000000E-01  1.50000000E+00  8.00000000E-01
  8.00000000E-01  1.50000000E+00  8.00000000E-01  8.00000000E-01  1.50000000E+00
  8.00000000E-01  8.00000000E-01  1.50000000E+00  8.00000000E-01  8.00000000E-01
  1.50000000E+00  8.00000000E-01  8.00000000E-01  1.50000000E+00  8.00000000E-01
  8.00000000E-01  1.50000000E+00  8.00000000E-01  8.00000000E-01  1.50000000E+00
  8.00000000E-01  8.00000000E-01  1.50000000E+00  8.00000000E-01  8.00000000E-01
  1.50000000E+00  8.00000000E-01  8.00000000E-01  1.50000000E+00  8.00000000E-01
  8.00000000E-01  1.50000000E+00  8.00000000E-01  8.00000000E-01  1.50000000E+00
  8.00000000E-01  8.00000000E-01  1.50000000E+00  8.00000000E-01  8.00000000E-01
  1.50000000E+00  8.00000000E-01  8.00000000E-01  1.50000000E+00  8.00000000E-01
  8.00000000E-01  1.50000000E+00  8.00000000E-01  8.00000000E-01  1.50000000E+00
  8.00000000E-01  8.00000000E-01  1.50000000E+00  8.00000000E-01  8.00000000E-01
  1.50000000E+00  8.00000000E-01  8.00000000E-01  1.50000000E+00  8.00000000E-01
  8.00000000E-01  1.50000000E+00  8.00000000E-01  8.00000000E-01  1.50000000E+00
  8.00000000E-01  8.00000000E-01  1.50000000E+00  8.00000000E-01  8.00000000E-01
  1.50000000E+00  8.00000000E-01  8.00000000E-01  1.50000000E+00  8.00000000E-01
  8.00000000E-01  1.50000000E+00  8.00000000E-01  8.00000000E-01  1.50000000E+00
  8.00000000E-01  8.00000000E-01  1.50000000E+00  8.00000000E-01  8.00000000E-01
  1.50000000E+00  8.00000000E-01  8.00000000E-01  1.50000000E+00  8.00000000E-01
  8.00000000E-01  1.50000000E+00  8.00000000E-01  8.00000000E-01  1.50000000E+00
  8.00000000E-01  8.00000000E-01  1.50000000E+00  8.00000000E-01  8.00000000E-01
  1.50000000E+00  8.00000000E-01  8.00000000E-01  1.50000000E+00  8.00000000E-01
  8.00000000E-01  1.50000000E+00  8.00000000E-01  8.00000000E-01  1.50000000E+00
  8.00000000E-01  8.00000000E-01  1.50000000E+00  8.00000000E-01  8.00000000E-01
  1.50000000E+00  8.00000000E-01  8.00000000E-01  1.50000000E+00  8.00000000E-01
  8.00000000E-01  1.50000000E+00  8.00000000E-01  8.00000000E-01  1.50000000E+00
  8.00000000E-01  8.00000000E-01  1.50000000E+00  8.00000000E-01  8.00000000E-01
  1.50000000E+00  8.00000000E-01  8.00000000E-01  1.50000000E+00  8.00000000E-01
  8.00000000E-01  1.50000000E+00  8.00000000E-01  8.00000000E-01  1.50000000E+00
  8.00000000E-01  8.00000000E-01  1.50000000E+00  8.00000000E-01  8.00000000E-01
  1.50000000E+00  8.00000000E-01  8.00000000E-01  1.50000000E+00  8.00000000E-01
  8.00000000E-01  1.50000000E+00  8.00000000E-01  8.00000000E-01  1.50000000E+00
  8.00000000E-01  8.00000000E-01  1.50000000E+00  8.00000000E-01  8.00000000E-01
  1.50000000E+00  8.00000000E-01  8.00000000E-01  1.50000000E+00  8.00000000E-01
  8.00000000E-01  1.50000000E+00  8.00000000E-01  8.00000000E-01  1.50000000E+00
  8.00000000E-01  8.00000000E-01  1.50000000E+00  8.00000000E-01  8.00000000E-01
  1.50000000E+00  8.00000000E-01  8.00000000E-01  1.50000000E+00  8.00000000E-01
  8.00000000E-01  1.50000000E+00  8.00000000E-01  8.00000000E-01  1.50000000E+00
  8.00000000E-01  8.00000000E-01  1.50000000E+00  8.00000000E-01  8.00000000E-01
  1.50000000E+00  8.00000000E-01  8.00000000E-01  1.50000000E+00  8.00000000E-01
  8.00000000E-01  1.50000000E+00  8.00000000E-01  8.00000000E-01  1.50000000E+00
  8.00000000E-01  8.00000000E-01  1.50000000E+00  8.00000000E-01  8.00000000E-01
  1.50000000E+00  8.00000000E-01  8.00000000E-01  1.50000000E+00  8.00000000E-01
  8.00000000E-01  1.50000000E+00  8.00000000E-01  8.00000000E-01  1.50000000E+00
  8.00000000E-01  8.00000000E-01  1.50000000E+00  8.00000000E-01  8.00000000E-01
  1.50000000E+00  8.00000000E-01  8.00000000E-01  1.50000000E+00  8.00000000E-01
  8.00000000E-01  1.50000000E+00  8.00000000E-01  8.00000000E-01  1.50000000E+00
  8.00000000E-01  8.00000000E-01  1.50000000E+00  8.00000000E-01  8.00000000E-01
  1.50000000E+00  8.00000000E-01  8.00000000E-01  1.50000000E+00  8.00000000E-01
  8.00000000E-01  1.50000000E+00  8.00000000E-01  8.00000000E-01  1.50000000E+00
  8.00000000E-01  8.00000000E-01  1.50000000E+00  8.00000000E-01  8.00000000E-01
  1.50000000E+00  8.00000000E-01  8.00000000E-01  1.50000000E+00  8.00000000E-01
  8.00000000E-01  1.50000000E+00  8.00000000E-01  8.00000000E-01  1.50000000E+00
  8.00000000E-01  8.00000000E-01  1.50000000E+00  8.00000000E-01  8.00000000E-01
  1.50000000E+00  8.00000000E-01  8.00000000E-01  1.50000000E+00  8.00000000E-01
  8.00000000E-01  1.50000000E+00  8.00000000E-01  8.00000000E-01  1.50000000E+00
  8.00000000E-01  8.00000000E-01  1.50000000E+00  8.00000000E-01  8.00000000E-01
  1.50000000E+00  8.00000000E-01  8.00000000E-01  1.50000000E+00  8.00000000E-01
  8.00000000E-01  1.50000000E+00  8.00000000E-01  8.00000000E-01  1.50000000E+00
  8.00000000E-01  8.00000000E-01  1.50000000E+00  8.00000000E-01  8.00000000E-01
  1.50000000E+00  8.00000000E-01  8.00000000E-01  1.50000000E+00  8.00000000E-01
  8.00000000E-01  1.50000000E+00  8.00000000E-01  8.00000000E-01  1.50000000E+00
  8.00000000E-01  8.00000000E-01  1.50000000E+00  8.00000000E-01  8.00000000E-01
  1.50000000E+00  8.00000000E-01  8.00000000E-01  1.50000000E+00  8.00000000E-01
  8.00000000E-01  1.50000000E+00  8.00000000E-01  8.00000000E-01  1.50000000E+00
  8.00000000E-01  8.00000000E-01  1.50000000E+00  8.00000000E-01  8.00000000E-01
  1.50000000E+00  8.00000000E-01  8.00000000E-01  1.50000000E+00  8.00000000E-01
  8.00000000E-01  1.50000000E+00  8.00000000E-01  8.00000000E-01  1.50000000E+00
  8.00000000E-01  8.00000000E-01  1.50000000E+00  8.00000000E-01  8.00000000E-01
  1.50000000E+00  8.00000000E-01  8.00000000E-01  1.50000000E+00  8.00000000E-01
  8.00000000E-01  1.50000000E+00  8.00000000E-01  8.00000000E-01  1.50000000E+00
  8.00000000E-01  8.00000000E-01  1.50000000E+00  8.00000000E-01  8.00000000E-01
  1.50000000E+00  8.00000000E-01  8.00000000E-01  1.50000000E+00  8.00000000E-01
  8.00000000E-01  1.50000000E+00  8.00000000E-01  8.00000000E-01  1.50000000E+00
  8.00000000E-01  8.00000000E-01  1.50000000E+00  8.00000000E-01  8.00000000E-01
  1.50000000E+00  8.00000000E-01  8.00000000E-01  1.50000000E+00  8.00000000E-01
  8.00000000E-01  1.50000000E+00  8.00000000E-01  8.00000000E-01  1.50000000E+00
  8.00000000E-01  8.00000000E-01  1.50000000E+00  8.00000000E-01  8.00000000E-01
  1.50000000E+00  8.00000000E-01  8.00000000E-01  1.50000000E+00  8.00000000E-01
  8.00000000E-01  1.50000000E+00  8.00000000E-01  8.00000000E-01  1.50000000E+00
  8.00000000E-01  8.00000000E-01  1.50000000E+00  8.00000000E-01  8.00000000E-01
  1.50000000E+00  8.00000000E-01  8.00000000E-01  1.50000000E+00  8.00000000E-01
  8.00000000E-01  1.50000000E+00  8.00000000E-01  8.00000000E-01  1.50000000E+00
  8.00000000E-01  8.00000000E-01  1.50000000E+00  8.00000000E-01  8.00000000E-01
  1.50000000E+00  8.00000000E-01  8.00000000E-01  1.50000000E+00  8.00000000E-01
  8.00000000E-01  1.50000000E+00  8.00000000E-01  8.00000000E-01  1.50000000E+00
  8.00000000E-01  8.00000000E-01  1.50000000E+00  8.00000000E-01  8.00000000E-01
  1.50000000E+00  8.00000000E-01  8.00000000E-01  1.50000000E+00  8.00000000E-01
  8.00000000E-01  1.50000000E+00  8.00000000E-01  8.00000000E-01  1.50000000E+00
  8.00000000E-01  8.00000000E-01  1.50000000E+00  8.00000000E-01  8.00000000E-01
  1.50000000E+00  8.00000000E-01  8.00000000E-01  1.50000000E+00  8.00000000E-01
  8.00000000E-01  1.50000000E+00  8.00000000E-01  8.00000000E-01  1.50000000E+00
  8.00000000E-01  8.00000000E-01  1.50000000E+00  8.00000000E-01  8.00000000E-01
  1.50000000E+00  8.00000000E-01  8.00000000E-01  1.50000000E+00  8.00000000E-01
  8.00000000E-01  1.50000000E+00  8.00000000E-01  8.00000000E-01  1.50000000E+00
  8.00000000E-01  8.00000000E-01  1.50000000E+00  8.00000000E-01  8.00000000E-01
  1.50000000E+00  8.00000000E-01  8.00000000E-01  1.50000000E+00  8.00000000E-01
  8.00000000E-01  1.50000000E+00  8.00000000E-01  8.00000000E-01  1.50000000E+00
  8.00000000E-01  8.00000000E-01  1.50000000E+00  8.00000000E-01  8.00000000E-01
  1.50000000E+00  8.00000000E-01  8.00000000E-01  1.50000000E+00  8.00000000E-01
  8.00000000E-01  1.50000000E+00  8.00000000E-01  8.00000000E-01  1.50000000E+00
  8.00000000E-01  8.00000000E-01  1.50000000E+00  8.00000000E-01  8.00000000E-01
  1.50000000E+00  8.00000000E-01  8.00000000E-01  1.50000000E+00  8.00000000E-01
  8.00000000E-01  1.50000000E+00  8.00000000E-01  8.00000000E-01  1.50000000E+00
  8.00000000E-01  8.00000000E-01  1.50000000E+00  8.00000000E-01  8.00000000E-01
  1.50000000E+00  8.00000000E-01  8.00000000E-01  1.50000000E+00  8.00000000E-01
  8.00000000E-01  1.50000000E+00  8.00000000E-01  8.00000000E-01  1.50000000E+00
  8.00000000E-01  8.00000000E-01  1.50000000E+00  8.00000000E-01  8.00000000E-01
  1.50000000E+00  8.00000000E-01  8.00000000E-01  1.50000000E+00  8.00000000E-01
  8.00000000E-01  1.50000000E+00  8.00000000E-01  8.00000000E-01  1.50000000E+00
  8.00000000E-01  8.00000000E-01  1.50000000E+00  8.00000000E-01  8.00000000E-01
  1.50000000E+00  8.00000000E-01  8.00000000E-01  1.50000000E+00  8.00000000E-01
  8.00000000E-01  1.50000000E+00  8.00000000E-01  8.00000000E-01  1.50000000E+00
  8.00000000E-01  8.00000000E-01  1.50000000E+00  8.00000000E-01  8.00000000E-01
  1.50000000E+00  8.00000000E-01  8.00000000E-01  1.50000000E+00  8.00000000E-01
  8.00000000E-01  1.50000000E+00  8.00000000E-01  8.00000000E-01  1.50000000E+00
  8.00000000E-01  8.00000000E-01  1.50000000E+00  8.00000000E-01  8.00000000E-01
  1.50000000E+00  8.00000000E-01  8.00000000E-01  1.50000000E+00  8.00000000E-01
  8.00000000E-01  1.50000000E+00  8.00000000E-01  8.00000000E-01  1.50000000E+00
  8.00000000E-01  8.00000000E-01  1.50000000E+00  8.00000000E-01  8.00000000E-01
  1.50000000E+00  8.00000000E-01  8.00000000E-01  1.50000000E+00  8.00000000E-01
  8.00000000E-01  1.50000000E+00  8.00000000E-01  8.00000000E-01  1.50000000E+00
  8.00000000E-01  8.00000000E-01  1.50000000E+00  8.00000000E-01  8.00000000E-01
  1.50000000E+00  8.00000000E-01  8.00000000E-01  1.50000000E+00  8.00000000E-01
  8.00000000E-01  1.50000000E+00  8.00000000E-01  8.00000000E-01  1.50000000E+00
  8.00000000E-01  8.00000000E-01  1.50000000E+00  8.00000000E-01  8.00000000E-01
  1.50000000E+00  8.00000000E-01  8.00000000E-01  1.50000000E+00  8.00000000E-01
  8.00000000E-01  1.50000000E+00  8.00000000E-01  8.00000000E-01  1.50000000E+00
  8.00000000E-01  8.00000000E-01  1.50000000E+00  8.00000000E-01  8.00000000E-01
  1.50000000E+00  8.00000000E-01  8.00000000E-01  1.50000000E+00  8.00000000E-01
  8.00000000E-01  1.50000000E+00  8.00000000E-01  8.00000000E-01  1.50000000E+00
  8.00000000E-01  8.00000000E-01  1.50000000E+00  8.00000000E-01  8.00000000E-01
  1.50000000E+00  8.00000000E-01  8.00000000E-01  1.50000000E+00  8.00000000E-01
  8.00000000E-01  1.50000000E+00  8.00000000E-01  8.00000000E-01  1.50000000E+00
  8.00000000E-01  8.00000000E-01  1.50000000E+00  8.00000000E-01  8.00000000E-01
  1.50000000E+00  8.00000000E-01  8.00000000E-01  1.50000000E+00  8.00000000E-01
  8.00000000E-01  1.50000000E+00  8.00000000E-01  8.00000000E-01  1.50000000E+00
  8.00000000E-01  8.00000000E-01  1.50000000E+00  8.00000000E-01  8.00000000E-01
  1.50000000E+00  8.00000000E-01  8.00000000E-01  1.50000000E+00  8.00000000E-01
  8.00000000E-01  1.50000000E+00  8.00000000E-01  8.00000000E-01  1.50000000E+00
  8.00000000E-01  8.00000000E-01  1.50000000E+00  8.00000000E-01  8.00000000E-01
  1.50000000E+00  8.00000000E-01  8.00000000E-01  1.50000000E+00  8.00000000E-01
  8.00000000E-01  1.50000000E+00  8.00000000E-01  8.00000000E-01  1.50000000E+00
  8.00000000E-01  8.00000000E-01  1.50000000E+00  8.00000000E-01  8.00000000E-01
  1.50000000E+00  8.00000000E-01  8.00000000E-01  1.50000000E+00  8.00000000E-01
  8.00000000E-01  1.50000000E+00  8.00000000E-01  8.00000000E-01  1.50000000E+00
  8.00000000E-01  8.00000000E-01  1.50000000E+00  8.00000000E-01  8.00000000E-01
  1.50000000E+00  8.00000000E-01  8.00000000E-01  1.50000000E+00  8.00000000E-01
  8.00000000E-01  1.50000000E+00  8.00000000E-01  8.00000000E-01  1.50000000E+00
  8.00000000E-01  8.00000000E-01  1.50000000E+00  8.00000000E-01  8.00000000E-01
  1.50000000E+00  8.00000000E-01  8.00000000E-01  1.50000000E+00  8.00000000E-01
  8.00000000E-01  1.50000000E+00  8.00000000E-01  8.00000000E-01  1.50000000E+00
  8.00000000E-01  8.00000000E-01  1.50000000E+00  8.00000000E-01  8.00000000E-01
  1.50000000E+00  8.00000000E-01  8.00000000E-01  1.50000000E+00  8.00000000E-01
  8.00000000E-01  1.50000000E+00  8.00000000E-01  8.00000000E-01  1.50000000E+00
  8.00000000E-01  8.00000000E-01  1.50000000E+00  8.00000000E-01  8.00000000E-01
  1.50000000E+00  8.00000000E-01  8.00000000E-01  1.50000000E+00  8.00000000E-01
  8.00000000E-01  1.50000000E+00  8.00000000E-01  8.00000000E-01  1.50000000E+00
  8.00000000E-01  8.00000000E-01  1.50000000E+00  8.00000000E-01  8.00000000E-01
  1.50000000E+00  8.00000000E-01  8.00000000E-01  1.50000000E+00  8.00000000E-01
  8.00000000E-01  1.50000000E+00  8.00000000E-01  8.00000000E-01  1.50000000E+00
  8.00000000E-01  8.00000000E-01  1.50000000E+00  8.00000000E-01  8.00000000E-01
  1.50000000E+00  8.00000000E-01  8.00000000E-01  1.50000000E+00  8.00000000E-01
  8.00000000E-01  1.50000000E+00  8.00000000E-01  8.00000000E-01  1.50000000E+00
  8.00000000E-01  8.00000000E-01  1.50000000E+00  8.00000000E-01  8.00000000E-01
  1.50000000E+00  8.00000000E-01  8.00000000E-01  1.50000000E+00  8.00000000E-01
  8.00000000E-01  1.50000000E+00  8.00000000E-01  8.00000000E-01  1.50000000E+00
  8.00000000E-01  8.00000000E-01  1.50000000E+00  8.00000000E-01  8.00000000E-01
  1.50000000E+00  8.00000000E-01  8.00000000E-01  1.50000000E+00  8.00000000E-01
  8.00000000E-01  1.50000000E+00  8.00000000E-01  8.00000000E-01  1.50000000E+00
  8.00000000E-01  8.00000000E-01  1.50000000E+00  8.00000000E-01  8.00000000E-01
  1.50000000E+00  8.00000000E-01  8.00000000E-01  1.50000000E+00  8.00000000E-01
  8.00000000E-01  1.50000000E+00  8.00000000E-01  8.00000000E-01  1.50000000E+00
  8.00000000E-01  8.00000000E-01  1.50000000E+00  8.00000000E-01  8.00000000E-01
  1.50000000E+00  8.00000000E-01  8.00000000E-01  1.50000000E+00  8.00000000E-01
  8.00000000E-01  1.50000000E+00  8.00000000E-01  8.00000000E-01  1.50000000E+00
  8.00000000E-01  8.00000000E-01  1.50000000E+00  8.00000000E-01  8.00000000E-01
  1.50000000E+00  8.00000000E-01  8.00000000E-01  1.50000000E+00  8.00000000E-01
  8.00000000E-01  1.50000000E+00  8.00000000E-01  8.00000000E-01  1.50000000E+00
  8.00000000E-01  8.00000000E-01  1.50000000E+00  8.00000000E-01  8.00000000E-01
  1.50000000E+00  8.00000000E-01  8.00000000E-01  1.50000000E+00  8.00000000E-01
  8.00000000E-01  1.50000000E+00  8.00000000E-01  8.00000000E-01  1.50000000E+00
  8.00000000E-01  8.00000000E-01  1.50000000E+00  8.00000000E-01  8.00000000E-01
  1.50000000E+00  8.00000000E-01  8.00000000E-01  1.50000000E+00  8.00000000E-01
  8.00000000E-01  1.50000000E+00  8.00000000E-01  8.00000000E-01  1.50000000E+00
  8.00000000E-01  8.00000000E-01  1.50000000E+00  8.00000000E-01  8.00000000E-01
  1.50000000E+00  8.00000000E-01  8.00000000E-01  1.50000000E+00  8.00000000E-01
  8.00000000E-01  1.50000000E+00  8.00000000E-01  8.00000000E-01  1.50000000E+00
  8.00000000E-01  8.00000000E-01  1.50000000E+00  8.00000000E-01  8.00000000E-01
  1.50000000E+00  8.00000000E-01  8.00000000E-01  1.50000000E+00  8.00000000E-01
  8.00000000E-01  1.50000000E+00  8.00000000E-01  8.00000000E-01  1.50000000E+00
  8.00000000E-01  8.00000000E-01  1.50000000E+00  8.00000000E-01  8.00000000E-01
  1.50000000E+00  8.00000000E-01  8.00000000E-01  1.50000000E+00  8.00000000E-01
  8.00000000E-01  1.50000000E+00  8.00000000E-01  8.00000000E-01  1.50000000E+00
  8.00000000E-01  8.00000000E-01  1.50000000E+00  8.00000000E-01  8.00000000E-01
  1.50000000E+00  8.00000000E-01  8.00000000E-01  1.50000000E+00  8.00000000E-01
  8.00000000E-01  1.50000000E+00  8.00000000E-01  8.00000000E-01  1.50000000E+00
  8.00000000E-01  8.00000000E-01  1.50000000E+00  8.00000000E-01  8.00000000E-01
  1.50000000E+00  8.00000000E-01  8.00000000E-01  1.50000000E+00  8.00000000E-01
  8.00000000E-01  1.50000000E+00  8.00000000E-01  8.00000000E-01  1.50000000E+00
  8.00000000E-01  8.00000000E-01  1.50000000E+00  8.00000000E-01  8.00000000E-01
  1.50000000E+00  8.00000000E-01  8.00000000E-01  1.50000000E+00  8.00000000E-01
  8.00000000E-01  1.50000000E+00  8.00000000E-01  8.00000000E-01  1.50000000E+00
  8.00000000E-01  8.00000000E-01  1.50000000E+00  8.00000000E-01  8.00000000E-01
  1.50000000E+00  8.00000000E-01  8.00000000E-01  1.50000000E+00  8.00000000E-01
  8.00000000E-01  1.50000000E+00  8.00000000E-01  8.00000000E-01  1.50000000E+00
  8.00000000E-01  8.00000000E-01  1.50000000E+00  8.00000000E-01  8.00000000E-01
  1.50000000E+00  8.00000000E-01  8.00000000E-01  1.50000000E+00  8.00000000E-01
  8.00000000E-01  1.50000000E+00  8.00000000E-01  8.00000000E-01  1.50000000E+00
  8.00000000E-01  8.00000000E-01  1.50000000E+00  8.00000000E-01  8.00000000E-01
  1.50000000E+00  8.00000000E-01  8.00000000E-01  1.50000000E+00  8.00000000E-01
  8.00000000E-01  1.50000000E+00  8.00000000E-01  8.00000000E-01  1.50000000E+00
  8.00000000E-01  8.00000000E-01  1.50000000E+00  8.00000000E-01  8.00000000E-01
  1.50000000E+00  8.00000000E-01  8.00000000E-01  1.50000000E+00  8.00000000E-01
  8.00000000E-01  1.50000000E+00  8.00000000E-01  8.00000000E-01  1.50000000E+00
  8.00000000E-01  8.00000000E-01  1.50000000E+00  8.00000000E-01  8.00000000E-01
  1.50000000E+00  8.00000000E-01  8.00000000E-01  1.50000000E+00  8.00000000E-01
  8.00000000E-01  1.50000000E+00  8.00000000E-01  8.00000000E-01  1.50000000E+00
  8.00000000E-01  8.00000000E-01  1.50000000E+00  8.00000000E-01  8.00000000E-01
  1.50000000E+00  8.00000000E-01  8.00000000E-01  1.50000000E+00  8.00000000E-01
  8.00000000E-01  1.50000000E+00  8.00000000E-01  8.00000000E-01  1.50000000E+00
  8.00000000E-01  8.00000000E-01  1.50000000E+00  8.00000000E-01  8.00000000E-01
  1.50000000E+00  8.00000000E-01  8.00000000E-01  1.50000000E+00  8.00000000E-01
  8.00000000E-01  1.50000000E+00  8.00000000E-01  8.00000000E-01  1.50000000E+00
  8.00000000E-01  8.00000000E-01  1.50000000E+00  8.00000000E-01  8.00000000E-01
  1.50000000E+00  8.00000000E-01  8.00000000E-01  1.50000000E+00  8.00000000E-01
  8.00000000E-01  1.50000000E+00  8.00000000E-01  8.00000000E-01  1.50000000E+00
  8.00000000E-01  8.00000000E-01  1.50000000E+00  8.00000000E-01  8.00000000E-01
  1.50000000E+00  8.00000000E-01  8.00000000E-01  1.50000000E+00  8.00000000E-01
  8.00000000E-01  1.50000000E+00  8.00000000E-01  8.00000000E-01  1.50000000E+00
  8.00000000E-01  8.00000000E-01  1.50000000E+00  8.00000000E-01  8.00000000E-01
  1.50000000E+00  8.00000000E-01  8.00000000E-01  1.50000000E+00  8.00000000E-01
  8.00000000E-01  1.50000000E+00  8.00000000E-01  8.00000000E-01  1.50000000E+00
  8.00000000E-01  8.00000000E-01  1.50000000E+00  8.00000000E-01  8.00000000E-01
  1.50000000E+00  8.00000000E-01  8.00000000E-01  1.50000000E+00  8.00000000E-01
  8.00000000E-01  1.50000000E+00  8.00000000E-01  8.00000000E-01  1.50000000E+00
  8.00000000E-01  8.00000000E-01  1.50000000E+00  8.00000000E-01  8.00000000E-01
  1.50000000E+00  8.00000000E-01  8.00000000E-01  1.50000000E+00  8.00000000E-01
  8.00000000E-01  1.50000000E+00  8.00000000E-01  8.00000000E-01  1.50000000E+00
  8.00000000E-01  8.00000000E-01  1.50000000E+00  8.00000000E-01  8.00000000E-01
  1.50000000E+00  8.00000000E-01  8.00000000E-01  1.50000000E+00  8.00000000E-01
  8.00000000E-01  1.50000000E+00  8.00000000E-01  8.00000000E-01  1.50000000E+00
  8.00000000E-01  8.00000000E-01  1.50000000E+00  8.00000000E-01  8.00000000E-01
  1.50000000E+00  8.00000000E-01  8.00000000E-01  1.50000000E+00  8.00000000E-01
  8.00000000E-01  1.50000000E+00  8.00000000E-01  8.00000000E-01  1.50000000E+00
  8.00000000E-01  8.00000000E-01  1.50000000E+00  8.00000000E-01  8.00000000E-01
  1.50000000E+00  8.00000000E-01  8.00000000E-01  1.50000000E+00  8.00000000E-01
  8.00000000E-01  1.50000000E+00  8.00000000E-01  8.00000000E-01  1.50000000E+00
  8.00000000E-01  8.00000000E-01  1.50000000E+00  8.00000000E-01  8.00000000E-01
  1.50000000E+00  8.00000000E-01  8.00000000E-01  1.50000000E+00  8.00000000E-01
  8.00000000E-01  1.50000000E+00  8.00000000E-01  8.00000000E-01  1.50000000E+00
  8.00000000E-01  8.00000000E-01  1.50000000E+00  8.00000000E-01  8.00000000E-01
  1.50000000E+00  8.00000000E-01  8.00000000E-01  1.50000000E+00  8.00000000E-01
  8.00000000E-01  1.50000000E+00  8.00000000E-01  8.00000000E-01  1.50000000E+00
  8.00000000E-01  8.00000000E-01  1.50000000E+00  8.00000000E-01  8.00000000E-01
  1.50000000E+00  8.00000000E-01  8.00000000E-01  1.50000000E+00  8.00000000E-01
  8.00000000E-01  1.50000000E+00  8.00000000E-01  8.00000000E-01  1.50000000E+00
  8.00000000E-01  8.00000000E-01  1.50000000E+00  8.00000000E-01  8.00000000E-01
  1.50000000E+00  8.00000000E-01  8.00000000E-01  1.50000000E+00  8.00000000E-01
  8.00000000E-01  1.50000000E+00  8.00000000E-01  8.00000000E-01  1.50000000E+00
  8.00000000E-01  8.00000000E-01  1.50000000E+00  8.00000000E-01  8.00000000E-01
  1.50000000E+00  8.00000000E-01  8.00000000E-01  1.50000000E+00  8.00000000E-01
  8.00000000E-01  1.50000000E+00  8.00000000E-01  8.00000000E-01  1.50000000E+00
  8.00000000E-01  8.00000000E-01  1.50000000E+00  8.00000000E-01  8.00000000E-01
  1.50000000E+00  8.00000000E-01  8.00000000E-01  1.50000000E+00  8.00000000E-01
  8.00000000E-01  1.50000000E+00  8.00000000E-01  8.00000000E-01  1.50000000E+00
  8.00000000E-01  8.00000000E-01  1.50000000E+00  8.00000000E-01  8.00000000E-01
  1.50000000E+00  8.00000000E-01  8.00000000E-01  1.50000000E+00  8.00000000E-01
  8.00000000E-01  1.50000000E+00  8.00000000E-01  8.00000000E-01  1.50000000E+00
  8.00000000E-01  8.00000000E-01  1.50000000E+00  8.00000000E-01  8.00000000E-01
  1.50000000E+00  8.00000000E-01  8.00000000E-01  1.50000000E+00  8.00000000E-01
  8.00000000E-01  1.50000000E+00  8.00000000E-01  8.00000000E-01  1.50000000E+00
  8.00000000E-01  8.00000000E-01  1.50000000E+00  8.00000000E-01  8.00000000E-01
  1.50000000E+00  8.00000000E-01  8.00000000E-01  1.50000000E+00  8.00000000E-01
  8.00000000E-01  1.50000000E+00  8.00000000E-01  8.00000000E-01  1.50000000E+00
  8.00000000E-01  8.00000000E-01  1.50000000E+00  8.00000000E-01  8.00000000E-01
  1.50000000E+00  8.00000000E-01  8.00000000E-01  1.50000000E+00  8.00000000E-01
  8.00000000E-01  1.50000000E+00  8.00000000E-01  8.00000000E-01  1.50000000E+00
  8.00000000E-01  8.00000000E-01  1.50000000E+00  8.00000000E-01  8.00000000E-01
  1.50000000E+00  8.00000000E-01  8.00000000E-01  1.50000000E+00  8.00000000E-01
  8.00000000E-01  1.50000000E+00  8.00000000E-01  8.00000000E-01  1.50000000E+00
  8.00000000E-01  8.00000000E-01  1.50000000E+00  8.00000000E-01  8.00000000E-01
  1.50000000E+00  8.00000000E-01  8.00000000E-01  1.50000000E+00  8.00000000E-01
  8.00000000E-01  1.50000000E+00  8.00000000E-01  8.00000000E-01  1.50000000E+00
  8.00000000E-01  8.00000000E-01  1.50000000E+00  8.00000000E-01  8.00000000E-01
  1.50000000E+00  8.00000000E-01  8.00000000E-01  1.50000000E+00  8.00000000E-01
  8.00000000E-01  1.50000000E+00  8.00000000E-01  8.00000000E-01  1.50000000E+00
  8.00000000E-01  8.00000000E-01  1.50000000E+00  8.00000000E-01  8.00000000E-01
  1.50000000E+00  8.00000000E-01  8.00000000E-01  1.50000000E+00  8.00000000E-01
  8.00000000E-01  1.50000000E+00  8.00000000E-01  8.00000000E-01  1.50000000E+00
  8.00000000E-01  8.00000000E-01  1.50000000E+00  8.00000000E-01  8.00000000E-01
  1.50000000E+00  8.00000000E-01  8.00000000E-01  1.50000000E+00  8.00000000E-01
  8.00000000E-01  1.50000000E+00  8.00000000E-01  8.00000000E-01  1.50000000E+00
  8.00000000E-01  8.00000000E-01  1.50000000E+00  8.00000000E-01  8.00000000E-01
  1.50000000E+00  8.00000000E-01  8.00000000E-01  1.50000000E+00  8.00000000E-01
  8.00000000E-01  1.50000000E+00  8.00000000E-01  8.00000000E-01  1.50000000E+00
  8.00000000E-01  8.00000000E-01  1.50000000E+00  8.00000000E-01  8.00000000E-01
  1.50000000E+00  8.00000000E-01  8.00000000E-01  1.50000000E+00  8.00000000E-01
  8.00000000E-01  1.50000000E+00  8.00000000E-01  8.00000000E-01  1.50000000E+00
  8.00000000E-01  8.00000000E-01  1.50000000E+00  8.00000000E-01  8.00000000E-01
  1.50000000E+00  8.00000000E-01  8.00000000E-01  1.50000000E+00  8.00000000E-01
  8.00000000E-01  1.50000000E+00  8.00000000E-01  8.00000000E-01  1.50000000E+00
  8.00000000E-01  8.00000000E-01  1.50000000E+00  8.00000000E-01  8.00000000E-01
  1.50000000E+00  8.00000000E-01  8.00000000E-01  1.50000000E+00  8.00000000E-01
  8.00000000E-01  1.50000000E+00  8.00000000E-01  8.00000000E-01  1.50000000E+00
  8.00000000E-01  8.00000000E-01  1.50000000E+00  8.00000000E-01  8.00000000E-01
  1.50000000E+00  8.00000000E-01  8.00000000E-01  1.50000000E+00  8.00000000E-01
  8.00000000E-01  1.50000000E+00  8.00000000E-01  8.00000000E-01  1.50000000E+00
  8.00000000E-01  8.00000000E-01  1.50000000E+00  8.00000000E-01  8.00000000E-01
  1.50000000E+00  8.00000000E-01  8.00000000E-01  1.50000000E+00  8.00000000E-01
  8.00000000E-01  1.50000000E+00  8.00000000E-01  8.00000000E-01  1.50000000E+00
  8.00000000E-01  8.00000000E-01  1.50000000E+00  8.00000000E-01  8.00000000E-01
  1.50000000E+00  8.00000000E-01  8.00000000E-01  1.50000000E+00  8.00000000E-01
  8.00000000E-01  1.50000000E+00  8.00000000E-01  8.00000000E-01  1.50000000E+00
  8.00000000E-01  8.00000000E-01  1.50000000E+00  8.00000000E-01  8.00000000E-01
  1.50000000E+00  8.00000000E-01  8.00000000E-01  1.50000000E+00  8.00000000E-01
  8.00000000E-01  1.50000000E+00  8.00000000E-01  8.00000000E-01  1.50000000E+00
  8.00000000E-01  8.00000000E-01  1.50000000E+00  8.00000000E-01  8.00000000E-01
  1.50000000E+00  8.00000000E-01  8.00000000E-01  1.50000000E+00  8.00000000E-01
  8.00000000E-01  1.50000000E+00  8.00000000E-01  8.00000000E-01  1.50000000E+00
  8.00000000E-01  8.00000000E-01  1.50000000E+00  8.00000000E-01  8.00000000E-01
  1.50000000E+00  8.00000000E-01  8.00000000E-01  1.50000000E+00  8.00000000E-01
  8.00000000E-01  1.50000000E+00  8.00000000E-01  8.00000000E-01  1.50000000E+00
  8.00000000E-01  8.00000000E-01  1.50000000E+00  8.00000000E-01  8.00000000E-01
  1.50000000E+00  8.00000000E-01  8.00000000E-01  1.50000000E+00  8.00000000E-01
  8.00000000E-01  1.50000000E+00  8.00000000E-01  8.00000000E-01  1.50000000E+00
  8.00000000E-01  8.00000000E-01  1.50000000E+00  8.00000000E-01  8.00000000E-01
  1.50000000E+00  8.00000000E-01  8.00000000E-01  1.50000000E+00  8.00000000E-01
  8.00000000E-01  1.50000000E+00  8.00000000E-01  8.00000000E-01  1.50000000E+00
  8.00000000E-01  8.00000000E-01  1.50000000E+00  8.00000000E-01  8.00000000E-01
  1.50000000E+00  8.00000000E-01  8.00000000E-01  1.50000000E+00  8.00000000E-01
  8.00000000E-01  1.50000000E+00  8.00000000E-01  8.00000000E-01  1.50000000E+00
  8.00000000E-01  8.00000000E-01  1.50000000E+00  8.00000000E-01  8.00000000E-01
  1.50000000E+00  8.00000000E-01  8.00000000E-01  1.50000000E+00  8.00000000E-01
  8.00000000E-01  1.50000000E+00  8.00000000E-01  8.00000000E-01  1.50000000E+00
  8.00000000E-01  8.00000000E-01  1.50000000E+00  8.00000000E-01  8.00000000E-01
  1.50000000E+00  8.00000000E-01  8.00000000E-01  1.50000000E+00  8.00000000E-01
  8.00000000E-01  1.50000000E+00  8.00000000E-01  8.00000000E-01  1.50000000E+00
  8.00000000E-01  8.00000000E-01  1.50000000E+00  8.00000000E-01  8.00000000E-01
  1.50000000E+00  8.00000000E-01  8.00000000E-01  1.50000000E+00  8.00000000E-01
  8.00000000E-01  1.50000000E+00  8.00000000E-01  8.00000000E-01  1.50000000E+00
  8.00000000E-01  8.00000000E-01  1.50000000E+00  8.00000000E-01  8.00000000E-01
  1.50000000E+00  8.00000000E-01  8.00000000E-01  1.50000000E+00  8.00000000E-01
  8.00000000E-01  1.50000000E+00  8.00000000E-01  8.00000000E-01  1.50000000E+00
  8.00000000E-01  8.00000000E-01  1.50000000E+00  8.00000000E-01  8.00000000E-01
  1.50000000E+00  8.00000000E-01  8.00000000E-01  1.50000000E+00  8.00000000E-01
  8.00000000E-01  1.50000000E+00  8.00000000E-01  8.00000000E-01  1.50000000E+00
  8.00000000E-01  8.00000000E-01  1.50000000E+00  8.00000000E-01  8.00000000E-01
  1.50000000E+00  8.00000000E-01  8.00000000E-01  1.50000000E+00  8.00000000E-01
  8.00000000E-01  1.50000000E+00  8.00000000E-01  8.00000000E-01  1.50000000E+00
  8.00000000E-01  8.00000000E-01  1.50000000E+00  8.00000000E-01  8.00000000E-01
  1.50000000E+00  8.00000000E-01  8.00000000E-01  1.50000000E+00  8.00000000E-01
  8.00000000E-01  1.50000000E+00  8.00000000E-01  8.00000000E-01  1.50000000E+00
  8.00000000E-01  8.00000000E-01  1.50000000E+00  8.00000000E-01  8.00000000E-01
  1.50000000E+00  8.00000000E-01  8.00000000E-01  1.50000000E+00  8.00000000E-01
  8.00000000E-01  1.50000000E+00  8.00000000E-01  8.00000000E-01  1.50000000E+00
  8.00000000E-01  8.00000000E-01  1.50000000E+00  8.00000000E-01  8.00000000E-01
  1.50000000E+00  8.00000000E-01  8.00000000E-01  1.50000000E+00  8.00000000E-01
  8.00000000E-01  1.50000000E+00  8.00000000E-01  8.00000000E-01  1.50000000E+00
  8.00000000E-01  8.00000000E-01  1.50000000E+00  8.00000000E-01  8.00000000E-01
  1.50000000E+00  8.00000000E-01  8.00000000E-01  1.50000000E+00  8.00000000E-01
  8.00000000E-01  1.50000000E+00  8.00000000E-01  8.00000000E-01  1.50000000E+00
  8.00000000E-01  8.00000000E-01  1.50000000E+00  8.00000000E-01  8.00000000E-01
  1.50000000E+00  8.00000000E-01  8.00000000E-01  1.50000000E+00  8.00000000E-01
  8.00000000E-01  1.50000000E+00  8.00000000E-01  8.00000000E-01  1.50000000E+00
  8.00000000E-01  8.00000000E-01  1.50000000E+00  8.00000000E-01  8.00000000E-01
  1.50000000E+00  8.00000000E-01  8.00000000E-01  1.50000000E+00  8.00000000E-01
  8.00000000E-01  1.50000000E+00  8.00000000E-01  8.00000000E-01  1.50000000E+00
  8.00000000E-01  8.00000000E-01  1.50000000E+00  8.00000000E-01  8.00000000E-01
  1.50000000E+00  8.00000000E-01  8.00000000E-01  1.50000000E+00  8.00000000E-01
  8.00000000E-01  1.50000000E+00  8.00000000E-01  8.00000000E-01  1.50000000E+00
  8.00000000E-01  8.00000000E-01  1.50000000E+00  8.00000000E-01  8.00000000E-01
  1.50000000E+00  8.00000000E-01  8.00000000E-01  1.50000000E+00  8.00000000E-01
  8.00000000E-01  1.50000000E+00  8.00000000E-01  8.00000000E-01  1.50000000E+00
  8.00000000E-01  8.00000000E-01  1.50000000E+00  8.00000000E-01  8.00000000E-01
  1.50000000E+00  8.00000000E-01  8.00000000E-01  1.50000000E+00  8.00000000E-01
  8.00000000E-01  1.50000000E+00  8.00000000E-01  8.00000000E-01  1.50000000E+00
  8.00000000E-01  8.00000000E-01  1.50000000E+00  8.00000000E-01  8.00000000E-01
  1.50000000E+00  8.00000000E-01  8.00000000E-01  1.50000000E+00  8.00000000E-01
  8.00000000E-01  1.50000000E+00  8.00000000E-01  8.00000000E-01  1.50000000E+00
  8.00000000E-01  8.00000000E-01  1.50000000E+00  8.00000000E-01  8.00000000E-01
  1.50000000E+00  8.00000000E-01  8.00000000E-01  1.50000000E+00  8.00000000E-01
  8.00000000E-01  1.50000000E+00  8.00000000E-01  8.00000000E-01  1.50000000E+00
  8.00000000E-01  8.00000000E-01  1.50000000E+00  8.00000000E-01  8.00000000E-01
  1.50000000E+00  8.00000000E-01  8.00000000E-01  1.50000000E+00  8.00000000E-01
  8.00000000E-01  1.50000000E+00  8.00000000E-01  8.00000000E-01  1.50000000E+00
  8.00000000E-01  8.00000000E-01  1.50000000E+00  8.00000000E-01  8.00000000E-01
  1.50000000E+00  8.00000000E-01  8.00000000E-01  1.50000000E+00  8.00000000E-01
  8.00000000E-01  1.50000000E+00  8.00000000E-01  8.00000000E-01  1.50000000E+00
  8.00000000E-01  8.00000000E-01  1.50000000E+00  8.00000000E-01  8.00000000E-01
  1.50000000E+00  8.00000000E-01  8.00000000E-01  1.50000000E+00  8.00000000E-01
  8.00000000E-01  1.50000000E+00  8.00000000E-01  8.00000000E-01  1.50000000E+00
  8.00000000E-01  8.00000000E-01  1.50000000E+00  8.00000000E-01  8.00000000E-01
  1.50000000E+00  8.00000000E-01  8.00000000E-01  1.50000000E+00  8.00000000E-01
  8.00000000E-01  1.50000000E+00  8.00000000E-01  8.00000000E-01  1.50000000E+00
  8.00000000E-01  8.00000000E-01  1.50000000E+00  8.00000000E-01  8.00000000E-01
  1.50000000E+00  8.00000000E-01  8.00000000E-01  1.50000000E+00  8.00000000E-01
  8.00000000E-01  1.50000000E+00  8.00000000E-01  8.00000000E-01  1.50000000E+00
  8.00000000E-01  8.00000000E-01  1.50000000E+00  8.00000000E-01  8.00000000E-01
  1.50000000E+00  8.00000000E-01  8.00000000E-01  1.50000000E+00  8.00000000E-01
  8.00000000E-01  1.50000000E+00  8.00000000E-01  8.00000000E-01  1.50000000E+00
  8.00000000E-01  8.00000000E-01  1.50000000E+00  8.00000000E-01  8.00000000E-01
  1.50000000E+00  8.00000000E-01  8.00000000E-01  1.50000000E+00  8.00000000E-01
  8.00000000E-01  1.50000000E+00  8.00000000E-01  8.00000000E-01  1.50000000E+00
  8.00000000E-01  8.00000000E-01  1.50000000E+00  8.00000000E-01  8.00000000E-01
  1.50000000E+00  8.00000000E-01  8.00000000E-01  1.50000000E+00  8.00000000E-01
  8.00000000E-01  1.50000000E+00  8.00000000E-01  8.00000000E-01  1.50000000E+00
  8.00000000E-01  8.00000000E-01  1.50000000E+00  8.00000000E-01  8.00000000E-01
  1.50000000E+00  8.00000000E-01  8.00000000E-01  1.50000000E+00  8.00000000E-01
  8.00000000E-01  1.50000000E+00  8.00000000E-01  8.00000000E-01  1.50000000E+00
  8.00000000E-01  8.00000000E-01  1.50000000E+00  8.00000000E-01  8.00000000E-01
  1.50000000E+00  8.00000000E-01  8.00000000E-01  1.50000000E+00  8.00000000E-01
  8.00000000E-01  1.50000000E+00  8.00000000E-01  8.00000000E-01  1.50000000E+00
  8.00000000E-01  8.00000000E-01  1.50000000E+00  8.00000000E-01  8.00000000E-01
  1.50000000E+00  8.00000000E-01  8.00000000E-01  1.50000000E+00  8.00000000E-01
  8.00000000E-01  1.50000000E+00  8.00000000E-01  8.00000000E-01  1.50000000E+00
  8.00000000E-01  8.00000000E-01  1.50000000E+00  8.00000000E-01  8.00000000E-01
  1.50000000E+00  8.00000000E-01  8.00000000E-01  1.50000000E+00  8.00000000E-01
  8.00000000E-01  1.50000000E+00  8.00000000E-01  8.00000000E-01  1.50000000E+00
  8.00000000E-01  8.00000000E-01  1.50000000E+00  8.00000000E-01  8.00000000E-01
  1.50000000E+00  8.00000000E-01  8.00000000E-01  1.50000000E+00  8.00000000E-01
  8.00000000E-01  1.50000000E+00  8.00000000E-01  8.00000000E-01  1.50000000E+00
  8.00000000E-01  8.00000000E-01  1.50000000E+00  8.00000000E-01  8.00000000E-01
  1.50000000E+00  8.00000000E-01  8.00000000E-01  1.50000000E+00  8.00000000E-01
  8.00000000E-01  1.50000000E+00  8.00000000E-01  8.00000000E-01  1.50000000E+00
  8.00000000E-01  8.00000000E-01  1.50000000E+00  8.00000000E-01  8.00000000E-01
  1.50000000E+00  8.00000000E-01  8.00000000E-01  1.50000000E+00  8.00000000E-01
  8.00000000E-01  1.50000000E+00  8.00000000E-01  8.00000000E-01  1.50000000E+00
  8.00000000E-01  8.00000000E-01  1.50000000E+00  8.00000000E-01  8.00000000E-01
  1.50000000E+00  8.00000000E-01  8.00000000E-01  1.50000000E+00  8.00000000E-01
  8.00000000E-01  1.50000000E+00  8.00000000E-01  8.00000000E-01  1.50000000E+00
  8.00000000E-01  8.00000000E-01  1.50000000E+00  8.00000000E-01  8.00000000E-01
  1.50000000E+00  8.00000000E-01  8.00000000E-01  1.50000000E+00  8.00000000E-01
  8.00000000E-01  1.50000000E+00  8.00000000E-01  8.00000000E-01  1.50000000E+00
  8.00000000E-01  8.00000000E-01  1.50000000E+00  8.00000000E-01  8.00000000E-01
  1.50000000E+00  8.00000000E-01  8.00000000E-01  1.50000000E+00  8.00000000E-01
  8.00000000E-01  1.50000000E+00  8.00000000E-01  8.00000000E-01  1.50000000E+00
  8.00000000E-01  8.00000000E-01  1.50000000E+00  8.00000000E-01  8.00000000E-01
  1.50000000E+00  8.00000000E-01  8.00000000E-01  1.50000000E+00  8.00000000E-01
  8.00000000E-01  1.50000000E+00  8.00000000E-01  8.00000000E-01  1.50000000E+00
  8.00000000E-01  8.00000000E-01  1.50000000E+00  8.00000000E-01  8.00000000E-01
  1.50000000E+00  8.00000000E-01  8.00000000E-01  1.50000000E+00  8.00000000E-01
  8.00000000E-01  1.50000000E+00  8.00000000E-01  8.00000000E-01  1.50000000E+00
  8.00000000E-01  8.00000000E-01  1.50000000E+00  8.00000000E-01  8.00000000E-01
  1.50000000E+00  8.00000000E-01  8.00000000E-01  1.50000000E+00  8.00000000E-01
  8.00000000E-01  1.50000000E+00  8.00000000E-01  8.00000000E-01  1.50000000E+00
  8.00000000E-01  8.00000000E-01  1.50000000E+00  8.00000000E-01  8.00000000E-01
  1.50000000E+00  8.00000000E-01  8.00000000E-01  1.50000000E+00  8.00000000E-01
  8.00000000E-01  1.50000000E+00  8.00000000E-01  8.00000000E-01  1.50000000E+00
  8.00000000E-01  8.00000000E-01  1.50000000E+00  8.00000000E-01  8.00000000E-01
  1.50000000E+00  8.00000000E-01  8.00000000E-01  1.50000000E+00  8.00000000E-01
  8.00000000E-01  1.50000000E+00  8.00000000E-01  8.00000000E-01  1.50000000E+00
  8.00000000E-01  8.00000000E-01  1.50000000E+00  8.00000000E-01  8.00000000E-01
  1.50000000E+00  8.00000000E-01  8.00000000E-01  1.50000000E+00  8.00000000E-01
  8.00000000E-01  1.50000000E+00  8.00000000E-01  8.00000000E-01  1.50000000E+00
  8.00000000E-01  8.00000000E-01  1.50000000E+00  8.00000000E-01  8.00000000E-01
  1.50000000E+00  8.00000000E-01  8.00000000E-01  1.50000000E+00  8.00000000E-01
  8.00000000E-01  1.50000000E+00  8.00000000E-01  8.00000000E-01  1.50000000E+00
  8.00000000E-01  8.00000000E-01  1.50000000E+00  8.00000000E-01  8.00000000E-01
  1.50000000E+00  8.00000000E-01  8.00000000E-01  1.50000000E+00  8.00000000E-01
  8.00000000E-01  1.50000000E+00  8.00000000E-01  8.00000000E-01  1.50000000E+00
  8.00000000E-01  8.00000000E-01  1.50000000E+00  8.00000000E-01  8.00000000E-01
  1.50000000E+00  8.00000000E-01  8.00000000E-01  1.50000000E+00  8.00000000E-01
  8.00000000E-01  1.50000000E+00  8.00000000E-01  8.00000000E-01  1.50000000E+00
  8.00000000E-01  8.00000000E-01  1.50000000E+00  8.00000000E-01  8.00000000E-01
  1.50000000E+00  8.00000000E-01  8.00000000E-01  1.50000000E+00  8.00000000E-01
  8.00000000E-01  1.50000000E+00  8.00000000E-01  8.00000000E-01  1.50000000E+00
  8.00000000E-01  8.00000000E-01  1.50000000E+00  8.00000000E-01  8.00000000E-01
  1.50000000E+00  8.00000000E-01  8.00000000E-01  1.50000000E+00  8.00000000E-01
  8.00000000E-01  1.50000000E+00  8.00000000E-01  8.00000000E-01  1.50000000E+00
  8.00000000E-01  8.00000000E-01  1.50000000E+00  8.00000000E-01  8.00000000E-01
  1.50000000E+00  8.00000000E-01  8.00000000E-01  1.50000000E+00  8.00000000E-01
  8.00000000E-01  1.50000000E+00  8.00000000E-01  8.00000000E-01  1.50000000E+00
  8.00000000E-01  8.00000000E-01  1.50000000E+00  8.00000000E-01  8.00000000E-01
  1.50000000E+00  8.00000000E-01  8.00000000E-01  1.50000000E+00  8.00000000E-01
  8.00000000E-01  1.50000000E+00  8.00000000E-01  8.00000000E-01  1.50000000E+00
  8.00000000E-01  8.00000000E-01  1.50000000E+00  8.00000000E-01  8.00000000E-01
  1.50000000E+00  8.00000000E-01  8.00000000E-01  1.50000000E+00  8.00000000E-01
  8.00000000E-01  1.50000000E+00  8.00000000E-01  8.00000000E-01  1.50000000E+00
  8.00000000E-01  8.00000000E-01  1.50000000E+00  8.00000000E-01  8.00000000E-01
  1.50000000E+00  8.00000000E-01  8.00000000E-01  1.50000000E+00  8.00000000E-01
  8.00000000E-01  1.50000000E+00  8.00000000E-01  8.00000000E-01  1.50000000E+00
  8.00000000E-01  8.00000000E-01  1.50000000E+00  8.00000000E-01  8.00000000E-01
  1.50000000E+00  8.00000000E-01  8.00000000E-01  1.50000000E+00  8.00000000E-01
  8.00000000E-01  1.50000000E+00  8.00000000E-01  8.00000000E-01  1.50000000E+00
  8.00000000E-01  8.00000000E-01  1.50000000E+00  8.00000000E-01  8.00000000E-01
  1.50000000E+00  8.00000000E-01  8.00000000E-01  1.50000000E+00  8.00000000E-01
  8.00000000E-01  1.50000000E+00  8.00000000E-01  8.00000000E-01  1.50000000E+00
  8.00000000E-01  8.00000000E-01  1.50000000E+00  8.00000000E-01  8.00000000E-01
  1.50000000E+00  8.00000000E-01  8.00000000E-01  1.50000000E+00  8.00000000E-01
  8.00000000E-01  1.50000000E+00  8.00000000E-01  8.00000000E-01  1.50000000E+00
  8.00000000E-01  8.00000000E-01  1.50000000E+00  8.00000000E-01  8.00000000E-01
  1.50000000E+00  8.00000000E-01  8.00000000E-01  1.50000000E+00  8.00000000E-01
  8.00000000E-01  1.50000000E+00  8.00000000E-01  8.00000000E-01  1.50000000E+00
  8.00000000E-01  8.00000000E-01  1.50000000E+00  8.00000000E-01  8.00000000E-01
  1.50000000E+00  8.00000000E-01  8.00000000E-01  1.50000000E+00  8.00000000E-01
  8.00000000E-01  1.50000000E+00  8.00000000E-01  8.00000000E-01  1.50000000E+00
  8.00000000E-01  8.00000000E-01  1.50000000E+00  8.00000000E-01  8.00000000E-01
  1.50000000E+00  8.00000000E-01  8.00000000E-01  1.50000000E+00  8.00000000E-01
  8.00000000E-01  1.50000000E+00  8.00000000E-01  8.00000000E-01  1.50000000E+00
  8.00000000E-01  8.00000000E-01  1.50000000E+00  8.00000000E-01  8.00000000E-01
  1.50000000E+00  8.00000000E-01  8.00000000E-01  1.50000000E+00  8.00000000E-01
  8.00000000E-01  1.50000000E+00  8.00000000E-01  8.00000000E-01  1.50000000E+00
  8.00000000E-01  8.00000000E-01  1.50000000E+00  8.00000000E-01  8.00000000E-01
  1.50000000E+00  8.00000000E-01  8.00000000E-01  1.50000000E+00  8.00000000E-01
  8.00000000E-01  1.50000000E+00  8.00000000E-01  8.00000000E-01  1.50000000E+00
  8.00000000E-01  8.00000000E-01  1.50000000E+00  8.00000000E-01  8.00000000E-01
  1.50000000E+00  8.00000000E-01  8.00000000E-01  1.50000000E+00  8.00000000E-01
  8.00000000E-01  1.50000000E+00  8.00000000E-01  8.00000000E-01  1.50000000E+00
  8.00000000E-01  8.00000000E-01  1.50000000E+00  8.00000000E-01  8.00000000E-01
  1.50000000E+00  8.00000000E-01  8.00000000E-01  1.50000000E+00  8.00000000E-01
  8.00000000E-01  1.50000000E+00  8.00000000E-01  8.00000000E-01  1.50000000E+00
  8.00000000E-01  8.00000000E-01  1.50000000E+00  8.00000000E-01  8.00000000E-01
  1.50000000E+00  8.00000000E-01  8.00000000E-01  1.50000000E+00  8.00000000E-01
  8.00000000E-01  1.50000000E+00  8.00000000E-01  8.00000000E-01  1.50000000E+00
  8.00000000E-01  8.00000000E-01  1.50000000E+00  8.00000000E-01  8.00000000E-01
  1.50000000E+00  8.00000000E-01  8.00000000E-01  1.50000000E+00  8.00000000E-01
  8.00000000E-01  1.50000000E+00  8.00000000E-01  8.00000000E-01  1.50000000E+00
  8.00000000E-01  8.00000000E-01  1.50000000E+00  8.00000000E-01  8.00000000E-01
  1.50000000E+00  8.00000000E-01  8.00000000E-01  1.50000000E+00  8.00000000E-01
  8.00000000E-01  1.50000000E+00  8.00000000E-01  8.00000000E-01  1.50000000E+00
  8.00000000E-01  8.00000000E-01  1.50000000E+00  8.00000000E-01  8.00000000E-01
  1.50000000E+00  8.00000000E-01  8.00000000E-01  1.50000000E+00  8.00000000E-01
  8.00000000E-01  1.50000000E+00  8.00000000E-01  8.00000000E-01  1.50000000E+00
  8.00000000E-01  8.00000000E-01  1.50000000E+00  8.00000000E-01  8.00000000E-01
  1.50000000E+00  8.00000000E-01  8.00000000E-01  1.50000000E+00  8.00000000E-01
  8.00000000E-01  1.50000000E+00  8.00000000E-01  8.00000000E-01  1.50000000E+00
  8.00000000E-01  8.00000000E-01  1.50000000E+00  8.00000000E-01  8.00000000E-01
  1.50000000E+00  8.00000000E-01  8.00000000E-01  1.50000000E+00  8.00000000E-01
  8.00000000E-01  1.50000000E+00  8.00000000E-01  8.00000000E-01  1.50000000E+00
  8.00000000E-01  8.00000000E-01  1.50000000E+00  8.00000000E-01  8.00000000E-01
  1.50000000E+00  8.00000000E-01  8.00000000E-01  1.50000000E+00  8.00000000E-01
  8.00000000E-01  1.50000000E+00  8.00000000E-01  8.00000000E-01  1.50000000E+00
  8.00000000E-01  8.00000000E-01  1.50000000E+00  8.00000000E-01  8.00000000E-01
  1.50000000E+00  8.00000000E-01  8.00000000E-01  1.50000000E+00  8.00000000E-01
  8.00000000E-01  1.50000000E+00  8.00000000E-01  8.00000000E-01  1.50000000E+00
  8.00000000E-01  8.00000000E-01  1.50000000E+00  8.00000000E-01  8.00000000E-01
  1.50000000E+00  8.00000000E-01  8.00000000E-01  1.50000000E+00  8.00000000E-01
  8.00000000E-01  1.50000000E+00  8.00000000E-01  8.00000000E-01  1.50000000E+00
  8.00000000E-01  8.00000000E-01  1.50000000E+00  8.00000000E-01  8.00000000E-01
  1.50000000E+00  8.00000000E-01  8.00000000E-01  1.50000000E+00  8.00000000E-01
  8.00000000E-01  1.50000000E+00  8.00000000E-01  8.00000000E-01  1.50000000E+00
  8.00000000E-01  8.00000000E-01  1.50000000E+00  8.00000000E-01  8.00000000E-01
  1.50000000E+00  8.00000000E-01  8.00000000E-01  1.50000000E+00  8.00000000E-01
  8.00000000E-01  1.50000000E+00  8.00000000E-01  8.00000000E-01  1.50000000E+00
  8.00000000E-01  8.00000000E-01  1.50000000E+00  8.00000000E-01  8.00000000E-01
  1.50000000E+00  8.00000000E-01  8.00000000E-01  1.50000000E+00  8.00000000E-01
  8.00000000E-01  1.50000000E+00  8.00000000E-01  8.00000000E-01  1.50000000E+00
  8.00000000E-01  8.00000000E-01  1.50000000E+00  8.00000000E-01  8.00000000E-01
  1.50000000E+00  8.00000000E-01  8.00000000E-01  1.50000000E+00  8.00000000E-01
  8.00000000E-01  1.50000000E+00  8.00000000E-01  8.00000000E-01  1.50000000E+00
  8.00000000E-01  8.00000000E-01  1.50000000E+00  8.00000000E-01  8.00000000E-01
  1.50000000E+00  8.00000000E-01  8.00000000E-01  1.50000000E+00  8.00000000E-01
  8.00000000E-01  1.50000000E+00  8.00000000E-01  8.00000000E-01  1.50000000E+00
  8.00000000E-01  8.00000000E-01  1.50000000E+00  8.00000000E-01  8.00000000E-01
  1.50000000E+00  8.00000000E-01  8.00000000E-01  1.50000000E+00  8.00000000E-01
  8.00000000E-01  1.50000000E+00  8.00000000E-01  8.00000000E-01  1.50000000E+00
  8.00000000E-01  8.00000000E-01  1.50000000E+00  8.00000000E-01  8.00000000E-01
  1.50000000E+00  8.00000000E-01  8.00000000E-01  1.50000000E+00  8.00000000E-01
  8.00000000E-01  1.50000000E+00  8.00000000E-01  8.00000000E-01  1.50000000E+00
  8.00000000E-01  8.00000000E-01  1.50000000E+00  8.00000000E-01  8.00000000E-01
  1.50000000E+00  8.00000000E-01  8.00000000E-01  1.50000000E+00  8.00000000E-01
  8.00000000E-01  1.50000000E+00  8.00000000E-01  8.00000000E-01  1.50000000E+00
  8.00000000E-01  8.00000000E-01  1.50000000E+00  8.00000000E-01  8.00000000E-01
  1.50000000E+00  8.00000000E-01  8.00000000E-01  1.50000000E+00  8.00000000E-01
  8.00000000E-01  1.50000000E+00  8.00000000E-01  8.00000000E-01  1.50000000E+00
  8.00000000E-01  8.00000000E-01  1.50000000E+00  8.00000000E-01  8.00000000E-01
  1.50000000E+00  8.00000000E-01  8.00000000E-01  1.50000000E+00  8.00000000E-01
  8.00000000E-01  1.50000000E+00  8.00000000E-01  8.00000000E-01  1.50000000E+00
  8.00000000E-01  8.00000000E-01  1.50000000E+00  8.00000000E-01  8.00000000E-01
  1.50000000E+00  8.00000000E-01  8.00000000E-01  1.50000000E+00  8.00000000E-01
  8.00000000E-01  1.50000000E+00  8.00000000E-01  8.00000000E-01  1.50000000E+00
  8.00000000E-01  8.00000000E-01  1.50000000E+00  8.00000000E-01  8.00000000E-01
  1.50000000E+00  8.00000000E-01  8.00000000E-01  1.50000000E+00  8.00000000E-01
  8.00000000E-01  1.50000000E+00  8.00000000E-01  8.00000000E-01  1.50000000E+00
  8.00000000E-01  8.00000000E-01  1.50000000E+00  8.00000000E-01  8.00000000E-01
  1.50000000E+00  8.00000000E-01  8.00000000E-01  1.50000000E+00  8.00000000E-01
  8.00000000E-01  1.50000000E+00  8.00000000E-01  8.00000000E-01  1.50000000E+00
  8.00000000E-01  8.00000000E-01  1.50000000E+00  8.00000000E-01  8.00000000E-01
  1.50000000E+00  8.00000000E-01  8.00000000E-01  1.50000000E+00  8.00000000E-01
  8.00000000E-01  1.50000000E+00  8.00000000E-01  8.00000000E-01  1.50000000E+00
  8.00000000E-01  8.00000000E-01  1.50000000E+00  8.00000000E-01  8.00000000E-01
  1.50000000E+00  8.00000000E-01  8.00000000E-01  1.50000000E+00  8.00000000E-01
  8.00000000E-01  1.50000000E+00  8.00000000E-01  8.00000000E-01  1.50000000E+00
  8.00000000E-01  8.00000000E-01  1.50000000E+00  8.00000000E-01  8.00000000E-01
  1.50000000E+00  8.00000000E-01  8.00000000E-01  1.50000000E+00  8.00000000E-01
  8.00000000E-01  1.50000000E+00  8.00000000E-01  8.00000000E-01  1.50000000E+00
  8.00000000E-01  8.00000000E-01  1.50000000E+00  8.00000000E-01  8.00000000E-01
  1.50000000E+00  8.00000000E-01  8.00000000E-01  1.50000000E+00  8.00000000E-01
  8.00000000E-01  1.50000000E+00  8.00000000E-01  8.00000000E-01  1.50000000E+00
  8.00000000E-01  8.00000000E-01  1.50000000E+00  8.00000000E-01  8.00000000E-01
  1.50000000E+00  8.00000000E-01  8.00000000E-01  1.50000000E+00  8.00000000E-01
  8.00000000E-01  1.50000000E+00  8.00000000E-01  8.00000000E-01  1.50000000E+00
  8.00000000E-01  8.00000000E-01  1.50000000E+00  8.00000000E-01  8.00000000E-01
  1.50000000E+00  8.00000000E-01  8.00000000E-01  1.50000000E+00  8.00000000E-01
  8.00000000E-01  1.50000000E+00  8.00000000E-01  8.00000000E-01  1.50000000E+00
  8.00000000E-01  8.00000000E-01  1.50000000E+00  8.00000000E-01  8.00000000E-01
  1.50000000E+00  8.00000000E-01  8.00000000E-01  1.50000000E+00  8.00000000E-01
  8.00000000E-01  1.50000000E+00  8.00000000E-01  8.00000000E-01  1.50000000E+00
  8.00000000E-01  8.00000000E-01  1.50000000E+00  8.00000000E-01  8.00000000E-01
  1.50000000E+00  8.00000000E-01  8.00000000E-01  1.50000000E+00  8.00000000E-01
  8.00000000E-01  1.50000000E+00  8.00000000E-01  8.00000000E-01  1.50000000E+00
  8.00000000E-01  8.00000000E-01  1.50000000E+00  8.00000000E-01  8.00000000E-01
  1.50000000E+00  8.00000000E-01  8.00000000E-01  1.50000000E+00  8.00000000E-01
  8.00000000E-01  1.50000000E+00  8.00000000E-01  8.00000000E-01  1.50000000E+00
  8.00000000E-01  8.00000000E-01
%FLAG SCREEN                                                                    
%FORMAT(5E16.8)                                                                 
  7.90000000E-01  7.20000000E-01  8.50000000E-01  7.20000000E-01  7.90000000E-01
  8.50000000E-01  7.20000000E-01  7.90000000E-01  8.50000000E-01  7.20000000E-01
  8.50000000E-01  7.20000000E-01  8.50000000E-01  7.20000000E-01  8.50000000E-01
  7.20000000E-01  7.20000000E-01  7.20000000E-01  7.20000000E-01  7.20000000E-01
  7.20000000E-01  8.50000000E-01  8.50000000E-01  8.50000000E-01  8.50000000E-01
  8.50000000E-01  8.50000000E-01  8.50000000E-01  8.50000000E-01  8.50000000E-01
  8.50000000E-01  8.50000000E-01  8.50000000E-01  8.50000000E-01  8.50000000E-01
  8.50000000E-01  8.50000000E-01  8.50000000E-01  8.50000000E-01  8.00000000E-01
  8.00000000E-01  8.50000000E-01  8.50000000E-01  8.50000000E-01  8.50000000E-01
  8.50000000E-01  8.50000000E-01  8.50000000E-01  8.50000000E-01  8.50000000E-01
  8.50000000E-01  8.50000000E-01  8.50000000E-01  8.50000000E-01  8.50000000E-01
  8.50000000E-01  8.50000000E-01  8.50000000E-01  8.50000000E-01  8.50000000E-01
  8.50000000E-01  8.50000000E-01  8.50000000E-01  8.50000000E-01  8.50000000E-01
  8.50000000E-01  8.50000000E-01  8.50000000E-01  8.50000000E-01  8.50000000E-01
  8.50000000E-01  8.50000000E-01  8.50000000E-01  8.50000000E-01  8.50000000E-01
  8.50000000E-01  8.50000000E-01  8.50000000E-01  8.50000000E-01  8.50000000E-01
  8.50000000E-01  8.50000000E-01  8.50000000E-01  8.50000000E-01  8.50000000E-01
  8.50000000E-01  8.50000000E-01  8.50000000E-01  8.50000000E-01  8.50000000E-01
  8.50000000E-01  8.50000000E-01  8.50000000E-01  8.50000000E-01  8.50000000E-01
  8.50000000E-01  8.50000000E-01  8.50000000E-01  8.50000000E-01  8.50000000E-01
  8.50000000E-01  8.50000000E-01  8.50000000E-01  8.50000000E-01  8.50000000E-01
  8.50000000E-01  8.50000000E-01  8.50000000E-01  8.50000000E-01  8.50000000E-01
  8.50000000E-01  8.50000000E-01  8.50000000E-01  8.50000000E-01  8.50000000E-01
  8.50000000E-01  8.50000000E-01  8.50000000E-01  8.50000000E-01  8.50000000E-01
  8.50000000E-01  8.50000000E-01  8.50000000E-01  8.50000000E-01  8.50000000E-01
  8.50000000E-01  8.50000000E-01  8.50000000E-01  8.50000000E-01  8.50000000E-01
  8.50000000E-01  8.50000000E-01  8.50000000E-01  8.50000000E-01  8.50000000E-01
  8.50000000E-01  8.50000000E-01  8.50000000E-01  8.50000000E-01  8.50000000E-01
  8.50000000E-01  8.50000000E-01  8.50000000E-01  8.50000000E-01  8.50000000E-01
  8.50000000E-01  8.50000000E-01  8.50000000E-01  8.50000000E-01  8.50000000E-01
  8.50000000E-01  8.50000000E-01  8.50000000E-01  8.50000000E-01  8.50000000E-01
  8.50000000E-01  8.50000000E-01  8.50000000E-01  8.50000000E-01  8.50000000E-01
  8.50000000E-01  8.50000000E-01  8.50000000E-01  8.50000000E-01  8.50000000E-01
  8.50000000E-01  8.50000000E-01  8.50000000E-01  8.50000000E-01  8.50000000E-01
  8.50000000E-01  8.50000000E-01  8.50000000E-01  8.50000000E-01  8.50000000E-01
  8.50000000E-01  8.50000000E-01  8.50000000E-01  8.50000000E-01  8.50000000E-01
  8.50000000E-01  8.50000000E-01  8.50000000E-01  8.50000000E-01  8.50000000E-01
  8.50000000E-01  8.50000000E-01  8.50000000E-01  8.50000000E-01  8.50000000E-01
  8.50000000E-01  8.50000000E-01  8.50000000E-01  8.50000000E-01  8.50000000E-01
  8.50000000E-01  8.50000000E-01  8.50000000E-01  8.50000000E-01  8.50000000E-01
  8.50000000E-01  8.50000000E-01  8.50000000E-01  8.50000000E-01  8.50000000E-01
  8.50000000E-01  8.50000000E-01  8.50000000E-01  8.50000000E-01  8.50000000E-01
  8.50000000E-01  8.50000000E-01  8.50000000E-01  8.50000000E-01  8.50000000E-01
  8.50000000E-01  8.50000000E-01  8.50000000E-01  8.50000000E-01  8.50000000E-01
  8.50000000E-01  8.50000000E-01  8.50000000E-01  8.50000000E-01  8.50000000E-01
  8.50000000E-01  8.50000000E-01  8.50000000E-01  8.50000000E-01  8.50000000E-01
  8.50000000E-01  8.50000000E-01  8.50000000E-01  8.50000000E-01  8.50000000E-01
  8.50000000E-01  8.50000000E-01  8.50000000E-01  8.50000000E-01  8.50000000E-01
  8.50000000E-01  8.50000000E-01  8.50000000E-01  8.50000000E-01  8.50000000E-01
  8.50000000E-01  8.50000000E-01  8.50000000E-01  8.50000000E-01  8.50000000E-01
  8.50000000E-01  8.50000000E-01  8.50000000E-01  8.50000000E-01  8.50000000E-01
  8.50000000E-01  8.50000000E-01  8.50000000E-01  8.50000000E-01  8.50000000E-01
  8.50000000E-01  8.50000000E-01  8.50000000E-01  8.50000000E-01  8.50000000E-01
  8.50000000E-01  8.50000000E-01  8.50000000E-01  8.50000000E-01  8.50000000E-01
  8.50000000E-01  8.50000000E-01  8.50000000E-01  8.50000000E-01  8.50000000E-01
  8.50000000E-01  8.50000000E-01  8.50000000E-01  8.50000000E-01  8.50000000E-01
  8.50000000E-01  8.50000000E-01  8.50000000E-01  8.50000000E-01  8.50000000E-01
  8.50000000E-01  8.50000000E-01  8.50000000E-01  8.50000000E-01  8.50000000E-01
  8.50000000E-01  8.50000000E-01  8.50000000E-01  8.50000000E-01  8.50000000E-01
  8.50000000E-01  8.50000000E-01  8.50000000E-01  8.50000000E-01  8.50000000E-01
  8.50000000E-01  8.50000000E-01  8.50000000E-01  8.50000000E-01  8.50000000E-01
  8.50000000E-01  8.50000000E-01  8.50000000E-01  8.50000000E-01  8.50000000E-01
  8.50000000E-01  8.50000000E-01  8.50000000E-01  8.50000000E-01  8.50000000E-01
  8.50000000E-01  8.50000000E-01  8.50000000E-01  8.50000000E-01  8.50000000E-01
  8.50000000E-01  8.50000000E-01  8.50000000E-01  8.50000000E-01  8.50000000E-01
  8.50000000E-01  8.50000000E-01  8.50000000E-01  8.50000000E-01  8.50000000E-01
  8.50000000E-01  8.50000000E-01  8.50000000E-01  8.50000000E-01  8.50000000E-01
  8.50000000E-01  8.50000000E-01  8.50000000E-01  8.50000000E-01  8.50000000E-01
  8.50000000E-01  8.50000000E-01  8.50000000E-01  8.50000000E-01  8.50000000E-01
  8.50000000E-01  8.50000000E-01  8.50000000E-01  8.50000000E-01  8.50000000E-01
  8.50000000E-01  8.50000000E-01  8.50000000E-01  8.50000000E-01  8.50000000E-01
  8.50000000E-01  8.50000000E-01  8.50000000E-01  8.50000000E-01  8.50000000E-01
  8.50000000E-01  8.50000000E-01  8.50000000E-01  8.50000000E-01  8.50000000E-01
  8.50000000E-01  8.50000000E-01  8.50000000E-01  8.50000000E-01  8.50000000E-01
  8.50000000E-01  8.50000000E-01  8.50000000E-01  8.50000000E-01  8.50000000E-01
  8.50000000E-01  8.50000000E-01  8.50000000E-01  8.50000000E-01  8.50000000E-01
  8.50000000E-01  8.50000000E-01  8.50000000E-01  8.50000000E-01  8.50000000E-01
  8.50000000E-01  8.50000000E-01  8.50000000E-01  8.50000000E-01  8.50000000E-01
  8.50000000E-01  8.50000000E-01  8.50000000E-01  8.50000000E-01  8.50000000E-01
  8.50000000E-01  8.50000000E-01  8.50000000E-01  8.50000000E-01  8.50000000E-01
  8.50000000E-01  8.50000000E-01  8.50000000E-01  8.50000000E-01  8.50000000E-01
  8.50000000E-01  8.50000000E-01  8.50000000E-01  8.50000000E-01  8.50000000E-01
  8.50000000E-01  8.50000000E-01  8.50000000E-01  8.50000000E-01  8.50000000E-01
  8.50000000E-01  8.50000000E-01  8.50000000E-01  8.50000000E-01  8.50000000E-01
  8.50000000E-01  8.50000000E-01  8.50000000E-01  8.50000000E-01  8.50000000E-01
  8.50000000E-01  8.50000000E-01  8.50000000E-01  8.50000000E-01  8.50000000E-01
  8.50000000E-01  8.50000000E-01  8.50000000E-01  8.50000000E-01  8.50000000E-01
  8.50000000E-01  8.50000000E-01  8.50000000E-01  8.50000000E-01  8.50000000E-01
  8.50000000E-01  8.50000000E-01  8.50000000E-01  8.50000000E-01  8.50000000E-01
  8.50000000E-01  8.50000000E-01  8.50000000E-01  8.50000000E-01  8.50000000E-01
  8.50000000E-01  8.50000000E-01  8.50000000E-01  8.50000000E-01  8.50000000E-01
  8.50000000E-01  8.50000000E-01  8.50000000E-01  8.50000000E-01  8.50000000E-01
  8.50000000E-01  8.50000000E-01  8.50000000E-01  8.50000000E-01  8.50000000E-01
  8.50000000E-01  8.50000000E-01  8.50000000E-01  8.50000000E-01  8.50000000E-01
  8.50000000E-01  8.50000000E-01  8.50000000E-01  8.50000000E-01  8.50000000E-01
  8.50000000E-01  8.50000000E-01  8.50000000E-01  8.50000000E-01  8.50000000E-01
  8.50000000E-01  8.50000000E-01  8.50000000E-01  8.50000000E-01  8.50000000E-01
  8.50000000E-01  8.50000000E-01  8.50000000E-01  8.50000000E-01  8.50000000E-01
  8.50000000E-01  8.50000000E-01  8.50000000E-01  8.50000000E-01  8.50000000E-01
  8.50000000E-01  8.50000000E-01  8.50000000E-01  8.50000000E-01  8.50000000E-01
  8.50000000E-01  8.50000000E-01  8.50000000E-01  8.50000000E-01  8.50000000E-01
  8.50000000E-01  8.50000000E-01  8.50000000E-01  8.50000000E-01  8.50000000E-01
  8.50000000E-01  8.50000000E-01  8.50000000E-01  8.50000000E-01  8.50000000E-01
  8.50000000E-01  8.50000000E-01  8.50000000E-01  8.50000000E-01  8.50000000E-01
  8.50000000E-01  8.50000000E-01  8.50000000E-01  8.50000000E-01  8.50000000E-01
  8.50000000E-01  8.50000000E-01  8.50000000E-01  8.50000000E-01  8.50000000E-01
  8.50000000E-01  8.50000000E-01  8.50000000E-01  8.50000000E-01  8.50000000E-01
  8.50000000E-01  8.50000000E-01  8.50000000E-01  8.50000000E-01  8.50000000E-01
  8.50000000E-01  8.50000000E-01  8.50000000E-01  8.50000000E-01  8.50000000E-01
  8.50000000E-01  8.50000000E-01  8.50000000E-01  8.50000000E-01  8.50000000E-01
  8.50000000E-01  8.50000000E-01  8.50000000E-01  8.50000000E-01  8.50000000E-01
  8.50000000E-01  8.50000000E-01  8.50000000E-01  8.50000000E-01  8.50000000E-01
  8.50000000E-01  8.50000000E-01  8.50000000E-01  8.50000000E-01  8.50000000E-01
  8.50000000E-01  8.50000000E-01  8.50000000E-01  8.50000000E-01  8.50000000E-01
  8.50000000E-01  8.50000000E-01  8.50000000E-01  8.50000000E-01  8.50000000E-01
  8.50000000E-01  8.50000000E-01  8.50000000E-01  8.50000000E-01  8.50000000E-01
  8.50000000E-01  8.50000000E-01  8.50000000E-01  8.50000000E-01  8.50000000E-01
  8.50000000E-01  8.50000000E-01  8.50000000E-01  8.50000000E-01  8.50000000E-01
  8.50000000E-01  8.50000000E-01  8.50000000E-01  8.50000000E-01  8.50000000E-01
  8.50000000E-01  8.50000000E-01  8.50000000E-01  8.50000000E-01  8.50000000E-01
  8.50000000E-01  8.50000000E-01  8.50000000E-01  8.50000000E-01  8.50000000E-01
  8.50000000E-01  8.50000000E-01  8.50000000E-01  8.50000000E-01  8.50000000E-01
  8.50000000E-01  8.50000000E-01  8.50000000E-01  8.50000000E-01  8.50000000E-01
  8.50000000E-01  8.50000000E-01  8.50000000E-01  8.50000000E-01  8.50000000E-01
  8.50000000E-01  8.50000000E-01  8.50000000E-01  8.50000000E-01  8.50000000E-01
  8.50000000E-01  8.50000000E-01  8.50000000E-01  8.50000000E-01  8.50000000E-01
  8.50000000E-01  8.50000000E-01  8.50000000E-01  8.50000000E-01  8.50000000E-01
  8.50000000E-01  8.50000000E-01  8.50000000E-01  8.50000000E-01  8.50000000E-01
  8.50000000E-01  8.50000000E-01  8.50000000E-01  8.50000000E-01  8.50000000E-01
  8.50000000E-01  8.50000000E-01  8.50000000E-01  8.50000000E-01  8.50000000E-01
  8.50000000E-01  8.50000000E-01  8.50000000E-01  8.50000000E-01  8.50000000E-01
  8.50000000E-01  8.50000000E-01  8.50000000E-01  8.50000000E-01  8.50000000E-01
  8.50000000E-01  8.50000000E-01  8.50000000E-01  8.50000000E-01  8.50000000E-01
  8.50000000E-01  8.50000000E-01  8.50000000E-01  8.50000000E-01  8.50000000E-01
  8.50000000E-01  8.50000000E-01  8.50000000E-01  8.50000000E-01  8.50000000E-01
  8.50000000E-01  8.50000000E-01  8.50000000E-01  8.50000000E-01  8.50000000E-01
  8.50000000E-01  8.50000000E-01  8.50000000E-01  8.50000000E-01  8.50000000E-01
  8.50000000E-01  8.50000000E-01  8.50000000E-01  8.50000000E-01  8.50000000E-01
  8.50000000E-01  8.50000000E-01  8.50000000E-01  8.50000000E-01  8.50000000E-01
  8.50000000E-01  8.50000000E-01  8.50000000E-01  8.50000000E-01  8.50000000E-01
  8.50000000E-01  8.50000000E-01  8.50000000E-01  8.50000000E-01  8.50000000E-01
  8.50000000E-01  8.50000000E-01  8.50000000E-01  8.50000000E-01  8.50000000E-01
  8.50000000E-01  8.50000000E-01  8.50000000E-01  8.50000000E-01  8.50000000E-01
  8.50000000E-01  8.50000000E-01  8.50000000E-01  8.50000000E-01  8.50000000E-01
  8.50000000E-01  8.50000000E-01  8.50000000E-01  8.50000000E-01  8.50000000E-01
  8.50000000E-01  8.50000000E-01  8.50000000E-01  8.50000000E-01  8.50000000E-01
  8.50000000E-01  8.50000000E-01  8.50000000E-01  8.50000000E-01  8.50000000E-01
  8.50000000E-01  8.50000000E-01  8.50000000E-01  8.50000000E-01  8.50000000E-01
  8.50000000E-01  8.50000000E-01  8.50000000E-01  8.50000000E-01  8.50000000E-01
  8.50000000E-01  8.50000000E-01  8.50000000E-01  8.50000000E-01  8.50000000E-01
  8.50000000E-01  8.50000000E-01  8.50000000E-01  8.50000000E-01  8.50000000E-01
  8.50000000E-01  8.50000000E-01  8.50000000E-01  8.50000000E-01  8.50000000E-01
  8.50000000E-01  8.50000000E-01  8.50000000E-01  8.50000000E-01  8.50000000E-01
  8.50000000E-01  8.50000000E-01  8.50000000E-01  8.50000000E-01  8.50000000E-01
  8.50000000E-01  8.50000000E-01  8.50000000E-01  8.50000000E-01  8.50000000E-01
  8.50000000E-01  8.50000000E-01  8.50000000E-01  8.50000000E-01  8.50000000E-01
  8.50000000E-01  8.50000000E-01  8.50000000E-01  8.50000000E-01  8.50000000E-01
  8.50000000E-01  8.50000000E-01  8.50000000E-01  8.50000000E-01  8.50000000E-01
  8.50000000E-01  8.50000000E-01  8.50000000E-01  8.50000000E-01  8.50000000E-01
  8.50000000E-01  8.50000000E-01  8.50000000E-01  8.50000000E-01  8.50000000E-01
  8.50000000E-01  8.50000000E-01  8.50000000E-01  8.50000000E-01  8.50000000E-01
  8.50000000E-01  8.50000000E-01  8.50000000E-01  8.50000000E-01  8.50000000E-01
  8.50000000E-01  8.50000000E-01  8.50000000E-01  8.50000000E-01  8.50000000E-01
  8.50000000E-01  8.50000000E-01  8.50000000E-01  8.50000000E-01  8.50000000E-01
  8.50000000E-01  8.50000000E-01  8.50000000E-01  8.50000000E-01  8.50000000E-01
  8.50000000E-01  8.50000000E-01  8.50000000E-01  8.50000000E-01  8.50000000E-01
  8.50000000E-01  8.50000000E-01  8.50000000E-01  8.50000000E-01  8.50000000E-01
  8.50000000E-01  8.50000000E-01  8.50000000E-01  8.50000000E-01  8.50000000E-01
  8.50000000E-01  8.50000000E-01  8.50000000E-01  8.50000000E-01  8.50000000E-01
  8.50000000E-01  8.50000000E-01  8.50000000E-01  8.50000000E-01  8.50000000E-01
  8.50000000E-01  8.50000000E-01  8.50000000E-01  8.50000000E-01  8.50000000E-01
  8.50000000E-01  8.50000000E-01  8.50000000E-01  8.50000000E-01  8.50000000E-01
  8.50000000E-01  8.50000000E-01  8.50000000E-01  8.50000000E-01  8.50000000E-01
  8.50000000E-01  8.50000000E-01  8.50000000E-01  8.50000000E-01  8.50000000E-01
  8.50000000E-01  8.50000000E-01  8.50000000E-01  8.50000000E-01  8.50000000E-01
  8.50000000E-01  8.50000000E-01  8.50000000E-01  8.50000000E-01  8.50000000E-01
  8.50000000E-01  8.50000000E-01  8.50000000E-01  8.50000000E-01  8.50000000E-01
  8.50000000E-01  8.50000000E-01  8.50000000E-01  8.50000000E-01  8.50000000E-01
  8.50000000E-01  8.50000000E-01  8.50000000E-01  8.50000000E-01  8.50000000E-01
  8.50000000E-01  8.50000000E-01  8.50000000E-01  8.50000000E-01  8.50000000E-01
  8.50000000E-01  8.50000000E-01  8.50000000E-01  8.50000000E-01  8.50000000E-01
  8.50000000E-01  8.50000000E-01  8.50000000E-01  8.50000000E-01  8.50000000E-01
  8.50000000E-01  8.50000000E-01  8.50000000E-01  8.50000000E-01  8.50000000E-01
  8.50000000E-01  8.50000000E-01  8.50000000E-01  8.50000000E-01  8.50000000E-01
  8.50000000E-01  8.50000000E-01  8.50000000E-01  8.50000000E-01  8.50000000E-01
  8.50000000E-01  8.50000000E-01  8.50000000E-01  8.50000000E-01  8.50000000E-01
  8.50000000E-01  8.50000000E-01  8.50000000E-01  8.50000000E-01  8.50000000E-01
  8.50000000E-01  8.50000000E-01  8.50000000E-01  8.50000000E-01  8.50000000E-01
  8.50000000E-01  8.50000000E-01  8.50000000E-01  8.50000000E-01  8.50000000E-01
  8.50000000E-01  8.50000000E-01  8.50000000E-01  8.50000000E-01  8.50000000E-01
  8.50000000E-01  8.50000000E-01  8.50000000E-01  8.50000000E-01  8.50000000E-01
  8.50000000E-01  8.50000000E-01  8.50000000E-01  8.50000000E-01  8.50000000E-01
  8.50000000E-01  8.50000000E-01  8.50000000E-01  8.50000000E-01  8.50000000E-01
  8.50000000E-01  8.50000000E-01  8.50000000E-01  8.50000000E-01  8.50000000E-01
  8.50000000E-01  8.50000000E-01  8.50000000E-01  8.50000000E-01  8.50000000E-01
  8.50000000E-01  8.50000000E-01  8.50000000E-01  8.50000000E-01  8.50000000E-01
  8.50000000E-01  8.50000000E-01  8.50000000E-01  8.50000000E-01  8.50000000E-01
  8.50000000E-01  8.50000000E-01  8.50000000E-01  8.50000000E-01  8.50000000E-01
  8.50000000E-01  8.50000000E-01  8.50000000E-01  8.50000000E-01  8.50000000E-01
  8.50000000E-01  8.50000000E-01  8.50000000E-01  8.50000000E-01  8.50000000E-01
  8.50000000E-01  8.50000000E-01  8.50000000E-01  8.50000000E-01  8.50000000E-01
  8.50000000E-01  8.50000000E-01  8.50000000E-01  8.50000000E-01  8.50000000E-01
  8.50000000E-01  8.50000000E-01  8.50000000E-01  8.50000000E-01  8.50000000E-01
  8.50000000E-01  8.50000000E-01  8.50000000E-01  8.50000000E-01  8.50000000E-01
  8.50000000E-01  8.50000000E-01  8.50000000E-01  8.50000000E-01  8.50000000E-01
  8.50000000E-01  8.50000000E-01  8.50000000E-01  8.50000000E-01  8.50000000E-01
  8.50000000E-01  8.50000000E-01  8.50000000E-01  8.50000000E-01  8.50000000E-01
  8.50000000E-01  8.50000000E-01  8.50000000E-01  8.50000000E-01  8.50000000E-01
  8.50000000E-01  8.50000000E-01  8.50000000E-01  8.50000000E-01  8.50000000E-01
  8.50000000E-01  8.50000000E-01  8.50000000E-01  8.50000000E-01  8.50000000E-01
  8.50000000E-01  8.50000000E-01  8.50000000E-01  8.50000000E-01  8.50000000E-01
  8.50000000E-01  8.50000000E-01  8.50000000E-01  8.50000000E-01  8.50000000E-01
  8.50000000E-01  8.50000000E-01  8.50000000E-01  8.50000000E-01  8.50000000E-01
  8.50000000E-01  8.50000000E-01  8.50000000E-01  8.50000000E-01  8.50000000E-01
  8.50000000E-01  8.50000000E-01  8.50000000E-01  8.50000000E-01  8.50000000E-01
  8.50000000E-01  8.50000000E-01  8.50000000E-01  8.50000000E-01  8.50000000E-01
  8.50000000E-01  8.50000000E-01  8.50000000E-01  8.50000000E-01  8.50000000E-01
  8.50000000E-01  8.50000000E-01  8.50000000E-01  8.50000000E-01  8.50000000E-01
  8.50000000E-01  8.50000000E-01  8.50000000E-01  8.50000000E-01  8.50000000E-01
  8.50000000E-01  8.50000000E-01  8.50000000E-01  8.50000000E-01  8.50000000E-01
  8.50000000E-01  8.50000000E-01  8.50000000E-01  8.50000000E-01  8.50000000E-01
  8.50000000E-01  8.50000000E-01  8.50000000E-01  8.50000000E-01  8.50000000E-01
  8.50000000E-01  8.50000000E-01  8.50000000E-01  8.50000000E-01  8.50000000E-01
  8.50000000E-01  8.50000000E-01  8.50000000E-01  8.50000000E-01  8.50000000E-01
  8.50000000E-01  8.50000000E-01  8.50000000E-01  8.50000000E-01  8.50000000E-01
  8.50000000E-01  8.50000000E-01  8.50000000E-01  8.50000000E-01  8.50000000E-01
  8.50000000E-01  8.50000000E-01  8.50000000E-01  8.50000000E-01  8.50000000E-01
  8.50000000E-01  8.50000000E-01  8.50000000E-01  8.50000000E-01  8.50000000E-01
  8.50000000E-01  8.50000000E-01  8.50000000E-01  8.50000000E-01  8.50000000E-01
  8.50000000E-01  8.50000000E-01  8.50000000E-01  8.50000000E-01  8.50000000E-01
  8.50000000E-01  8.50000000E-01  8.50000000E-01  8.50000000E-01  8.50000000E-01
  8.50000000E-01  8.50000000E-01  8.50000000E-01  8.50000000E-01  8.50000000E-01
  8.50000000E-01  8.50000000E-01  8.50000000E-01  8.50000000E-01  8.50000000E-01
  8.50000000E-01  8.50000000E-01  8.50000000E-01  8.50000000E-01  8.50000000E-01
  8.50000000E-01  8.50000000E-01  8.50000000E-01  8.50000000E-01  8.50000000E-01
  8.50000000E-01  8.50000000E-01  8.50000000E-01  8.50000000E-01  8.50000000E-01
  8.50000000E-01  8.50000000E-01  8.50000000E-01  8.50000000E-01  8.50000000E-01
  8.50000000E-01  8.50000000E-01  8.50000000E-01  8.50000000E-01  8.50000000E-01
  8.50000000E-01  8.50000000E-01  8.50000000E-01  8.50000000E-01  8.50000000E-01
  8.50000000E-01  8.50000000E-01  8.50000000E-01  8.50000000E-01  8.50000000E-01
  8.50000000E-01  8.50000000E-01  8.50000000E-01  8.50000000E-01  8.50000000E-01
  8.50000000E-01  8.50000000E-01  8.50000000E-01  8.50000000E-01  8.50000000E-01
  8.50000000E-01  8.50000000E-01  8.50000000E-01  8.50000000E-01  8.50000000E-01
  8.50000000E-01  8.50000000E-01  8.50000000E-01  8.50000000E-01  8.50000000E-01
  8.50000000E-01  8.50000000E-01  8.50000000E-01  8.50000000E-01  8.50000000E-01
  8.50000000E-01  8.50000000E-01  8.50000000E-01  8.50000000E-01  8.50000000E-01
  8.50000000E-01  8.50000000E-01  8.50000000E-01  8.50000000E-01  8.50000000E-01
  8.50000000E-01  8.50000000E-01  8.50000000E-01  8.50000000E-01  8.50000000E-01
  8.50000000E-01  8.50000000E-01  8.50000000E-01  8.50000000E-01  8.50000000E-01
  8.50000000E-01  8.50000000E-01  8.50000000E-01  8.50000000E-01  8.50000000E-01
  8.50000000E-01  8.50000000E-01  8.50000000E-01  8.50000000E-01  8.50000000E-01
  8.50000000E-01  8.50000000E-01  8.50000000E-01  8.50000000E-01  8.50000000E-01
  8.50000000E-01  8.50000000E-01  8.50000000E-01  8.50000000E-01  8.50000000E-01
  8.50000000E-01  8.50000000E-01  8.50000000E-01  8.50000000E-01  8.50000000E-01
  8.50000000E-01  8.50000000E-01  8.50000000E-01  8.50000000E-01  8.50000000E-01
  8.50000000E-01  8.50000000E-01  8.50000000E-01  8.50000000E-01  8.50000000E-01
  8.50000000E-01  8.50000000E-01  8.50000000E-01  8.50000000E-01  8.50000000E-01
  8.50000000E-01  8.50000000E-01  8.50000000E-01  8.50000000E-01  8.50000000E-01
  8.50000000E-01  8.50000000E-01  8.50000000E-01  8.50000000E-01  8.50000000E-01
  8.50000000E-01  8.50000000E-01  8.50000000E-01  8.50000000E-01  8.50000000E-01
  8.50000000E-01  8.50000000E-01  8.50000000E-01  8.50000000E-01  8.50000000E-01
  8.50000000E-01  8.50000000E-01  8.50000000E-01  8.50000000E-01  8.50000000E-01
  8.50000000E-01  8.50000000E-01  8.50000000E-01  8.50000000E-01  8.50000000E-01
  8.50000000E-01  8.50000000E-01  8.50000000E-01  8.50000000E-01  8.50000000E-01
  8.50000000E-01  8.50000000E-01  8.50000000E-01  8.50000000E-01  8.50000000E-01
  8.50000000E-01  8.50000000E-01  8.50000000E-01  8.50000000E-01  8.50000000E-01
  8.50000000E-01  8.50000000E-01  8.50000000E-01  8.50000000E-01  8.50000000E-01
  8.50000000E-01  8.50000000E-01  8.50000000E-01  8.50000000E-01  8.50000000E-01
  8.50000000E-01  8.50000000E-01  8.50000000E-01  8.50000000E-01  8.50000000E-01
  8.50000000E-01  8.50000000E-01  8.50000000E-01  8.50000000E-01  8.50000000E-01
  8.50000000E-01  8.50000000E-01  8.50000000E-01  8.50000000E-01  8.50000000E-01
  8.50000000E-01  8.50000000E-01  8.50000000E-01  8.50000000E-01  8.50000000E-01
  8.50000000E-01  8.50000000E-01  8.50000000E-01  8.50000000E-01  8.50000000E-01
  8.50000000E-01  8.50000000E-01  8.50000000E-01  8.50000000E-01  8.50000000E-01
  8.50000000E-01  8.50000000E-01  8.50000000E-01  8.50000000E-01  8.50000000E-01
  8.50000000E-01  8.50000000E-01  8.50000000E-01  8.50000000E-01  8.50000000E-01
  8.50000000E-01  8.50000000E-01  8.50000000E-01  8.50000000E-01  8.50000000E-01
  8.50000000E-01  8.50000000E-01  8.50000000E-01  8.50000000E-01  8.50000000E-01
  8.50000000E-01  8.50000000E-01  8.50000000E-01  8.50000000E-01  8.50000000E-01
  8.50000000E-01  8.50000000E-01  8.50000000E-01  8.50000000E-01  8.50000000E-01
  8.50000000E-01  8.50000000E-01  8.50000000E-01  8.50000000E-01  8.50000000E-01
  8.50000000E-01  8.50000000E-01  8.50000000E-01  8.50000000E-01  8.50000000E-01
  8.50000000E-01  8.50000000E-01  8.50000000E-01  8.50000000E-01  8.50000000E-01
  8.50000000E-01  8.50000000E-01  8.50000000E-01  8.50000000E-01  8.50000000E-01
  8.50000000E-01  8.50000000E-01  8.50000000E-01  8.50000000E-01  8.50000000E-01
  8.50000000E-01  8.50000000E-01  8.50000000E-01  8.50000000E-01  8.50000000E-01
  8.50000000E-01  8.50000000E-01  8.50000000E-01  8.50000000E-01  8.50000000E-01
  8.50000000E-01  8.50000000E-01  8.50000000E-01  8.50000000E-01  8.50000000E-01
  8.50000000E-01  8.50000000E-01  8.50000000E-01  8.50000000E-01  8.50000000E-01
  8.50000000E-01  8.50000000E-01  8.50000000E-01  8.50000000E-01  8.50000000E-01
  8.50000000E-01  8.50000000E-01  8.50000000E-01  8.50000000E-01  8.50000000E-01
  8.50000000E-01  8.50000000E-01  8.50000000E-01  8.50000000E-01  8.50000000E-01
  8.50000000E-01  8.50000000E-01  8.50000000E-01  8.50000000E-01  8.50000000E-01
  8.50000000E-01  8.50000000E-01  8.50000000E-01  8.50000000E-01  8.50000000E-01
  8.50000000E-01  8.50000000E-01  8.50000000E-01  8.50000000E-01  8.50000000E-01
  8.50000000E-01  8.50000000E-01  8.50000000E-01  8.50000000E-01  8.50000000E-01
  8.50000000E-01  8.50000000E-01  8.50000000E-01  8.50000000E-01  8.50000000E-01
  8.50000000E-01  8.50000000E-01  8.50000000E-01  8.50000000E-01  8.50000000E-01
  8.50000000E-01  8.50000000E-01  8.50000000E-01  8.50000000E-01  8.50000000E-01
  8.50000000E-01  8.50000000E-01  8.50000000E-01  8.50000000E-01  8.50000000E-01
  8.50000000E-01  8.50000000E-01  8.50000000E-01  8.50000000E-01  8.50000000E-01
  8.50000000E-01  8.50000000E-01  8.50000000E-01  8.50000000E-01  8.50000000E-01
  8.50000000E-01  8.50000000E-01  8.50000000E-01  8.50000000E-01  8.50000000E-01
  8.50000000E-01  8.50000000E-01  8.50000000E-01  8.50000000E-01  8.50000000E-01
  8.50000000E-01  8.50000000E-01  8.50000000E-01  8.50000000E-01  8.50000000E-01
  8.50000000E-01  8.50000000E-01  8.50000000E-01  8.50000000E-01  8.50000000E-01
  8.50000000E-01  8.50000000E-01  8.50000000E-01  8.50000000E-01  8.50000000E-01
  8.50000000E-01  8.50000000E-01  8.50000000E-01  8.50000000E-01  8.50000000E-01
  8.50000000E-01  8.50000000E-01  8.50000000E-01  8.50000000E-01  8.50000000E-01
  8.50000000E-01  8.50000000E-01  8.50000000E-01  8.50000000E-01  8.50000000E-01
  8.50000000E-01  8.50000000E-01  8.50000000E-01  8.50000000E-01  8.50000000E-01
  8.50000000E-01  8.50000000E-01  8.50000000E-01  8.50000000E-01  8.50000000E-01
  8.50000000E-01  8.50000000E-01  8.50000000E-01  8.50000000E-01  8.50000000E-01
  8.50000000E-01  8.50000000E-01  8.50000000E-01  8.50000000E-01  8.50000000E-01
  8.50000000E-01  8.50000000E-01  8.50000000E-01  8.50000000E-01  8.50000000E-01
  8.50000000E-01  8.50000000E-01  8.50000000E-01  8.50000000E-01  8.50000000E-01
  8.50000000E-01  8.50000000E-01  8.50000000E-01  8.50000000E-01  8.50000000E-01
  8.50000000E-01  8.50000000E-01  8.50000000E-01  8.50000000E-01  8.50000000E-01
  8.50000000E-01  8.50000000E-01  8.50000000E-01  8.50000000E-01  8.50000000E-01
  8.50000000E-01  8.50000000E-01  8.50000000E-01  8.50000000E-01  8.50000000E-01
  8.50000000E-01  8.50000000E-01  8.50000000E-01  8.50000000E-01  8.50000000E-01
  8.50000000E-01  8.50000000E-01  8.50000000E-01  8.50000000E-01  8.50000000E-01
  8.50000000E-01  8.50000000E-01  8.50000000E-01  8.50000000E-01  8.50000000E-01
  8.50000000E-01  8.50000000E-01  8.50000000E-01  8.50000000E-01  8.50000000E-01
  8.50000000E-01  8.50000000E-01  8.50000000E-01  8.50000000E-01  8.50000000E-01
  8.50000000E-01  8.50000000E-01  8.50000000E-01  8.50000000E-01  8.50000000E-01
  8.50000000E-01  8.50000000E-01  8.50000000E-01  8.50000000E-01  8.50000000E-01
  8.50000000E-01  8.50000000E-01  8.50000000E-01  8.50000000E-01  8.50000000E-01
  8.50000000E-01  8.50000000E-01  8.50000000E-01  8.50000000E-01  8.50000000E-01
  8.50000000E-01  8.50000000E-01  8.50000000E-01  8.50000000E-01  8.50000000E-01
  8.50000000E-01  8.50000000E-01  8.50000000E-01  8.50000000E-01  8.50000000E-01
  8.50000000E-01  8.50000000E-01  8.50000000E-01  8.50000000E-01  8.50000000E-01
  8.50000000E-01  8.50000000E-01  8.50000000E-01  8.50000000E-01  8.50000000E-01
  8.50000000E-01  8.50000000E-01  8.50000000E-01  8.50000000E-01  8.50000000E-01
  8.50000000E-01  8.50000000E-01  8.50000000E-01  8.50000000E-01  8.50000000E-01
  8.50000000E-01  8.50000000E-01  8.50000000E-01  8.50000000E-01  8.50000000E-01
  8.50000000E-01  8.50000000E-01  8.50000000E-01  8.50000000E-01  8.50000000E-01
  8.50000000E-01  8.50000000E-01  8.50000000E-01  8.50000000E-01  8.50000000E-01
  8.50000000E-01  8.50000000E-01  8.50000000E-01  8.50000000E-01  8.50000000E-01
  8.50000000E-01  8.50000000E-01  8.50000000E-01  8.50000000E-01  8.50000000E-01
  8.50000000E-01  8.50000000E-01  8.50000000E-01  8.50000000E-01  8.50000000E-01
  8.50000000E-01  8.50000000E-01  8.50000000E-01  8.50000000E-01  8.50000000E-01
  8.50000000E-01  8.50000000E-01  8.50000000E-01  8.50000000E-01  8.50000000E-01
  8.50000000E-01  8.50000000E-01  8.50000000E-01  8.50000000E-01  8.50000000E-01
  8.50000000E-01  8.50000000E-01  8.50000000E-01  8.50000000E-01  8.50000000E-01
  8.50000000E-01  8.50000000E-01  8.50000000E-01  8.50000000E-01  8.50000000E-01
  8.50000000E-01  8.50000000E-01  8.50000000E-01  8.50000000E-01  8.50000000E-01
  8.50000000E-01  8.50000000E-01  8.50000000E-01  8.50000000E-01  8.50000000E-01
  8.50000000E-01  8.50000000E-01  8.50000000E-01  8.50000000E-01  8.50000000E-01
  8.50000000E-01  8.50000000E-01  8.50000000E-01  8.50000000E-01  8.50000000E-01
  8.50000000E-01  8.50000000E-01  8.50000000E-01  8.50000000E-01  8.50000000E-01
  8.50000000E-01  8.50000000E-01  8.50000000E-01  8.50000000E-01  8.50000000E-01
  8.50000000E-01  8.50000000E-01  8.50000000E-01  8.50000000E-01  8.50000000E-01
  8.50000000E-01  8.50000000E-01  8.50000000E-01  8.50000000E-01  8.50000000E-01
  8.50000000E-01  8.50000000E-01  8.50000000E-01  8.50000000E-01  8.50000000E-01
  8.50000000E-01  8.50000000E-01  8.50000000E-01  8.50000000E-01  8.50000000E-01
  8.50000000E-01  8.50000000E-01  8.50000000E-01  8.50000000E-01  8.50000000E-01
  8.50000000E-01  8.50000000E-01  8.50000000E-01  8.50000000E-01  8.50000000E-01
  8.50000000E-01  8.50000000E-01  8.50000000E-01  8.50000000E-01  8.50000000E-01
  8.50000000E-01  8.50000000E-01  8.50000000E-01  8.50000000E-01  8.50000000E-01
  8.50000000E-01  8.50000000E-01  8.50000000E-01  8.50000000E-01  8.50000000E-01
  8.50000000E-01  8.50000000E-01  8.50000000E-01  8.50000000E-01  8.50000000E-01
  8.50000000E-01  8.50000000E-01  8.50000000E-01  8.50000000E-01  8.50000000E-01
  8.50000000E-01  8.50000000E-01  8.50000000E-01  8.50000000E-01  8.50000000E-01
  8.50000000E-01  8.50000000E-01  8.50000000E-01  8.50000000E-01  8.50000000E-01
  8.50000000E-01  8.50000000E-01  8.50000000E-01  8.50000000E-01  8.50000000E-01
  8.50000000E-01  8.50000000E-01  8.50000000E-01  8.50000000E-01  8.50000000E-01
  8.50000000E-01  8.50000000E-01  8.50000000E-01  8.50000000E-01  8.50000000E-01
  8.50000000E-01  8.50000000E-01  8.50000000E-01  8.50000000E-01  8.50000000E-01
  8.50000000E-01  8.50000000E-01  8.50000000E-01  8.50000000E-01  8.50000000E-01
  8.50000000E-01  8.50000000E-01  8.50000000E-01  8.50000000E-01  8.50000000E-01
  8.50000000E-01  8.50000000E-01  8.50000000E-01  8.50000000E-01  8.50000000E-01
  8.50000000E-01  8.50000000E-01  8.50000000E-01  8.50000000E-01  8.50000000E-01
  8.50000000E-01  8.50000000E-01  8.50000000E-01  8.50000000E-01  8.50000000E-01
  8.50000000E-01  8.50000000E-01  8.50000000E-01  8.50000000E-01  8.50000000E-01
  8.50000000E-01  8.50000000E-01  8.50000000E-01  8.50000000E-01  8.50000000E-01
  8.50000000E-01  8.50000000E-01  8.50000000E-01  8.50000000E-01  8.50000000E-01
  8.50000000E-01  8.50000000E-01  8.50000000E-01  8.50000000E-01  8.50000000E-01
  8.50000000E-01  8.50000000E-01  8.50000000E-01  8.50000000E-01  8.50000000E-01
  8.50000000E-01  8.50000000E-01  8.50000000E-01  8.50000000E-01  8.50000000E-01
  8.50000000E-01  8.50000000E-01  8.50000000E-01  8.50000000E-01  8.50000000E-01
  8.50000000E-01  8.50000000E-01  8.50000000E-01  8.50000000E-01  8.50000000E-01
  8.50000000E-01  8.50000000E-01  8.50000000E-01  8.50000000E-01  8.50000000E-01
  8.50000000E-01  8.50000000E-01  8.50000000E-01  8.50000000E-01  8.50000000E-01
  8.50000000E-01  8.50000000E-01  8.50000000E-01  8.50000000E-01  8.50000000E-01
  8.50000000E-01  8.50000000E-01  8.50000000E-01  8.50000000E-01  8.50000000E-01
  8.50000000E-01  8.50000000E-01  8.50000000E-01  8.50000000E-01  8.50000000E-01
  8.50000000E-01  8.50000000E-01  8.50000000E-01  8.50000000E-01  8.50000000E-01
  8.50000000E-01  8.50000000E-01  8.50000000E-01  8.50000000E-01  8.50000000E-01
  8.50000000E-01  8.50000000E-01  8.50000000E-01  8.50000000E-01  8.50000000E-01
  8.50000000E-01  8.50000000E-01  8.50000000E-01  8.50000000E-01  8.50000000E-01
  8.50000000E-01  8.50000000E-01  8.50000000E-01  8.50000000E-01  8.50000000E-01
  8.50000000E-01  8.50000000E-01  8.50000000E-01  8.50000000E-01  8.50000000E-01
  8.50000000E-01  8.50000000E-01  8.50000000E-01  8.50000000E-01  8.50000000E-01
  8.50000000E-01  8.50000000E-01  8.50000000E-01  8.50000000E-01  8.50000000E-01
  8.50000000E-01  8.50000000E-01  8.50000000E-01  8.50000000E-01  8.50000000E-01
  8.50000000E-01  8.50000000E-01  8.50000000E-01  8.50000000E-01  8.50000000E-01
  8.50000000E-01  8.50000000E-01  8.50000000E-01  8.50000000E-01  8.50000000E-01
  8.50000000E-01  8.50000000E-01  8.50000000E-01  8.50000000E-01  8.50000000E-01
  8.50000000E-01  8.50000000E-01  8.50000000E-01  8.50000000E-01  8.50000000E-01
  8.50000000E-01  8.50000000E-01  8.50000000E-01  8.50000000E-01  8.50000000E-01
  8.50000000E-01  8.50000000E-01  8.50000000E-01  8.50000000E-01  8.50000000E-01
  8.50000000E-01  8.50000000E-01  8.50000000E-01  8.50000000E-01  8.50000000E-01
  8.50000000E-01  8.50000000E-01  8.50000000E-01  8.50000000E-01  8.50000000E-01
  8.50000000E-01  8.50000000E-01  8.50000000E-01  8.50000000E-01  8.50000000E-01
  8.50000000E-01  8.50000000E-01  8.50000000E-01  8.50000000E-01  8.50000000E-01
  8.50000000E-01  8.50000000E-01  8.50000000E-01  8.50000000E-01  8.50000000E-01
  8.50000000E-01  8.50000000E-01  8.50000000E-01  8.50000000E-01  8.50000000E-01
  8.50000000E-01  8.50000000E-01  8.50000000E-01  8.50000000E-01  8.50000000E-01
  8.50000000E-01  8.50000000E-01  8.50000000E-01  8.50000000E-01  8.50000000E-01
  8.50000000E-01  8.50000000E-01  8.50000000E-01  8.50000000E-01  8.50000000E-01
  8.50000000E-01  8.50000000E-01  8.50000000E-01  8.50000000E-01  8.50000000E-01
  8.50000000E-01  8.50000000E-01  8.50000000E-01  8.50000000E-01  8.50000000E-01
  8.50000000E-01  8.50000000E-01  8.50000000E-01  8.50000000E-01  8.50000000E-01
  8.50000000E-01  8.50000000E-01  8.50000000E-01  8.50000000E-01  8.50000000E-01
  8.50000000E-01  8.50000000E-01  8.50000000E-01  8.50000000E-01  8.50000000E-01
  8.50000000E-01  8.50000000E-01  8.50000000E-01  8.50000000E-01  8.50000000E-01
  8.50000000E-01  8.50000000E-01  8.50000000E-01  8.50000000E-01  8.50000000E-01
  8.50000000E-01  8.50000000E-01  8.50000000E-01  8.50000000E-01  8.50000000E-01
  8.50000000E-01  8.50000000E-01  8.50000000E-01  8.50000000E-01  8.50000000E-01
  8.50000000E-01  8.50000000E-01  8.50000000E-01  8.50000000E-01  8.50000000E-01
  8.50000000E-01  8.50000000E-01  8.50000000E-01  8.50000000E-01  8.50000000E-01
  8.50000000E-01  8.50000000E-01  8.50000000E-01  8.50000000E-01  8.50000000E-01
  8.50000000E-01  8.50000000E-01  8.50000000E-01  8.50000000E-01  8.50000000E-01
  8.50000000E-01  8.50000000E-01  8.50000000E-01  8.50000000E-01  8.50000000E-01
  8.50000000E-01  8.50000000E-01  8.50000000E-01  8.50000000E-01  8.50000000E-01
  8.50000000E-01  8.50000000E-01  8.50000000E-01  8.50000000E-01  8.50000000E-01
  8.50000000E-01  8.50000000E-01  8.50000000E-01  8.50000000E-01  8.50000000E-01
  8.50000000E-01  8.50000000E-01  8.50000000E-01  8.50000000E-01  8.50000000E-01
  8.50000000E-01  8.50000000E-01  8.50000000E-01  8.50000000E-01  8.50000000E-01
  8.50000000E-01  8.50000000E-01  8.50000000E-01  8.50000000E-01  8.50000000E-01
  8.50000000E-01  8.50000000E-01  8.50000000E-01  8.50000000E-01  8.50000000E-01
  8.50000000E-01  8.50000000E-01  8.50000000E-01  8.50000000E-01  8.50000000E-01
  8.50000000E-01  8.50000000E-01  8.50000000E-01  8.50000000E-01  8.50000000E-01
  8.50000000E-01  8.50000000E-01  8.50000000E-01  8.50000000E-01  8.50000000E-01
  8.50000000E-01  8.50000000E-01  8.50000000E-01  8.50000000E-01  8.50000000E-01
  8.50000000E-01  8.50000000E-01  8.50000000E-01  8.50000000E-01  8.50000000E-01
  8.50000000E-01  8.50000000E-01  8.50000000E-01  8.50000000E-01  8.50000000E-01
  8.50000000E-01  8.50000000E-01  8.50000000E-01  8.50000000E-01  8.50000000E-01
  8.50000000E-01  8.50000000E-01  8.50000000E-01  8.50000000E-01  8.50000000E-01
  8.50000000E-01  8.50000000E-01  8.50000000E-01  8.50000000E-01  8.50000000E-01
  8.50000000E-01  8.50000000E-01  8.50000000E-01  8.50000000E-01  8.50000000E-01
  8.50000000E-01  8.50000000E-01  8.50000000E-01  8.50000000E-01  8.50000000E-01
  8.50000000E-01  8.50000000E-01  8.50000000E-01  8.50000000E-01  8.50000000E-01
  8.50000000E-01  8.50000000E-01  8.50000000E-01  8.50000000E-01  8.50000000E-01
  8.50000000E-01  8.50000000E-01  8.50000000E-01  8.50000000E-01  8.50000000E-01
  8.50000000E-01  8.50000000E-01  8.50000000E-01  8.50000000E-01  8.50000000E-01
  8.50000000E-01  8.50000000E-01  8.50000000E-01  8.50000000E-01  8.50000000E-01
  8.50000000E-01  8.50000000E-01  8.50000000E-01  8.50000000E-01  8.50000000E-01
  8.50000000E-01  8.50000000E-01  8.50000000E-01  8.50000000E-01  8.50000000E-01
  8.50000000E-01  8.50000000E-01  8.50000000E-01  8.50000000E-01  8.50000000E-01
  8.50000000E-01  8.50000000E-01  8.50000000E-01  8.50000000E-01  8.50000000E-01
  8.50000000E-01  8.50000000E-01  8.50000000E-01  8.50000000E-01  8.50000000E-01
  8.50000000E-01  8.50000000E-01  8.50000000E-01  8.50000000E-01  8.50000000E-01
  8.50000000E-01  8.50000000E-01  8.50000000E-01  8.50000000E-01  8.50000000E-01
  8.50000000E-01  8.50000000E-01  8.50000000E-01  8.50000000E-01  8.50000000E-01
  8.50000000E-01  8.50000000E-01  8.50000000E-01  8.50000000E-01  8.50000000E-01
  8.50000000E-01  8.50000000E-01  8.50000000E-01  8.50000000E-01  8.50000000E-01
  8.50000000E-01  8.50000000E-01  8.50000000E-01  8.50000000E-01  8.50000000E-01
  8.50000000E-01  8.50000000E-01  8.50000000E-01  8.50000000E-01  8.50000000E-01
  8.50000000E-01  8.50000000E-01  8.50000000E-01  8.50000000E-01  8.50000000E-01
  8.50000000E-01  8.50000000E-01  8.50000000E-01  8.50000000E-01  8.50000000E-01
  8.50000000E-01  8.50000000E-01  8.50000000E-01  8.50000000E-01  8.50000000E-01
  8.50000000E-01  8.50000000E-01  8.50000000E-01  8.50000000E-01  8.50000000E-01
  8.50000000E-01  8.50000000E-01  8.50000000E-01  8.50000000E-01  8.50000000E-01
  8.50000000E-01  8.50000000E-01  8.50000000E-01  8.50000000E-01  8.50000000E-01
  8.50000000E-01  8.50000000E-01  8.50000000E-01  8.50000000E-01  8.50000000E-01
  8.50000000E-01  8.50000000E-01  8.50000000E-01  8.50000000E-01  8.50000000E-01
  8.50000000E-01  8.50000000E-01  8.50000000E-01  8.50000000E-01  8.50000000E-01
  8.50000000E-01  8.50000000E-01  8.50000000E-01  8.50000000E-01  8.50000000E-01
  8.50000000E-01  8.50000000E-01  8.50000000E-01  8.50000000E-01  8.50000000E-01
  8.50000000E-01  8.50000000E-01  8.50000000E-01  8.50000000E-01  8.50000000E-01
  8.50000000E-01  8.50000000E-01  8.50000000E-01  8.50000000E-01  8.50000000E-01
  8.50000000E-01  8.50000000E-01  8.50000000E-01  8.50000000E-01  8.50000000E-01
  8.50000000E-01  8.50000000E-01  8.50000000E-01  8.50000000E-01  8.50000000E-01
  8.50000000E-01  8.50000000E-01  8.50000000E-01  8.50000000E-01  8.50000000E-01
  8.50000000E-01  8.50000000E-01  8.50000000E-01  8.50000000E-01  8.50000000E-01
  8.50000000E-01  8.50000000E-01  8.50000000E-01  8.50000000E-01  8.50000000E-01
  8.50000000E-01  8.50000000E-01  8.50000000E-01  8.50000000E-01  8.50000000E-01
  8.50000000E-01  8.50000000E-01  8.50000000E-01  8.50000000E-01  8.50000000E-01
  8.50000000E-01  8.50000000E-01  8.50000000E-01  8.50000000E-01  8.50000000E-01
  8.50000000E-01  8.50000000E-01  8.50000000E-01  8.50000000E-01  8.50000000E-01
  8.50000000E-01  8.50000000E-01  8.50000000E-01  8.50000000E-01  8.50000000E-01
  8.50000000E-01  8.50000000E-01  8.50000000E-01  8.50000000E-01  8.50000000E-01
  8.50000000E-01  8.50000000E-01  8.50000000E-01  8.50000000E-01  8.50000000E-01
  8.50000000E-01  8.50000000E-01  8.50000000E-01  8.50000000E-01  8.50000000E-01
  8.50000000E-01  8.50000000E-01  8.50000000E-01  8.50000000E-01  8.50000000E-01
  8.50000000E-01  8.50000000E-01  8.50000000E-01  8.50000000E-01  8.50000000E-01
  8.50000000E-01  8.50000000E-01  8.50000000E-01  8.50000000E-01  8.50000000E-01
  8.50000000E-01  8.50000000E-01  8.50000000E-01  8.50000000E-01  8.50000000E-01
  8.50000000E-01  8.50000000E-01  8.50000000E-01  8.50000000E-01  8.50000000E-01
  8.50000000E-01  8.50000000E-01  8.50000000E-01  8.50000000E-01  8.50000000E-01
  8.50000000E-01  8.50000000E-01  8.50000000E-01  8.50000000E-01  8.50000000E-01
  8.50000000E-01  8.50000000E-01  8.50000000E-01  8.50000000E-01  8.50000000E-01
  8.50000000E-01  8.50000000E-01  8.50000000E-01  8.50000000E-01  8.50000000E-01
  8.50000000E-01  8.50000000E-01  8.50000000E-01  8.50000000E-01  8.50000000E-01
  8.50000000E-01  8.50000000E-01  8.50000000E-01  8.50000000E-01  8.50000000E-01
  8.50000000E-01  8.50000000E-01  8.50000000E-01  8.50000000E-01  8.50000000E-01
  8.50000000E-01  8.50000000E-01  8.50000000E-01  8.50000000E-01  8.50000000E-01
  8.50000000E-01  8.50000000E-01  8.50000000E-01  8.50000000E-01  8.50000000E-01
  8.50000000E-01  8.50000000E-01  8.50000000E-01  8.50000000E-01  8.50000000E-01
  8.50000000E-01  8.50000000E-01  8.50000000E-01  8.50000000E-01  8.50000000E-01
  8.50000000E-01  8.50000000E-01  8.50000000E-01  8.50000000E-01  8.50000000E-01
  8.50000000E-01  8.50000000E-01  8.50000000E-01  8.50000000E-01  8.50000000E-01
  8.50000000E-01  8.50000000E-01  8.50000000E-01  8.50000000E-01  8.50000000E-01
  8.50000000E-01  8.50000000E-01  8.50000000E-01  8.50000000E-01  8.50000000E-01
  8.50000000E-01  8.50000000E-01  8.50000000E-01  8.50000000E-01  8.50000000E-01
  8.50000000E-01  8.50000000E-01  8.50000000E-01  8.50000000E-01  8.50000000E-01
  8.50000000E-01  8.50000000E-01  8.50000000E-01  8.50000000E-01  8.50000000E-01
  8.50000000E-01  8.50000000E-01  8.50000000E-01  8.50000000E-01  8.50000000E-01
  8.50000000E-01  8.50000000E-01  8.50000000E-01  8.50000000E-01  8.50000000E-01
  8.50000000E-01  8.50000000E-01  8.50000000E-01  8.50000000E-01  8.50000000E-01
  8.50000000E-01  8.50000000E-01  8.50000000E-01  8.50000000E-01  8.50000000E-01
  8.50000000E-01  8.50000000E-01  8.50000000E-01  8.50000000E-01  8.50000000E-01
  8.50000000E-01  8.50000000E-01  8.50000000E-01  8.50000000E-01  8.50000000E-01
  8.50000000E-01  8.50000000E-01  8.50000000E-01  8.50000000E-01  8.50000000E-01
  8.50000000E-01  8.50000000E-01  8.50000000E-01  8.50000000E-01  8.50000000E-01
  8.50000000E-01  8.50000000E-01  8.50000000E-01  8.50000000E-01  8.50000000E-01
  8.50000000E-01  8.50000000E-01  8.50000000E-01  8.50000000E-01  8.50000000E-01
  8.50000000E-01  8.50000000E-01  8.50000000E-01  8.50000000E-01  8.50000000E-01
  8.50000000E-01  8.50000000E-01  8.50000000E-01  8.50000000E-01  8.50000000E-01
  8.50000000E-01  8.50000000E-01  8.50000000E-01  8.50000000E-01  8.50000000E-01
  8.50000000E-01  8.50000000E-01  8.50000000E-01  8.50000000E-01  8.50000000E-01
  8.50000000E-01  8.50000000E-01  8.50000000E-01  8.50000000E-01  8.50000000E-01
  8.50000000E-01  8.50000000E-01  8.50000000E-01  8.50000000E-01  8.50000000E-01
  8.50000000E-01  8.50000000E-01  8.50000000E-01  8.50000000E-01  8.50000000E-01
  8.50000000E-01  8.50000000E-01  8.50000000E-01  8.50000000E-01  8.50000000E-01
  8.50000000E-01  8.50000000E-01  8.50000000E-01  8.50000000E-01  8.50000000E-01
  8.50000000E-01  8.50000000E-01  8.50000000E-01  8.50000000E-01  8.50000000E-01
  8.50000000E-01  8.50000000E-01  8.50000000E-01  8.50000000E-01  8.50000000E-01
  8.50000000E-01  8.50000000E-01  8.50000000E-01  8.50000000E-01  8.50000000E-01
  8.50000000E-01  8.50000000E-01  8.50000000E-01  8.50000000E-01  8.50000000E-01
  8.50000000E-01  8.50000000E-01  8.50000000E-01  8.50000000E-01  8.50000000E-01
  8.50000000E-01  8.50000000E-01  8.50000000E-01  8.50000000E-01  8.50000000E-01
  8.50000000E-01  8.50000000E-01  8.50000000E-01  8.50000000E-01  8.50000000E-01
  8.50000000E-01  8.50000000E-01  8.50000000E-01  8.50000000E-01  8.50000000E-01
  8.50000000E-01  8.50000000E-01  8.50000000E-01  8.50000000E-01  8.50000000E-01
  8.50000000E-01  8.50000000E-01  8.50000000E-01  8.50000000E-01  8.50000000E-01
  8.50000000E-01  8.50000000E-01  8.50000000E-01  8.50000000E-01  8.50000000E-01
  8.50000000E-01  8.50000000E-01  8.50000000E-01  8.50000000E-01  8.50000000E-01
  8.50000000E-01  8.50000000E-01  8.50000000E-01  8.50000000E-01  8.50000000E-01
  8.50000000E-01  8.50000000E-01  8.50000000E-01  8.50000000E-01  8.50000000E-01
  8.50000000E-01  8.50000000E-01  8.50000000E-01  8.50000000E-01  8.50000000E-01
  8.50000000E-01  8.50000000E-01  8.50000000E-01  8.50000000E-01  8.50000000E-01
  8.50000000E-01  8.50000000E-01  8.50000000E-01  8.50000000E-01  8.50000000E-01
  8.50000000E-01  8.50000000E-01  8.50000000E-01  8.50000000E-01  8.50000000E-01
  8.50000000E-01  8.50000000E-01  8.50000000E-01  8.50000000E-01  8.50000000E-01
  8.50000000E-01  8.50000000E-01  8.50000000E-01  8.50000000E-01  8.50000000E-01
  8.50000000E-01  8.50000000E-01  8.50000000E-01  8.50000000E-01  8.50000000E-01
  8.50000000E-01  8.50000000E-01  8.50000000E-01  8.50000000E-01  8.50000000E-01
  8.50000000E-01  8.50000000E-01  8.50000000E-01  8.50000000E-01  8.50000000E-01
  8.50000000E-01  8.50000000E-01  8.50000000E-01  8.50000000E-01  8.50000000E-01
  8.50000000E-01  8.50000000E-01  8.50000000E-01  8.50000000E-01  8.50000000E-01
  8.50000000E-01  8.50000000E-01  8.50000000E-01  8.50000000E-01  8.50000000E-01
  8.50000000E-01  8.50000000E-01  8.50000000E-01  8.50000000E-01  8.50000000E-01
  8.50000000E-01  8.50000000E-01  8.50000000E-01  8.50000000E-01  8.50000000E-01
  8.50000000E-01  8.50000000E-01  8.50000000E-01  8.50000000E-01  8.50000000E-01
  8.50000000E-01  8.50000000E-01  8.50000000E-01  8.50000000E-01  8.50000000E-01
  8.50000000E-01  8.50000000E-01  8.50000000E-01  8.50000000E-01  8.50000000E-01
  8.50000000E-01  8.50000000E-01  8.50000000E-01  8.50000000E-01  8.50000000E-01
  8.50000000E-01  8.50000000E-01  8.50000000E-01  8.50000000E-01  8.50000000E-01
  8.50000000E-01  8.50000000E-01  8.50000000E-01  8.50000000E-01  8.50000000E-01
  8.50000000E-01  8.50000000E-01  8.50000000E-01  8.50000000E-01  8.50000000E-01
  8.50000000E-01  8.50000000E-01  8.50000000E-01  8.50000000E-01  8.50000000E-01
  8.50000000E-01  8.50000000E-01  8.50000000E-01  8.50000000E-01  8.50000000E-01
  8.50000000E-01  8.50000000E-01  8.50000000E-01  8.50000000E-01  8.50000000E-01
  8.50000000E-01  8.50000000E-01  8.50000000E-01  8.50000000E-01  8.50000000E-01
  8.50000000E-01  8.50000000E-01  8.50000000E-01  8.50000000E-01  8.50000000E-01
  8.50000000E-01  8.50000000E-01  8.50000000E-01  8.50000000E-01  8.50000000E-01
  8.50000000E-01  8.50000000E-01  8.50000000E-01  8.50000000E-01  8.50000000E-01
  8.50000000E-01  8.50000000E-01  8.50000000E-01  8.50000000E-01  8.50000000E-01
  8.50000000E-01  8.50000000E-01  8.50000000E-01  8.50000000E-01  8.50000000E-01
  8.50000000E-01  8.50000000E-01  8.50000000E-01  8.50000000E-01  8.50000000E-01
  8.50000000E-01  8.50000000E-01  8.50000000E-01  8.50000000E-01  8.50000000E-01
  8.50000000E-01  8.50000000E-01  8.50000000E-01  8.50000000E-01  8.50000000E-01
  8.50000000E-01  8.50000000E-01  8.50000000E-01  8.50000000E-01  8.50000000E-01
  8.50000000E-01  8.50000000E-01  8.50000000E-01  8.50000000E-01  8.50000000E-01
  8.50000000E-01  8.50000000E-01  8.50000000E-01  8.50000000E-01  8.50000000E-01
  8.50000000E-01  8.50000000E-01  8.50000000E-01  8.50000000E-01  8.50000000E-01
  8.50000000E-01  8.50000000E-01  8.50000000E-01  8.50000000E-01  8.50000000E-01
  8.50000000E-01  8.50000000E-01  8.50000000E-01  8.50000000E-01  8.50000000E-01
  8.50000000E-01  8.50000000E-01  8.50000000E-01  8.50000000E-01  8.50000000E-01
  8.50000000E-01  8.50000000E-01  8.50000000E-01  8.50000000E-01  8.50000000E-01
  8.50000000E-01  8.50000000E-01  8.50000000E-01  8.50000000E-01  8.50000000E-01
  8.50000000E-01  8.50000000E-01  8.50000000E-01  8.50000000E-01  8.50000000E-01
  8.50000000E-01  8.50000000E-01  8.50000000E-01  8.50000000E-01  8.50000000E-01
  8.50000000E-01  8.50000000E-01  8.50000000E-01  8.50000000E-01  8.50000000E-01
  8.50000000E-01  8.50000000E-01  8.50000000E-01  8.50000000E-01  8.50000000E-01
  8.50000000E-01  8.50000000E-01  8.50000000E-01  8.50000000E-01  8.50000000E-01
  8.50000000E-01  8.50000000E-01  8.50000000E-01  8.50000000E-01  8.50000000E-01
  8.50000000E-01  8.50000000E-01  8.50000000E-01  8.50000000E-01  8.50000000E-01
  8.50000000E-01  8.50000000E-01  8.50000000E-01  8.50000000E-01  8.50000000E-01
  8.50000000E-01  8.50000000E-01  8.50000000E-01  8.50000000E-01  8.50000000E-01
  8.50000000E-01  8.50000000E-01  8.50000000E-01  8.50000000E-01  8.50000000E-01
  8.50000000E-01  8.50000000E-01  8.50000000E-01  8.50000000E-01  8.50000000E-01
  8.50000000E-01  8.50000000E-01  8.50000000E-01  8.50000000E-01  8.50000000E-01
  8.50000000E-01  8.50000000E-01  8.50000000E-01  8.50000000E-01  8.50000000E-01
  8.50000000E-01  8.50000000E-01  8.50000000E-01  8.50000000E-01  8.50000000E-01
  8.50000000E-01  8.50000000E-01  8.50000000E-01  8.50000000E-01  8.50000000E-01
  8.50000000E-01  8.50000000E-01  8.50000000E-01  8.50000000E-01  8.50000000E-01
  8.50000000E-01  8.50000000E-01  8.50000000E-01  8.50000000E-01  8.50000000E-01
  8.50000000E-01  8.50000000E-01  8.50000000E-01  8.50000000E-01  8.50000000E-01
  8.50000000E-01  8.50000000E-01  8.50000000E-01  8.50000000E-01  8.50000000E-01
  8.50000000E-01  8.50000000E-01  8.50000000E-01  8.50000000E-01  8.50000000E-01
  8.50000000E-01  8.50000000E-01  8.50000000E-01  8.50000000E-01  8.50000000E-01
  8.50000000E-01  8.50000000E-01  8.50000000E-01  8.50000000E-01  8.50000000E-01
  8.50000000E-01  8.50000000E-01  8.50000000E-01  8.50000000E-01  8.50000000E-01
  8.50000000E-01  8.50000000E-01  8.50000000E-01  8.50000000E-01  8.50000000E-01
  8.50000000E-01  8.50000000E-01  8.50000000E-01  8.50000000E-01  8.50000000E-01
  8.50000000E-01  8.50000000E-01  8.50000000E-01  8.50000000E-01  8.50000000E-01
  8.50000000E-01  8.50000000E-01  8.50000000E-01  8.50000000E-01  8.50000000E-01
  8.50000000E-01  8.50000000E-01  8.50000000E-01  8.50000000E-01  8.50000000E-01
  8.50000000E-01  8.50000000E-01  8.50000000E-01  8.50000000E-01  8.50000000E-01
  8.50000000E-01  8.50000000E-01  8.50000000E-01  8.50000000E-01  8.50000000E-01
  8.50000000E-01  8.50000000E-01  8.50000000E-01  8.50000000E-01  8.50000000E-01
  8.50000000E-01  8.50000000E-01  8.50000000E-01  8.50000000E-01  8.50000000E-01
  8.50000000E-01  8.50000000E-01  8.50000000E-01  8.50000000E-01  8.50000000E-01
  8.50000000E-01  8.50000000E-01  8.50000000E-01  8.50000000E-01  8.50000000E-01
  8.50000000E-01  8.50000000E-01  8.50000000E-01  8.50000000E-01  8.50000000E-01
  8.50000000E-01  8.50000000E-01  8.50000000E-01  8.50000000E-01  8.50000000E-01
  8.50000000E-01  8.50000000E-01  8.50000000E-01  8.50000000E-01  8.50000000E-01
  8.50000000E-01  8.50000000E-01  8.50000000E-01  8.50000000E-01  8.50000000E-01
  8.50000000E-01  8.50000000E-01  8.50000000E-01  8.50000000E-01  8.50000000E-01
  8.50000000E-01  8.50000000E-01  8.50000000E-01  8.50000000E-01  8.50000000E-01
  8.50000000E-01  8.50000000E-01  8.50000000E-01  8.50000000E-01  8.50000000E-01
  8.50000000E-01  8.50000000E-01  8.50000000E-01  8.50000000E-01  8.50000000E-01
  8.50000000E-01  8.50000000E-01  8.50000000E-01  8.50000000E-01  8.50000000E-01
  8.50000000E-01  8.50000000E-01  8.50000000E-01  8.50000000E-01  8.50000000E-01
  8.50000000E-01  8.50000000E-01  8.50000000E-01  8.50000000E-01  8.50000000E-01
  8.50000000E-01  8.50000000E-01  8.50000000E-01  8.50000000E-01  8.50000000E-01
  8.50000000E-01  8.50000000E-01  8.50000000E-01  8.50000000E-01  8.50000000E-01
  8.50000000E-01  8.50000000E-01  8.50000000E-01  8.50000000E-01  8.50000000E-01
  8.50000000E-01  8.50000000E-01  8.50000000E-01  8.50000000E-01  8.50000000E-01
  8.50000000E-01  8.50000000E-01  8.50000000E-01  8.50000000E-01  8.50000000E-01
  8.50000000E-01  8.50000000E-01  8.50000000E-01  8.50000000E-01  8.50000000E-01
  8.50000000E-01  8.50000000E-01  8.50000000E-01  8.50000000E-01  8.50000000E-01
  8.50000000E-01  8.50000000E-01  8.50000000E-01  8.50000000E-01  8.50000000E-01
  8.50000000E-01  8.50000000E-01  8.50000000E-01  8.50000000E-01  8.50000000E-01
  8.50000000E-01  8.50000000E-01  8.50000000E-01  8.50000000E-01  8.50000000E-01
  8.50000000E-01  8.50000000E-01  8.50000000E-01  8.50000000E-01  8.50000000E-01
  8.50000000E-01  8.50000000E-01  8.50000000E-01  8.50000000E-01  8.50000000E-01
  8.50000000E-01  8.50000000E-01  8.50000000E-01  8.50000000E-01  8.50000000E-01
  8.50000000E-01  8.50000000E-01  8.50000000E-01  8.50000000E-01  8.50000000E-01
  8.50000000E-01  8.50000000E-01  8.50000000E-01  8.50000000E-01  8.50000000E-01
  8.50000000E-01  8.50000000E-01  8.50000000E-01  8.50000000E-01  8.50000000E-01
  8.50000000E-01  8.50000000E-01  8.50000000E-01  8.50000000E-01  8.50000000E-01
  8.50000000E-01  8.50000000E-01  8.50000000E-01  8.50000000E-01  8.50000000E-01
  8.50000000E-01  8.50000000E-01  8.50000000E-01  8.50000000E-01  8.50000000E-01
  8.50000000E-01  8.50000000E-01  8.50000000E-01  8.50000000E-01  8.50000000E-01
  8.50000000E-01  8.50000000E-01  8.50000000E-01  8.50000000E-01  8.50000000E-01
  8.50000000E-01  8.50000000E-01  8.50000000E-01  8.50000000E-01  8.50000000E-01
  8.50000000E-01  8.50000000E-01  8.50000000E-01  8.50000000E-01  8.50000000E-01
  8.50000000E-01  8.50000000E-01  8.50000000E-01  8.50000000E-01  8.50000000E-01
  8.50000000E-01  8.50000000E-01  8.50000000E-01  8.50000000E-01  8.50000000E-01
  8.50000000E-01  8.50000000E-01  8.50000000E-01  8.50000000E-01  8.50000000E-01
  8.50000000E-01  8.50000000E-01  8.50000000E-01  8.50000000E-01  8.50000000E-01
  8.50000000E-01  8.50000000E-01  8.50000000E-01  8.50000000E-01  8.50000000E-01
  8.50000000E-01  8.50000000E-01  8.50000000E-01  8.50000000E-01  8.50000000E-01
  8.50000000E-01  8.50000000E-01  8.50000000E-01  8.50000000E-01  8.50000000E-01
  8.50000000E-01  8.50000000E-01  8.50000000E-01  8.50000000E-01  8.50000000E-01
  8.50000000E-01  8.50000000E-01  8.50000000E-01  8.50000000E-01  8.50000000E-01
  8.50000000E-01  8.50000000E-01  8.50000000E-01  8.50000000E-01  8.50000000E-01
  8.50000000E-01  8.50000000E-01  8.50000000E-01  8.50000000E-01  8.50000000E-01
  8.50000000E-01  8.50000000E-01  8.50000000E-01  8.50000000E-01  8.50000000E-01
  8.50000000E-01  8.50000000E-01  8.50000000E-01  8.50000000E-01  8.50000000E-01
  8.50000000E-01  8.50000000E-01  8.50000000E-01  8.50000000E-01  8.50000000E-01
  8.50000000E-01  8.50000000E-01  8.50000000E-01  8.50000000E-01  8.50000000E-01
  8.50000000E-01  8.50000000E-01  8.50000000E-01  8.50000000E-01  8.50000000E-01
  8.50000000E-01  8.50000000E-01  8.50000000E-01  8.50000000E-01  8.50000000E-01
  8.50000000E-01  8.50000000E-01  8.50000000E-01  8.50000000E-01  8.50000000E-01
  8.50000000E-01  8.50000000E-01  8.50000000E-01  8.50000000E-01  8.50000000E-01
  8.50000000E-01  8.50000000E-01  8.50000000E-01  8.50000000E-01  8.50000000E-01
  8.50000000E-01  8.50000000E-01  8.50000000E-01  8.50000000E-01  8.50000000E-01
  8.50000000E-01  8.50000000E-01  8.50000000E-01  8.50000000E-01  8.50000000E-01
  8.50000000E-01  8.50000000E-01  8.50000000E-01  8.50000000E-01  8.50000000E-01
  8.50000000E-01  8.50000000E-01  8.50000000E-01  8.50000000E-01  8.50000000E-01
  8.50000000E-01  8.50000000E-01  8.50000000E-01  8.50000000E-01  8.50000000E-01
  8.50000000E-01  8.50000000E-01  8.50000000E-01  8.50000000E-01  8.50000000E-01
  8.50000000E-01  8.50000000E-01  8.50000000E-01  8.50000000E-01  8.50000000E-01
  8.50000000E-01  8.50000000E-01  8.50000000E-01  8.50000000E-01  8.50000000E-01
  8.50000000E-01  8.50000000E-01  8.50000000E-01  8.50000000E-01  8.50000000E-01
  8.50000000E-01  8.50000000E-01  8.50000000E-01  8.50000000E-01  8.50000000E-01
  8.50000000E-01  8.50000000E-01  8.50000000E-01  8.50000000E-01  8.50000000E-01
  8.50000000E-01  8.50000000E-01  8.50000000E-01  8.50000000E-01  8.50000000E-01
  8.50000000E-01  8.50000000E-01  8.50000000E-01  8.50000000E-01  8.50000000E-01
  8.50000000E-01  8.50000000E-01  8.50000000E-01  8.50000000E-01  8.50000000E-01
  8.50000000E-01  8.50000000E-01  8.50000000E-01  8.50000000E-01  8.50000000E-01
  8.50000000E-01  8.50000000E-01  8.50000000E-01  8.50000000E-01  8.50000000E-01
  8.50000000E-01  8.50000000E-01  8.50000000E-01  8.50000000E-01  8.50000000E-01
  8.50000000E-01  8.50000000E-01  8.50000000E-01  8.50000000E-01  8.50000000E-01
  8.50000000E-01  8.50000000E-01  8.50000000E-01  8.50000000E-01  8.50000000E-01
  8.50000000E-01  8.50000000E-01  8.50000000E-01  8.50000000E-01  8.50000000E-01
  8.50000000E-01  8.50000000E-01  8.50000000E-01  8.50000000E-01  8.50000000E-01
  8.50000000E-01  8.50000000E-01  8.50000000E-01  8.50000000E-01  8.50000000E-01
  8.50000000E-01  8.50000000E-01  8.50000000E-01  8.50000000E-01  8.50000000E-01
  8.50000000E-01  8.50000000E-01  8.50000000E-01  8.50000000E-01  8.50000000E-01
  8.50000000E-01  8.50000000E-01  8.50000000E-01  8.50000000E-01  8.50000000E-01
  8.50000000E-01  8.50000000E-01  8.50000000E-01  8.50000000E-01  8.50000000E-01
  8.50000000E-01  8.50000000E-01  8.50000000E-01  8.50000000E-01  8.50000000E-01
  8.50000000E-01  8.50000000E-01  8.50000000E-01  8.50000000E-01  8.50000000E-01
  8.50000000E-01  8.50000000E-01  8.50000000E-01  8.50000000E-01  8.50000000E-01
  8.50000000E-01  8.50000000E-01  8.50000000E-01  8.50000000E-01  8.50000000E-01
  8.50000000E-01  8.50000000E-01  8.50000000E-01  8.50000000E-01  8.50000000E-01
  8.50000000E-01  8.50000000E-01  8.50000000E-01  8.50000000E-01  8.50000000E-01
  8.50000000E-01  8.50000000E-01  8.50000000E-01  8.50000000E-01  8.50000000E-01
  8.50000000E-01  8.50000000E-01  8.50000000E-01  8.50000000E-01  8.50000000E-01
  8.50000000E-01  8.50000000E-01  8.50000000E-01  8.50000000E-01  8.50000000E-01
  8.50000000E-01  8.50000000E-01  8.50000000E-01  8.50000000E-01  8.50000000E-01
  8.50000000E-01  8.50000000E-01  8.50000000E-01  8.50000000E-01  8.50000000E-01
  8.50000000E-01  8.50000000E-01  8.50000000E-01  8.50000000E-01  8.50000000E-01
  8.50000000E-01  8.50000000E-01  8.50000000E-01  8.50000000E-01  8.50000000E-01
  8.50000000E-01  8.50000000E-01  8.50000000E-01  8.50000000E-01  8.50000000E-01
  8.50000000E-01  8.50000000E-01  8.50000000E-01  8.50000000E-01  8.50000000E-01
  8.50000000E-01  8.50000000E-01  8.50000000E-01  8.50000000E-01  8.50000000E-01
  8.50000000E-01  8.50000000E-01  8.50000000E-01  8.50000000E-01  8.50000000E-01
  8.50000000E-01  8.50000000E-01  8.50000000E-01  8.50000000E-01  8.50000000E-01
  8.50000000E-01  8.50000000E-01  8.50000000E-01  8.50000000E-01  8.50000000E-01
  8.50000000E-01  8.50000000E-01  8.50000000E-01  8.50000000E-01  8.50000000E-01
  8.50000000E-01  8.50000000E-01  8.50000000E-01  8.50000000E-01  8.50000000E-01
  8.50000000E-01  8.50000000E-01  8.50000000E-01  8.50000000E-01  8.50000000E-01
  8.50000000E-01  8.50000000E-01  8.50000000E-01  8.50000000E-01  8.50000000E-01
  8.50000000E-01  8.50000000E-01  8.50000000E-01  8.50000000E-01  8.50000000E-01
  8.50000000E-01  8.50000000E-01  8.50000000E-01  8.50000000E-01  8.50000000E-01
  8.50000000E-01  8.50000000E-01  8.50000000E-01  8.50000000E-01  8.50000000E-01
  8.50000000E-01  8.50000000E-01  8.50000000E-01  8.50000000E-01  8.50000000E-01
  8.50000000E-01  8.50000000E-01  8.50000000E-01  8.50000000E-01  8.50000000E-01
  8.50000000E-01  8.50000000E-01  8.50000000E-01  8.50000000E-01  8.50000000E-01
  8.50000000E-01  8.50000000E-01  8.50000000E-01  8.50000000E-01  8.50000000E-01
  8.50000000E-01  8.50000000E-01  8.50000000E-01  8.50000000E-01  8.50000000E-01
  8.50000000E-01  8.50000000E-01  8.50000000E-01  8.50000000E-01  8.50000000E-01
  8.50000000E-01  8.50000000E-01  8.50000000E-01  8.50000000E-01  8.50000000E-01
  8.50000000E-01  8.50000000E-01  8.50000000E-01  8.50000000E-01  8.50000000E-01
  8.50000000E-01  8.50000000E-01  8.50000000E-01  8.50000000E-01  8.50000000E-01
  8.50000000E-01  8.50000000E-01  8.50000000E-01  8.50000000E-01  8.50000000E-01
  8.50000000E-01  8.50000000E-01  8.50000000E-01  8.50000000E-01  8.50000000E-01
  8.50000000E-01  8.50000000E-01  8.50000000E-01  8.50000000E-01  8.50000000E-01
  8.50000000E-01  8.50000000E-01  8.50000000E-01  8.50000000E-01  8.50000000E-01
  8.50000000E-01  8.50000000E-01  8.50000000E-01  8.50000000E-01  8.50000000E-01
  8.50000000E-01  8.50000000E-01  8.50000000E-01  8.50000000E-01  8.50000000E-01
  8.50000000E-01  8.50000000E-01  8.50000000E-01  8.50000000E-01  8.50000000E-01
  8.50000000E-01  8.50000000E-01  8.50000000E-01  8.50000000E-01  8.50000000E-01
  8.50000000E-01  8.50000000E-01  8.50000000E-01  8.50000000E-01  8.50000000E-01
  8.50000000E-01  8.50000000E-01  8.50000000E-01  8.50000000E-01  8.50000000E-01
  8.50000000E-01  8.50000000E-01  8.50000000E-01  8.50000000E-01  8.50000000E-01
  8.50000000E-01  8.50000000E-01  8.50000000E-01  8.50000000E-01  8.50000000E-01
  8.50000000E-01  8.50000000E-01  8.50000000E-01  8.50000000E-01  8.50000000E-01
  8.50000000E-01  8.50000000E-01  8.50000000E-01  8.50000000E-01  8.50000000E-01
  8.50000000E-01  8.50000000E-01  8.50000000E-01  8.50000000E-01  8.50000000E-01
  8.50000000E-01  8.50000000E-01  8.50000000E-01  8.50000000E-01  8.50000000E-01
  8.50000000E-01  8.50000000E-01  8.50000000E-01  8.50000000E-01  8.50000000E-01
  8.50000000E-01  8.50000000E-01  8.50000000E-01  8.50000000E-01  8.50000000E-01
  8.50000000E-01  8.50000000E-01  8.50000000E-01  8.50000000E-01  8.50000000E-01
  8.50000000E-01  8.50000000E-01  8.50000000E-01  8.50000000E-01  8.50000000E-01
  8.50000000E-01  8.50000000E-01  8.50000000E-01  8.50000000E-01  8.50000000E-01
  8.50000000E-01  8.50000000E-01  8.50000000E-01  8.50000000E-01  8.50000000E-01
  8.50000000E-01  8.50000000E-01  8.50000000E-01  8.50000000E-01  8.50000000E-01
  8.50000000E-01  8.50000000E-01  8.50000000E-01  8.50000000E-01  8.50000000E-01
  8.50000000E-01  8.50000000E-01  8.50000000E-01  8.50000000E-01  8.50000000E-01
  8.50000000E-01  8.50000000E-01  8.50000000E-01  8.50000000E-01  8.50000000E-01
  8.50000000E-01  8.50000000E-01  8.50000000E-01  8.50000000E-01  8.50000000E-01
  8.50000000E-01  8.50000000E-01  8.50000000E-01  8.50000000E-01  8.50000000E-01
  8.50000000E-01  8.50000000E-01  8.50000000E-01  8.50000000E-01  8.50000000E-01
  8.50000000E-01  8.50000000E-01  8.50000000E-01  8.50000000E-01  8.50000000E-01
  8.50000000E-01  8.50000000E-01  8.50000000E-01  8.50000000E-01  8.50000000E-01
  8.50000000E-01  8.50000000E-01  8.50000000E-01  8.50000000E-01  8.50000000E-01
  8.50000000E-01  8.50000000E-01  8.50000000E-01  8.50000000E-01  8.50000000E-01
  8.50000000E-01  8.50000000E-01  8.50000000E-01  8.50000000E-01  8.50000000E-01
  8.50000000E-01  8.50000000E-01  8.50000000E-01  8.50000000E-01  8.50000000E-01
  8.50000000E-01  8.50000000E-01  8.50000000E-01  8.50000000E-01  8.50000000E-01
  8.50000000E-01  8.50000000E-01  8.50000000E-01  8.50000000E-01  8.50000000E-01
  8.50000000E-01  8.50000000E-01  8.50000000E-01  8.50000000E-01  8.50000000E-01
  8.50000000E-01  8.50000000E-01  8.50000000E-01  8.50000000E-01  8.50000000E-01
  8.50000000E-01  8.50000000E-01  8.50000000E-01  8.50000000E-01  8.50000000E-01
  8.50000000E-01  8.50000000E-01  8.50000000E-01  8.50000000E-01  8.50000000E-01
  8.50000000E-01  8.50000000E-01  8.50000000E-01  8.50000000E-01  8.50000000E-01
  8.50000000E-01  8.50000000E-01  8.50000000E-01  8.50000000E-01  8.50000000E-01
  8.50000000E-01  8.50000000E-01  8.50000000E-01  8.50000000E-01  8.50000000E-01
  8.50000000E-01  8.50000000E-01  8.50000000E-01  8.50000000E-01  8.50000000E-01
  8.50000000E-01  8.50000000E-01  8.50000000E-01  8.50000000E-01  8.50000000E-01
  8.50000000E-01  8.50000000E-01  8.50000000E-01  8.50000000E-01  8.50000000E-01
  8.50000000E-01  8.50000000E-01  8.50000000E-01  8.50000000E-01  8.50000000E-01
  8.50000000E-01  8.50000000E-01  8.50000000E-01  8.50000000E-01  8.50000000E-01
  8.50000000E-01  8.50000000E-01  8.50000000E-01  8.50000000E-01  8.50000000E-01
  8.50000000E-01  8.50000000E-01  8.50000000E-01  8.50000000E-01  8.50000000E-01
  8.50000000E-01  8.50000000E-01  8.50000000E-01  8.50000000E-01  8.50000000E-01
  8.50000000E-01  8.50000000E-01  8.50000000E-01  8.50000000E-01  8.50000000E-01
  8.50000000E-01  8.50000000E-01  8.50000000E-01  8.50000000E-01  8.50000000E-01
  8.50000000E-01  8.50000000E-01  8.50000000E-01  8.50000000E-01  8.50000000E-01
  8.50000000E-01  8.50000000E-01  8.50000000E-01  8.50000000E-01  8.50000000E-01
  8.50000000E-01  8.50000000E-01  8.50000000E-01  8.50000000E-01  8.50000000E-01
  8.50000000E-01  8.50000000E-01  8.50000000E-01  8.50000000E-01  8.50000000E-01
  8.50000000E-01  8.50000000E-01  8.50000000E-01  8.50000000E-01  8.50000000E-01
  8.50000000E-01  8.50000000E-01  8.50000000E-01  8.50000000E-01  8.50000000E-01
  8.50000000E-01  8.50000000E-01  8.50000000E-01  8.50000000E-01  8.50000000E-01
  8.50000000E-01  8.50000000E-01  8.50000000E-01  8.50000000E-01  8.50000000E-01
  8.50000000E-01  8.50000000E-01  8.50000000E-01  8.50000000E-01  8.50000000E-01
  8.50000000E-01  8.50000000E-01  8.50000000E-01  8.50000000E-01  8.50000000E-01
  8.50000000E-01  8.50000000E-01  8.50000000E-01  8.50000000E-01  8.50000000E-01
  8.50000000E-01  8.50000000E-01  8.50000000E-01  8.50000000E-01  8.50000000E-01
  8.50000000E-01  8.50000000E-01  8.50000000E-01  8.50000000E-01  8.50000000E-01
  8.50000000E-01  8.50000000E-01  8.50000000E-01  8.50000000E-01  8.50000000E-01
  8.50000000E-01  8.50000000E-01  8.50000000E-01  8.50000000E-01  8.50000000E-01
  8.50000000E-01  8.50000000E-01  8.50000000E-01  8.50000000E-01  8.50000000E-01
  8.50000000E-01  8.50000000E-01  8.50000000E-01  8.50000000E-01  8.50000000E-01
  8.50000000E-01  8.50000000E-01  8.50000000E-01  8.50000000E-01  8.50000000E-01
  8.50000000E-01  8.50000000E-01  8.50000000E-01  8.50000000E-01  8.50000000E-01
  8.50000000E-01  8.50000000E-01  8.50000000E-01  8.50000000E-01  8.50000000E-01
  8.50000000E-01  8.50000000E-01  8.50000000E-01  8.50000000E-01  8.50000000E-01
  8.50000000E-01  8.50000000E-01  8.50000000E-01  8.50000000E-01  8.50000000E-01
  8.50000000E-01  8.50000000E-01  8.50000000E-01  8.50000000E-01  8.50000000E-01
  8.50000000E-01  8.50000000E-01  8.50000000E-01  8.50000000E-01  8.50000000E-01
  8.50000000E-01  8.50000000E-01  8.50000000E-01  8.50000000E-01  8.50000000E-01
  8.50000000E-01  8.50000000E-01  8.50000000E-01  8.50000000E-01  8.50000000E-01
  8.50000000E-01  8.50000000E-01  8.50000000E-01  8.50000000E-01  8.50000000E-01
  8.50000000E-01  8.50000000E-01  8.50000000E-01  8.50000000E-01  8.50000000E-01
  8.50000000E-01  8.50000000E-01  8.50000000E-01  8.50000000E-01  8.50000000E-01
  8.50000000E-01  8.50000000E-01  8.50000000E-01  8.50000000E-01  8.50000000E-01
  8.50000000E-01  8.50000000E-01  8.50000000E-01  8.50000000E-01  8.50000000E-01
  8.50000000E-01  8.50000000E-01  8.50000000E-01  8.50000000E-01  8.50000000E-01
  8.50000000E-01  8.50000000E-01  8.50000000E-01  8.50000000E-01  8.50000000E-01
  8.50000000E-01  8.50000000E-01  8.50000000E-01  8.50000000E-01  8.50000000E-01
  8.50000000E-01  8.50000000E-01  8.50000000E-01  8.50000000E-01  8.50000000E-01
  8.50000000E-01  8.50000000E-01  8.50000000E-01  8.50000000E-01  8.50000000E-01
  8.50000000E-01  8.50000000E-01  8.50000000E-01  8.50000000E-01  8.50000000E-01
  8.50000000E-01  8.50000000E-01  8.50000000E-01  8.50000000E-01  8.50000000E-01
  8.50000000E-01  8.50000000E-01  8.50000000E-01  8.50000000E-01  8.50000000E-01
  8.50000000E-01  8.50000000E-01  8.50000000E-01  8.50000000E-01  8.50000000E-01
  8.50000000E-01  8.50000000E-01  8.50000000E-01  8.50000000E-01  8.50000000E-01
  8.50000000E-01  8.50000000E-01  8.50000000E-01  8.50000000E-01  8.50000000E-01
  8.50000000E-01  8.50000000E-01  8.50000000E-01  8.50000000E-01  8.50000000E-01
  8.50000000E-01  8.50000000E-01  8.50000000E-01  8.50000000E-01  8.50000000E-01
  8.50000000E-01  8.50000000E-01  8.50000000E-01  8.50000000E-01  8.50000000E-01
  8.50000000E-01  8.50000000E-01  8.50000000E-01  8.50000000E-01  8.50000000E-01
  8.50000000E-01  8.50000000E-01  8.50000000E-01  8.50000000E-01  8.50000000E-01
  8.50000000E-01  8.50000000E-01  8.50000000E-01  8.50000000E-01  8.50000000E-01
  8.50000000E-01  8.50000000E-01  8.50000000E-01  8.50000000E-01  8.50000000E-01
  8.50000000E-01  8.50000000E-01  8.50000000E-01  8.50000000E-01  8.50000000E-01
  8.50000000E-01  8.50000000E-01  8.50000000E-01  8.50000000E-01  8.50000000E-01
  8.50000000E-01  8.50000000E-01  8.50000000E-01  8.50000000E-01  8.50000000E-01
  8.50000000E-01  8.50000000E-01  8.50000000E-01  8.50000000E-01  8.50000000E-01
  8.50000000E-01  8.50000000E-01  8.50000000E-01  8.50000000E-01  8.50000000E-01
  8.50000000E-01  8.50000000E-01  8.50000000E-01  8.50000000E-01  8.50000000E-01
  8.50000000E-01  8.50000000E-01  8.50000000E-01  8.50000000E-01  8.50000000E-01
  8.50000000E-01  8.50000000E-01  8.50000000E-01  8.50000000E-01  8.50000000E-01
  8.50000000E-01  8.50000000E-01  8.50000000E-01  8.50000000E-01  8.50000000E-01
  8.50000000E-01  8.50000000E-01  8.50000000E-01  8.50000000E-01  8.50000000E-01
  8.50000000E-01  8.50000000E-01  8.50000000E-01  8.50000000E-01  8.50000000E-01
  8.50000000E-01  8.50000000E-01  8.50000000E-01  8.50000000E-01  8.50000000E-01
  8.50000000E-01  8.50000000E-01  8.50000000E-01  8.50000000E-01  8.50000000E-01
  8.50000000E-01  8.50000000E-01  8.50000000E-01  8.50000000E-01  8.50000000E-01
  8.50000000E-01  8.50000000E-01  8.50000000E-01  8.50000000E-01  8.50000000E-01
  8.50000000E-01  8.50000000E-01  8.50000000E-01  8.50000000E-01  8.50000000E-01
  8.50000000E-01  8.50000000E-01  8.50000000E-01  8.50000000E-01  8.50000000E-01
  8.50000000E-01  8.50000000E-01  8.50000000E-01  8.50000000E-01  8.50000000E-01
  8.50000000E-01  8.50000000E-01  8.50000000E-01  8.50000000E-01  8.50000000E-01
  8.50000000E-01  8.50000000E-01  8.50000000E-01  8.50000000E-01  8.50000000E-01
  8.50000000E-01  8.50000000E-01  8.50000000E-01  8.50000000E-01  8.50000000E-01
  8.50000000E-01  8.50000000E-01  8.50000000E-01  8.50000000E-01  8.50000000E-01
  8.50000000E-01  8.50000000E-01  8.50000000E-01  8.50000000E-01  8.50000000E-01
  8.50000000E-01  8.50000000E-01  8.50000000E-01  8.50000000E-01  8.50000000E-01
  8.50000000E-01  8.50000000E-01  8.50000000E-01  8.50000000E-01  8.50000000E-01
  8.50000000E-01  8.50000000E-01  8.50000000E-01  8.50000000E-01  8.50000000E-01
  8.50000000E-01  8.50000000E-01  8.50000000E-01  8.50000000E-01  8.50000000E-01
  8.50000000E-01  8.50000000E-01  8.50000000E-01  8.50000000E-01  8.50000000E-01
  8.50000000E-01  8.50000000E-01  8.50000000E-01  8.50000000E-01  8.50000000E-01
  8.50000000E-01  8.50000000E-01  8.50000000E-01  8.50000000E-01  8.50000000E-01
  8.50000000E-01  8.50000000E-01  8.50000000E-01  8.50000000E-01  8.50000000E-01
  8.50000000E-01  8.50000000E-01  8.50000000E-01  8.50000000E-01  8.50000000E-01
  8.50000000E-01  8.50000000E-01  8.50000000E-01  8.50000000E-01  8.50000000E-01
  8.50000000E-01  8.50000000E-01  8.50000000E-01  8.50000000E-01  8.50000000E-01
  8.50000000E-01  8.50000000E-01  8.50000000E-01  8.50000000E-01  8.50000000E-01
  8.50000000E-01  8.50000000E-01  8.50000000E-01  8.50000000E-01  8.50000000E-01
  8.50000000E-01  8.50000000E-01  8.50000000E-01  8.50000000E-01  8.50000000E-01
  8.50000000E-01  8.50000000E-01  8.50000000E-01  8.50000000E-01  8.50000000E-01
  8.50000000E-01  8.50000000E-01  8.50000000E-01  8.50000000E-01  8.50000000E-01
  8.50000000E-01  8.50000000E-01  8.50000000E-01  8.50000000E-01  8.50000000E-01
  8.50000000E-01  8.50000000E-01  8.50000000E-01  8.50000000E-01  8.50000000E-01
  8.50000000E-01  8.50000000E-01  8.50000000E-01  8.50000000E-01  8.50000000E-01
  8.50000000E-01  8.50000000E-01  8.50000000E-01  8.50000000E-01  8.50000000E-01
  8.50000000E-01  8.50000000E-01  8.50000000E-01  8.50000000E-01  8.50000000E-01
  8.50000000E-01  8.50000000E-01  8.50000000E-01  8.50000000E-01  8.50000000E-01
  8.50000000E-01  8.50000000E-01  8.50000000E-01  8.50000000E-01  8.50000000E-01
  8.50000000E-01  8.50000000E-01  8.50000000E-01  8.50000000E-01  8.50000000E-01
  8.50000000E-01  8.50000000E-01  8.50000000E-01  8.50000000E-01  8.50000000E-01
  8.50000000E-01  8.50000000E-01  8.50000000E-01  8.50000000E-01  8.50000000E-01
  8.50000000E-01  8.50000000E-01  8.50000000E-01  8.50000000E-01  8.50000000E-01
  8.50000000E-01  8.50000000E-01  8.50000000E-01  8.50000000E-01  8.50000000E-01
  8.50000000E-01  8.50000000E-01  8.50000000E-01  8.50000000E-01  8.50000000E-01
  8.50000000E-01  8.50000000E-01  8.50000000E-01  8.50000000E-01  8.50000000E-01
  8.50000000E-01  8.50000000E-01  8.50000000E-01  8.50000000E-01  8.50000000E-01
  8.50000000E-01  8.50000000E-01  8.50000000E-01  8.50000000E-01  8.50000000E-01
  8.50000000E-01  8.50000000E-01  8.50000000E-01  8.50000000E-01  8.50000000E-01
  8.50000000E-01  8.50000000E-01  8.50000000E-01  8.50000000E-01  8.50000000E-01
  8.50000000E-01  8.50000000E-01  8.50000000E-01  8.50000000E-01  8.50000000E-01
  8.50000000E-01  8.50000000E-01  8.50000000E-01  8.50000000E-01  8.50000000E-01
  8.50000000E-01  8.50000000E-01  8.50000000E-01  8.50000000E-01  8.50000000E-01
  8.50000000E-01  8.50000000E-01  8.50000000E-01  8.50000000E-01  8.50000000E-01
  8.50000000E-01  8.50000000E-01  8.50000000E-01  8.50000000E-01  8.50000000E-01
  8.50000000E-01  8.50000000E-01  8.50000000E-01  8.50000000E-01  8.50000000E-01
  8.50000000E-01  8.50000000E-01  8.50000000E-01  8.50000000E-01  8.50000000E-01
  8.50000000E-01  8.50000000E-01  8.50000000E-01  8.50000000E-01  8.50000000E-01
  8.50000000E-01  8.50000000E-01  8.50000000E-01  8.50000000E-01  8.50000000E-01
  8.50000000E-01  8.50000000E-01  8.50000000E-01  8.50000000E-01  8.50000000E-01
  8.50000000E-01  8.50000000E-01  8.50000000E-01  8.50000000E-01  8.50000000E-01
  8.50000000E-01  8.50000000E-01  8.50000000E-01  8.50000000E-01  8.50000000E-01
  8.50000000E-01  8.50000000E-01  8.50000000E-01  8.50000000E-01  8.50000000E-01
  8.50000000E-01  8.50000000E-01  8.50000000E-01  8.50000000E-01  8.50000000E-01
  8.50000000E-01  8.50000000E-01  8.50000000E-01  8.50000000E-01  8.50000000E-01
  8.50000000E-01  8.50000000E-01  8.50000000E-01  8.50000000E-01  8.50000000E-01
  8.50000000E-01  8.50000000E-01  8.50000000E-01  8.50000000E-01  8.50000000E-01
  8.50000000E-01  8.50000000E-01  8.50000000E-01  8.50000000E-01  8.50000000E-01
  8.50000000E-01  8.50000000E-01  8.50000000E-01  8.50000000E-01  8.50000000E-01
  8.50000000E-01  8.50000000E-01  8.50000000E-01  8.50000000E-01  8.50000000E-01
  8.50000000E-01  8.50000000E-01  8.50000000E-01  8.50000000E-01  8.50000000E-01
  8.50000000E-01  8.50000000E-01  8.50000000E-01  8.50000000E-01  8.50000000E-01
  8.50000000E-01  8.50000000E-01  8.50000000E-01  8.50000000E-01  8.50000000E-01
  8.50000000E-01  8.50000000E-01  8.50000000E-01  8.50000000E-01  8.50000000E-01
  8.50000000E-01  8.50000000E-01  8.50000000E-01  8.50000000E-01  8.50000000E-01
  8.50000000E-01  8.50000000E-01  8.50000000E-01  8.50000000E-01  8.50000000E-01
  8.50000000E-01  8.50000000E-01  8.50000000E-01  8.50000000E-01  8.50000000E-01
  8.50000000E-01  8.50000000E-01  8.50000000E-01  8.50000000E-01  8.50000000E-01
  8.50000000E-01  8.50000000E-01  8.50000000E-01  8.50000000E-01  8.50000000E-01
  8.50000000E-01  8.50000000E-01  8.50000000E-01  8.50000000E-01  8.50000000E-01
  8.50000000E-01  8.50000000E-01  8.50000000E-01  8.50000000E-01  8.50000000E-01
  8.50000000E-01  8.50000000E-01  8.50000000E-01  8.50000000E-01  8.50000000E-01
  8.50000000E-01  8.50000000E-01  8.50000000E-01  8.50000000E-01  8.50000000E-01
  8.50000000E-01  8.50000000E-01  8.50000000E-01  8.50000000E-01  8.50000000E-01
  8.50000000E-01  8.50000000E-01  8.50000000E-01  8.50000000E-01  8.50000000E-01
  8.50000000E-01  8.50000000E-01  8.50000000E-01  8.50000000E-01  8.50000000E-01
  8.50000000E-01  8.50000000E-01  8.50000000E-01  8.50000000E-01  8.50000000E-01
  8.50000000E-01  8.50000000E-01  8.50000000E-01  8.50000000E-01  8.50000000E-01
  8.50000000E-01  8.50000000E-01  8.50000000E-01  8.50000000E-01  8.50000000E-01
  8.50000000E-01  8.50000000E-01  8.50000000E-01  8.50000000E-01  8.50000000E-01
  8.50000000E-01  8.50000000E-01  8.50000000E-01  8.50000000E-01  8.50000000E-01
  8.50000000E-01  8.50000000E-01  8.50000000E-01  8.50000000E-01  8.50000000E-01
  8.50000000E-01  8.50000000E-01  8.50000000E-01  8.50000000E-01  8.50000000E-01
  8.50000000E-01  8.50000000E-01  8.50000000E-01  8.50000000E-01  8.50000000E-01
  8.50000000E-01  8.50000000E-01  8.50000000E-01  8.50000000E-01  8.50000000E-01
  8.50000000E-01  8.50000000E-01  8.50000000E-01  8.50000000E-01  8.50000000E-01
  8.50000000E-01  8.50000000E-01  8.50000000E-01  8.50000000E-01  8.50000000E-01
  8.50000000E-01  8.50000000E-01  8.50000000E-01  8.50000000E-01  8.50000000E-01
  8.50000000E-01  8.50000000E-01  8.50000000E-01  8.50000000E-01  8.50000000E-01
  8.50000000E-01  8.50000000E-01  8.50000000E-01  8.50000000E-01  8.50000000E-01
  8.50000000E-01  8.50000000E-01  8.50000000E-01  8.50000000E-01  8.50000000E-01
  8.50000000E-01  8.50000000E-01  8.50000000E-01  8.50000000E-01  8.50000000E-01
  8.50000000E-01  8.50000000E-01  8.50000000E-01  8.50000000E-01  8.50000000E-01
  8.50000000E-01  8.50000000E-01  8.50000000E-01  8.50000000E-01  8.50000000E-01
  8.50000000E-01  8.50000000E-01  8.50000000E-01  8.50000000E-01  8.50000000E-01
  8.50000000E-01  8.50000000E-01  8.50000000E-01  8.50000000E-01  8.50000000E-01
  8.50000000E-01  8.50000000E-01  8.50000000E-01  8.50000000E-01  8.50000000E-01
  8.50000000E-01  8.50000000E-01  8.50000000E-01  8.50000000E-01  8.50000000E-01
  8.50000000E-01  8.50000000E-01  8.50000000E-01  8.50000000E-01  8.50000000E-01
  8.50000000E-01  8.50000000E-01  8.50000000E-01  8.50000000E-01  8.50000000E-01
  8.50000000E-01  8.50000000E-01  8.50000000E-01  8.50000000E-01  8.50000000E-01
  8.50000000E-01  8.50000000E-01  8.50000000E-01  8.50000000E-01  8.50000000E-01
  8.50000000E-01  8.50000000E-01  8.50000000E-01  8.50000000E-01  8.50000000E-01
  8.50000000E-01  8.50000000E-01  8.50000000E-01  8.50000000E-01  8.50000000E-01
  8.50000000E-01  8.50000000E-01  8.50000000E-01  8.50000000E-01  8.50000000E-01
  8.50000000E-01  8.50000000E-01  8.50000000E-01  8.50000000E-01  8.50000000E-01
  8.50000000E-01  8.50000000E-01  8.50000000E-01  8.50000000E-01  8.50000000E-01
  8.50000000E-01  8.50000000E-01  8.50000000E-01  8.50000000E-01  8.50000000E-01
  8.50000000E-01  8.50000000E-01  8.50000000E-01  8.50000000E-01  8.50000000E-01
  8.50000000E-01  8.50000000E-01  8.50000000E-01  8.50000000E-01  8.50000000E-01
  8.50000000E-01  8.50000000E-01  8.50000000E-01  8.50000000E-01  8.50000000E-01
  8.50000000E-01  8.50000000E-01  8.50000000E-01  8.50000000E-01  8.50000000E-01
  8.50000000E-01  8.50000000E-01  8.50000000E-01  8.50000000E-01  8.50000000E-01
  8.50000000E-01  8.50000000E-01  8.50000000E-01  8.50000000E-01  8.50000000E-01
  8.50000000E-01  8.50000000E-01  8.50000000E-01  8.50000000E-01  8.50000000E-01
  8.50000000E-01  8.50000000E-01  8.50000000E-01  8.50000000E-01  8.50000000E-01
  8.50000000E-01  8.50000000E-01  8.50000000E-01  8.50000000E-01  8.50000000E-01
  8.50000000E-01  8.50000000E-01  8.50000000E-01  8.50000000E-01  8.50000000E-01
  8.50000000E-01  8.50000000E-01  8.50000000E-01  8.50000000E-01  8.50000000E-01
  8.50000000E-01  8.50000000E-01  8.50000000E-01  8.50000000E-01  8.50000000E-01
  8.50000000E-01  8.50000000E-01  8.50000000E-01  8.50000000E-01  8.50000000E-01
  8.50000000E-01  8.50000000E-01  8.50000000E-01  8.50000000E-01  8.50000000E-01
  8.50000000E-01  8.50000000E-01  8.50000000E-01  8.50000000E-01  8.50000000E-01
  8.50000000E-01  8.50000000E-01  8.50000000E-01  8.50000000E-01  8.50000000E-01
  8.50000000E-01  8.50000000E-01  8.50000000E-01  8.50000000E-01  8.50000000E-01
  8.50000000E-01  8.50000000E-01  8.50000000E-01  8.50000000E-01  8.50000000E-01
  8.50000000E-01  8.50000000E-01  8.50000000E-01  8.50000000E-01  8.50000000E-01
  8.50000000E-01  8.50000000E-01  8.50000000E-01  8.50000000E-01  8.50000000E-01
  8.50000000E-01  8.50000000E-01  8.50000000E-01  8.50000000E-01  8.50000000E-01
  8.50000000E-01  8.50000000E-01  8.50000000E-01  8.50000000E-01  8.50000000E-01
  8.50000000E-01  8.50000000E-01  8.50000000E-01  8.50000000E-01  8.50000000E-01
  8.50000000E-01  8.50000000E-01  8.50000000E-01  8.50000000E-01  8.50000000E-01
  8.50000000E-01  8.50000000E-01  8.50000000E-01  8.50000000E-01  8.50000000E-01
  8.50000000E-01  8.50000000E-01  8.50000000E-01  8.50000000E-01  8.50000000E-01
  8.50000000E-01  8.50000000E-01  8.50000000E-01  8.50000000E-01  8.50000000E-01
  8.50000000E-01  8.50000000E-01  8.50000000E-01  8.50000000E-01  8.50000000E-01
  8.50000000E-01  8.50000000E-01  8.50000000E-01  8.50000000E-01  8.50000000E-01
  8.50000000E-01  8.50000000E-01  8.50000000E-01  8.50000000E-01  8.50000000E-01
  8.50000000E-01  8.50000000E-01  8.50000000E-01  8.50000000E-01  8.50000000E-01
  8.50000000E-01  8.50000000E-01  8.50000000E-01  8.50000000E-01  8.50000000E-01
  8.50000000E-01  8.50000000E-01  8.50000000E-01  8.50000000E-01  8.50000000E-01
  8.50000000E-01  8.50000000E-01  8.50000000E-01  8.50000000E-01  8.50000000E-01
  8.50000000E-01  8.50000000E-01  8.50000000E-01  8.50000000E-01  8.50000000E-01
  8.50000000E-01  8.50000000E-01  8.50000000E-01  8.50000000E-01  8.50000000E-01
  8.50000000E-01  8.50000000E-01  8.50000000E-01  8.50000000E-01  8.50000000E-01
  8.50000000E-01  8.50000000E-01  8.50000000E-01  8.50000000E-01  8.50000000E-01
  8.50000000E-01  8.50000000E-01  8.50000000E-01  8.50000000E-01  8.50000000E-01
  8.50000000E-01  8.50000000E-01  8.50000000E-01  8.50000000E-01  8.50000000E-01
  8.50000000E-01  8.50000000E-01  8.50000000E-01  8.50000000E-01  8.50000000E-01
  8.50000000E-01  8.50000000E-01  8.50000000E-01  8.50000000E-01  8.50000000E-01
  8.50000000E-01  8.50000000E-01  8.50000000E-01  8.50000000E-01  8.50000000E-01
  8.50000000E-01  8.50000000E-01  8.50000000E-01  8.50000000E-01  8.50000000E-01
  8.50000000E-01  8.50000000E-01  8.50000000E-01  8.50000000E-01  8.50000000E-01
  8.50000000E-01  8.50000000E-01  8.50000000E-01  8.50000000E-01  8.50000000E-01
  8.50000000E-01  8.50000000E-01  8.50000000E-01  8.50000000E-01  8.50000000E-01
  8.50000000E-01  8.50000000E-01  8.50000000E-01  8.50000000E-01  8.50000000E-01
  8.50000000E-01  8.50000000E-01  8.50000000E-01  8.50000000E-01  8.50000000E-01
  8.50000000E-01  8.50000000E-01  8.50000000E-01  8.50000000E-01  8.50000000E-01
  8.50000000E-01  8.50000000E-01  8.50000000E-01  8.50000000E-01  8.50000000E-01
  8.50000000E-01  8.50000000E-01  8.50000000E-01  8.50000000E-01  8.50000000E-01
  8.50000000E-01  8.50000000E-01  8.50000000E-01  8.50000000E-01  8.50000000E-01
  8.50000000E-01  8.50000000E-01  8.50000000E-01  8.50000000E-01  8.50000000E-01
  8.50000000E-01  8.50000000E-01  8.50000000E-01  8.50000000E-01  8.50000000E-01
  8.50000000E-01  8.50000000E-01  8.50000000E-01  8.50000000E-01  8.50000000E-01
  8.50000000E-01  8.50000000E-01  8.50000000E-01  8.50000000E-01  8.50000000E-01
  8.50000000E-01  8.50000000E-01  8.50000000E-01  8.50000000E-01  8.50000000E-01
  8.50000000E-01  8.50000000E-01  8.50000000E-01  8.50000000E-01  8.50000000E-01
  8.50000000E-01  8.50000000E-01  8.50000000E-01  8.50000000E-01  8.50000000E-01
  8.50000000E-01  8.50000000E-01  8.50000000E-01  8.50000000E-01  8.50000000E-01
  8.50000000E-01  8.50000000E-01  8.50000000E-01  8.50000000E-01  8.50000000E-01
  8.50000000E-01  8.50000000E-01  8.50000000E-01  8.50000000E-01  8.50000000E-01
  8.50000000E-01  8.50000000E-01  8.50000000E-01  8.50000000E-01  8.50000000E-01
  8.50000000E-01  8.50000000E-01  8.50000000E-01  8.50000000E-01  8.50000000E-01
  8.50000000E-01  8.50000000E-01  8.50000000E-01  8.50000000E-01  8.50000000E-01
  8.50000000E-01  8.50000000E-01  8.50000000E-01  8.50000000E-01  8.50000000E-01
  8.50000000E-01  8.50000000E-01  8.50000000E-01  8.50000000E-01  8.50000000E-01
  8.50000000E-01  8.50000000E-01  8.50000000E-01  8.50000000E-01  8.50000000E-01
  8.50000000E-01  8.50000000E-01  8.50000000E-01  8.50000000E-01  8.50000000E-01
  8.50000000E-01  8.50000000E-01  8.50000000E-01  8.50000000E-01  8.50000000E-01
  8.50000000E-01  8.50000000E-01  8.50000000E-01  8.50000000E-01  8.50000000E-01
  8.50000000E-01  8.50000000E-01  8.50000000E-01  8.50000000E-01  8.50000000E-01
  8.50000000E-01  8.50000000E-01  8.50000000E-01  8.50000000E-01  8.50000000E-01
  8.50000000E-01  8.50000000E-01  8.50000000E-01  8.50000000E-01  8.50000000E-01
  8.50000000E-01  8.50000000E-01  8.50000000E-01  8.50000000E-01  8.50000000E-01
  8.50000000E-01  8.50000000E-01  8.50000000E-01  8.50000000E-01  8.50000000E-01
  8.50000000E-01  8.50000000E-01  8.50000000E-01  8.50000000E-01  8.50000000E-01
  8.50000000E-01  8.50000000E-01  8.50000000E-01  8.50000000E-01  8.50000000E-01
  8.50000000E-01  8.50000000E-01  8.50000000E-01  8.50000000E-01  8.50000000E-01
  8.50000000E-01  8.50000000E-01  8.50000000E-01  8.50000000E-01  8.50000000E-01
  8.50000000E-01  8.50000000E-01  8.50000000E-01  8.50000000E-01  8.50000000E-01
  8.50000000E-01  8.50000000E-01  8.50000000E-01  8.50000000E-01  8.50000000E-01
  8.50000000E-01  8.50000000E-01  8.50000000E-01  8.50000000E-01  8.50000000E-01
  8.50000000E-01  8.50000000E-01  8.50000000E-01  8.50000000E-01  8.50000000E-01
  8.50000000E-01  8.50000000E-01  8.50000000E-01  8.50000000E-01  8.50000000E-01
  8.50000000E-01  8.50000000E-01  8.50000000E-01  8.50000000E-01  8.50000000E-01
  8.50000000E-01  8.50000000E-01  8.50000000E-01  8.50000000E-01  8.50000000E-01
  8.50000000E-01  8.50000000E-01  8.50000000E-01  8.50000000E-01  8.50000000E-01
  8.50000000E-01  8.50000000E-01  8.50000000E-01  8.50000000E-01  8.50000000E-01
  8.50000000E-01  8.50000000E-01  8.50000000E-01  8.50000000E-01  8.50000000E-01
  8.50000000E-01  8.50000000E-01  8.50000000E-01  8.50000000E-01  8.50000000E-01
  8.50000000E-01  8.50000000E-01  8.50000000E-01  8.50000000E-01  8.50000000E-01
  8.50000000E-01  8.50000000E-01  8.50000000E-01  8.50000000E-01  8.50000000E-01
  8.50000000E-01  8.50000000E-01  8.50000000E-01  8.50000000E-01  8.50000000E-01
  8.50000000E-01  8.50000000E-01  8.50000000E-01  8.50000000E-01  8.50000000E-01
  8.50000000E-01  8.50000000E-01  8.50000000E-01  8.50000000E-01  8.50000000E-01
  8.50000000E-01  8.50000000E-01  8.50000000E-01  8.50000000E-01  8.50000000E-01
  8.50000000E-01  8.50000000E-01  8.50000000E-01  8.50000000E-01  8.50000000E-01
  8.50000000E-01  8.50000000E-01  8.50000000E-01  8.50000000E-01  8.50000000E-01
  8.50000000E-01  8.50000000E-01  8.50000000E-01  8.50000000E-01  8.50000000E-01
  8.50000000E-01  8.50000000E-01  8.50000000E-01  8.50000000E-01  8.50000000E-01
  8.50000000E-01  8.50000000E-01  8.50000000E-01  8.50000000E-01  8.50000000E-01
  8.50000000E-01  8.50000000E-01  8.50000000E-01  8.50000000E-01  8.50000000E-01
  8.50000000E-01  8.50000000E-01  8.50000000E-01  8.50000000E-01  8.50000000E-01
  8.50000000E-01  8.50000000E-01  8.50000000E-01  8.50000000E-01  8.50000000E-01
  8.50000000E-01  8.50000000E-01  8.50000000E-01  8.50000000E-01  8.50000000E-01
  8.50000000E-01  8.50000000E-01  8.50000000E-01  8.50000000E-01  8.50000000E-01
  8.50000000E-01  8.50000000E-01  8.50000000E-01  8.50000000E-01  8.50000000E-01
  8.50000000E-01  8.50000000E-01  8.50000000E-01  8.50000000E-01  8.50000000E-01
  8.50000000E-01  8.50000000E-01  8.50000000E-01  8.50000000E-01  8.50000000E-01
  8.50000000E-01  8.50000000E-01  8.50000000E-01  8.50000000E-01  8.50000000E-01
  8.50000000E-01  8.50000000E-01  8.50000000E-01  8.50000000E-01  8.50000000E-01
  8.50000000E-01  8.50000000E-01  8.50000000E-01  8.50000000E-01  8.50000000E-01
  8.50000000E-01  8.50000000E-01  8.50000000E-01  8.50000000E-01  8.50000000E-01
  8.50000000E-01  8.50000000E-01  8.50000000E-01  8.50000000E-01  8.50000000E-01
  8.50000000E-01  8.50000000E-01  8.50000000E-01  8.50000000E-01  8.50000000E-01
  8.50000000E-01  8.50000000E-01  8.50000000E-01  8.50000000E-01  8.50000000E-01
  8.50000000E-01  8.50000000E-01  8.50000000E-01  8.50000000E-01  8.50000000E-01
  8.50000000E-01  8.50000000E-01  8.50000000E-01  8.50000000E-01  8.50000000E-01
  8.50000000E-01  8.50000000E-01  8.50000000E-01  8.50000000E-01  8.50000000E-01
  8.50000000E-01  8.50000000E-01  8.50000000E-01  8.50000000E-01  8.50000000E-01
  8.50000000E-01  8.50000000E-01  8.50000000E-01  8.50000000E-01  8.50000000E-01
  8.50000000E-01  8.50000000E-01  8.50000000E-01  8.50000000E-01  8.50000000E-01
  8.50000000E-01  8.50000000E-01  8.50000000E-01  8.50000000E-01  8.50000000E-01
  8.50000000E-01  8.50000000E-01  8.50000000E-01  8.50000000E-01  8.50000000E-01
  8.50000000E-01  8.50000000E-01  8.50000000E-01  8.50000000E-01  8.50000000E-01
  8.50000000E-01  8.50000000E-01  8.50000000E-01  8.50000000E-01  8.50000000E-01
  8.50000000E-01  8.50000000E-01  8.50000000E-01  8.50000000E-01  8.50000000E-01
  8.50000000E-01  8.50000000E-01  8.50000000E-01  8.50000000E-01  8.50000000E-01
  8.50000000E-01  8.50000000E-01  8.50000000E-01  8.50000000E-01  8.50000000E-01
  8.50000000E-01  8.50000000E-01  8.50000000E-01  8.50000000E-01  8.50000000E-01
  8.50000000E-01  8.50000000E-01  8.50000000E-01  8.50000000E-01  8.50000000E-01
  8.50000000E-01  8.50000000E-01  8.50000000E-01  8.50000000E-01  8.50000000E-01
  8.50000000E-01  8.50000000E-01  8.50000000E-01  8.50000000E-01  8.50000000E-01
  8.50000000E-01  8.50000000E-01  8.50000000E-01  8.50000000E-01  8.50000000E-01
  8.50000000E-01  8.50000000E-01  8.50000000E-01  8.50000000E-01  8.50000000E-01
  8.50000000E-01  8.50000000E-01  8.50000000E-01  8.50000000E-01  8.50000000E-01
  8.50000000E-01  8.50000000E-01  8.50000000E-01  8.50000000E-01  8.50000000E-01
  8.50000000E-01  8.50000000E-01  8.50000000E-01  8.50000000E-01  8.50000000E-01
  8.50000000E-01  8.50000000E-01  8.50000000E-01  8.50000000E-01  8.50000000E-01
  8.50000000E-01  8.50000000E-01  8.50000000E-01  8.50000000E-01  8.50000000E-01
  8.50000000E-01  8.50000000E-01  8.50000000E-01  8.50000000E-01  8.50000000E-01
  8.50000000E-01  8.50000000E-01  8.50000000E-01  8.50000000E-01  8.50000000E-01
  8.50000000E-01  8.50000000E-01  8.50000000E-01  8.50000000E-01  8.50000000E-01
  8.50000000E-01  8.50000000E-01  8.50000000E-01  8.50000000E-01  8.50000000E-01
  8.50000000E-01  8.50000000E-01  8.50000000E-01  8.50000000E-01  8.50000000E-01
  8.50000000E-01  8.50000000E-01  8.50000000E-01  8.50000000E-01  8.50000000E-01
  8.50000000E-01  8.50000000E-01  8.50000000E-01  8.50000000E-01  8.50000000E-01
  8.50000000E-01  8.50000000E-01  8.50000000E-01  8.50000000E-01  8.50000000E-01
  8.50000000E-01  8.50000000E-01  8.50000000E-01  8.50000000E-01  8.50000000E-01
  8.50000000E-01  8.50000000E-01  8.50000000E-01  8.50000000E-01  8.50000000E-01
  8.50000000E-01  8.50000000E-01  8.50000000E-01  8.50000000E-01  8.50000000E-01
  8.50000000E-01  8.50000000E-01  8.50000000E-01  8.50000000E-01  8.50000000E-01
  8.50000000E-01  8.50000000E-01  8.50000000E-01  8.50000000E-01  8.50000000E-01
  8.50000000E-01  8.50000000E-01  8.50000000E-01  8.50000000E-01  8.50000000E-01
  8.50000000E-01  8.50000000E-01  8.50000000E-01  8.50000000E-01  8.50000000E-01
  8.50000000E-01  8.50000000E-01  8.50000000E-01  8.50000000E-01  8.50000000E-01
  8.50000000E-01  8.50000000E-01  8.50000000E-01  8.50000000E-01  8.50000000E-01
  8.50000000E-01  8.50000000E-01  8.50000000E-01  8.50000000E-01  8.50000000E-01
  8.50000000E-01  8.50000000E-01  8.50000000E-01  8.50000000E-01  8.50000000E-01
  8.50000000E-01  8.50000000E-01  8.50000000E-01  8.50000000E-01  8.50000000E-01
  8.50000000E-01  8.50000000E-01  8.50000000E-01  8.50000000E-01  8.50000000E-01
  8.50000000E-01  8.50000000E-01  8.50000000E-01  8.50000000E-01  8.50000000E-01
  8.50000000E-01  8.50000000E-01  8.50000000E-01  8.50000000E-01  8.50000000E-01
  8.50000000E-01  8.50000000E-01  8.50000000E-01  8.50000000E-01  8.50000000E-01
  8.50000000E-01  8.50000000E-01  8.50000000E-01  8.50000000E-01  8.50000000E-01
  8.50000000E-01  8.50000000E-01  8.50000000E-01  8.50000000E-01  8.50000000E-01
  8.50000000E-01  8.50000000E-01  8.50000000E-01  8.50000000E-01  8.50000000E-01
  8.50000000E-01  8.50000000E-01  8.50000000E-01  8.50000000E-01  8.50000000E-01
  8.50000000E-01  8.50000000E-01  8.50000000E-01  8.50000000E-01  8.50000000E-01
  8.50000000E-01  8.50000000E-01  8.50000000E-01  8.50000000E-01  8.50000000E-01
  8.50000000E-01  8.50000000E-01  8.50000000E-01  8.50000000E-01  8.50000000E-01
  8.50000000E-01  8.50000000E-01  8.50000000E-01  8.50000000E-01  8.50000000E-01
  8.50000000E-01  8.50000000E-01  8.50000000E-01  8.50000000E-01  8.50000000E-01
  8.50000000E-01  8.50000000E-01  8.50000000E-01  8.50000000E-01  8.50000000E-01
  8.50000000E-01  8.50000000E-01  8.50000000E-01  8.50000000E-01  8.50000000E-01
  8.50000000E-01  8.50000000E-01  8.50000000E-01  8.50000000E-01  8.50000000E-01
  8.50000000E-01  8.50000000E-01  8.50000000E-01  8.50000000E-01  8.50000000E-01
  8.50000000E-01  8.50000000E-01  8.50000000E-01  8.50000000E-01  8.50000000E-01
  8.50000000E-01  8.50000000E-01  8.50000000E-01  8.50000000E-01  8.50000000E-01
  8.50000000E-01  8.50000000E-01  8.50000000E-01  8.50000000E-01  8.50000000E-01
  8.50000000E-01  8.50000000E-01  8.50000000E-01  8.50000000E-01  8.50000000E-01
  8.50000000E-01  8.50000000E-01  8.50000000E-01  8.50000000E-01  8.50000000E-01
  8.50000000E-01  8.50000000E-01  8.50000000E-01  8.50000000E-01  8.50000000E-01
  8.50000000E-01  8.50000000E-01  8.50000000E-01  8.50000000E-01  8.50000000E-01
  8.50000000E-01  8.50000000E-01  8.50000000E-01  8.50000000E-01  8.50000000E-01
  8.50000000E-01  8.50000000E-01  8.50000000E-01  8.50000000E-01  8.50000000E-01
  8.50000000E-01  8.50000000E-01  8.50000000E-01  8.50000000E-01  8.50000000E-01
  8.50000000E-01  8.50000000E-01  8.50000000E-01  8.50000000E-01  8.50000000E-01
  8.50000000E-01  8.50000000E-01  8.50000000E-01  8.50000000E-01  8.50000000E-01
  8.50000000E-01  8.50000000E-01  8.50000000E-01  8.50000000E-01  8.50000000E-01
  8.50000000E-01  8.50000000E-01  8.50000000E-01  8.50000000E-01  8.50000000E-01
  8.50000000E-01  8.50000000E-01  8.50000000E-01  8.50000000E-01  8.50000000E-01
  8.50000000E-01  8.50000000E-01  8.50000000E-01  8.50000000E-01  8.50000000E-01
  8.50000000E-01  8.50000000E-01  8.50000000E-01  8.50000000E-01  8.50000000E-01
  8.50000000E-01  8.50000000E-01  8.50000000E-01  8.50000000E-01  8.50000000E-01
  8.50000000E-01  8.50000000E-01  8.50000000E-01  8.50000000E-01  8.50000000E-01
  8.50000000E-01  8.50000000E-01  8.50000000E-01  8.50000000E-01  8.50000000E-01
  8.50000000E-01  8.50000000E-01  8.50000000E-01  8.50000000E-01  8.50000000E-01
  8.50000000E-01  8.50000000E-01  8.50000000E-01  8.50000000E-01  8.50000000E-01
  8.50000000E-01  8.50000000E-01  8.50000000E-01  8.50000000E-01  8.50000000E-01
  8.50000000E-01  8.50000000E-01  8.50000000E-01  8.50000000E-01  8.50000000E-01
  8.50000000E-01  8.50000000E-01  8.50000000E-01  8.50000000E-01  8.50000000E-01
  8.50000000E-01  8.50000000E-01  8.50000000E-01  8.50000000E-01  8.50000000E-01
  8.50000000E-01  8.50000000E-01  8.50000000E-01  8.50000000E-01  8.50000000E-01
  8.50000000E-01  8.50000000E-01  8.50000000E-01  8.50000000E-01  8.50000000E-01
  8.50000000E-01  8.50000000E-01  8.50000000E-01  8.50000000E-01  8.50000000E-01
  8.50000000E-01  8.50000000E-01  8.50000000E-01  8.50000000E-01  8.50000000E-01
  8.50000000E-01  8.50000000E-01  8.50000000E-01  8.50000000E-01  8.50000000E-01
  8.50000000E-01  8.50000000E-01  8.50000000E-01  8.50000000E-01  8.50000000E-01
  8.50000000E-01  8.50000000E-01  8.50000000E-01  8.50000000E-01  8.50000000E-01
  8.50000000E-01  8.50000000E-01  8.50000000E-01  8.50000000E-01  8.50000000E-01
  8.50000000E-01  8.50000000E-01  8.50000000E-01  8.50000000E-01  8.50000000E-01
  8.50000000E-01  8.50000000E-01  8.50000000E-01  8.50000000E-01  8.50000000E-01
  8.50000000E-01  8.50000000E-01  8.50000000E-01  8.50000000E-01  8.50000000E-01
  8.50000000E-01  8.50000000E-01  8.50000000E-01  8.50000000E-01  8.50000000E-01
  8.50000000E-01  8.50000000E-01  8.50000000E-01  8.50000000E-01  8.50000000E-01
  8.50000000E-01  8.50000000E-01  8.50000000E-01  8.50000000E-01  8.50000000E-01
  8.50000000E-01  8.50000000E-01  8.50000000E-01  8.50000000E-01  8.50000000E-01
  8.50000000E-01  8.50000000E-01  8.50000000E-01  8.50000000E-01  8.50000000E-01
  8.50000000E-01  8.50000000E-01  8.50000000E-01  8.50000000E-01  8.50000000E-01
  8.50000000E-01  8.50000000E-01  8.50000000E-01  8.50000000E-01  8.50000000E-01
  8.50000000E-01  8.50000000E-01  8.50000000E-01  8.50000000E-01  8.50000000E-01
  8.50000000E-01  8.50000000E-01  8.50000000E-01  8.50000000E-01  8.50000000E-01
  8.50000000E-01  8.50000000E-01  8.50000000E-01  8.50000000E-01  8.50000000E-01
  8.50000000E-01  8.50000000E-01  8.50000000E-01  8.50000000E-01  8.50000000E-01
  8.50000000E-01  8.50000000E-01  8.50000000E-01  8.50000000E-01  8.50000000E-01
  8.50000000E-01  8.50000000E-01  8.50000000E-01  8.50000000E-01  8.50000000E-01
  8.50000000E-01  8.50000000E-01  8.50000000E-01  8.50000000E-01  8.50000000E-01
  8.50000000E-01  8.50000000E-01  8.50000000E-01  8.50000000E-01  8.50000000E-01
  8.50000000E-01  8.50000000E-01  8.50000000E-01  8.50000000E-01  8.50000000E-01
  8.50000000E-01  8.50000000E-01  8.50000000E-01  8.50000000E-01  8.50000000E-01
  8.50000000E-01  8.50000000E-01  8.50000000E-01  8.50000000E-01  8.50000000E-01
  8.50000000E-01  8.50000000E-01  8.50000000E-01  8.50000000E-01  8.50000000E-01
  8.50000000E-01  8.50000000E-01  8.50000000E-01  8.50000000E-01  8.50000000E-01
  8.50000000E-01  8.50000000E-01  8.50000000E-01  8.50000000E-01  8.50000000E-01
  8.50000000E-01  8.50000000E-01  8.50000000E-01  8.50000000E-01  8.50000000E-01
  8.50000000E-01  8.50000000E-01  8.50000000E-01  8.50000000E-01  8.50000000E-01
  8.50000000E-01  8.50000000E-01  8.50000000E-01  8.50000000E-01  8.50000000E-01
  8.50000000E-01  8.50000000E-01  8.50000000E-01  8.50000000E-01  8.50000000E-01
  8.50000000E-01  8.50000000E-01  8.50000000E-01  8.50000000E-01  8.50000000E-01
  8.50000000E-01  8.50000000E-01  8.50000000E-01  8.50000000E-01  8.50000000E-01
  8.50000000E-01  8.50000000E-01  8.50000000E-01  8.50000000E-01  8.50000000E-01
  8.50000000E-01  8.50000000E-01  8.50000000E-01  8.50000000E-01  8.50000000E-01
  8.50000000E-01  8.50000000E-01  8.50000000E-01  8.50000000E-01  8.50000000E-01
  8.50000000E-01  8.50000000E-01  8.50000000E-01  8.50000000E-01  8.50000000E-01
  8.50000000E-01  8.50000000E-01  8.50000000E-01  8.50000000E-01  8.50000000E-01
  8.50000000E-01  8.50000000E-01  8.50000000E-01  8.50000000E-01  8.50000000E-01
  8.50000000E-01  8.50000000E-01  8.50000000E-01  8.50000000E-01  8.50000000E-01
  8.50000000E-01  8.50000000E-01  8.50000000E-01  8.50000000E-01  8.50000000E-01
  8.50000000E-01  8.50000000E-01  8.50000000E-01  8.50000000E-01  8.50000000E-01
  8.50000000E-01  8.50000000E-01  8.50000000E-01  8.50000000E-01  8.50000000E-01
  8.50000000E-01  8.50000000E-01  8.50000000E-01  8.50000000E-01  8.50000000E-01
  8.50000000E-01  8.50000000E-01  8.50000000E-01  8.50000000E-01  8.50000000E-01
  8.50000000E-01  8.50000000E-01  8.50000000E-01  8.50000000E-01  8.50000000E-01
  8.50000000E-01  8.50000000E-01  8.50000000E-01  8.50000000E-01  8.50000000E-01
  8.50000000E-01  8.50000000E-01  8.50000000E-01  8.50000000E-01  8.50000000E-01
  8.50000000E-01  8.50000000E-01  8.50000000E-01  8.50000000E-01  8.50000000E-01
  8.50000000E-01  8.50000000E-01  8.50000000E-01  8.50000000E-01  8.50000000E-01
  8.50000000E-01  8.50000000E-01  8.50000000E-01  8.50000000E-01  8.50000000E-01
  8.50000000E-01  8.50000000E-01  8.50000000E-01  8.50000000E-01  8.50000000E-01
  8.50000000E-01  8.50000000E-01  8.50000000E-01  8.50000000E-01  8.50000000E-01
  8.50000000E-01  8.50000000E-01  8.50000000E-01  8.50000000E-01  8.50000000E-01
  8.50000000E-01  8.50000000E-01  8.50000000E-01  8.50000000E-01  8.50000000E-01
  8.50000000E-01  8.50000000E-01  8.50000000E-01  8.50000000E-01  8.50000000E-01
  8.50000000E-01  8.50000000E-01  8.50000000E-01  8.50000000E-01  8.50000000E-01
  8.50000000E-01  8.50000000E-01  8.50000000E-01  8.50000000E-01  8.50000000E-01
  8.50000000E-01  8.50000000E-01  8.50000000E-01  8.50000000E-01  8.50000000E-01
  8.50000000E-01  8.50000000E-01  8.50000000E-01  8.50000000E-01  8.50000000E-01
  8.50000000E-01  8.50000000E-01  8.50000000E-01  8.50000000E-01  8.50000000E-01
  8.50000000E-01  8.50000000E-01  8.50000000E-01  8.50000000E-01  8.50000000E-01
  8.50000000E-01  8.50000000E-01  8.50000000E-01  8.50000000E-01  8.50000000E-01
  8.50000000E-01  8.50000000E-01  8.50000000E-01  8.50000000E-01  8.50000000E-01
  8.50000000E-01  8.50000000E-01  8.50000000E-01  8.50000000E-01  8.50000000E-01
  8.50000000E-01  8.50000000E-01  8.50000000E-01  8.50000000E-01  8.50000000E-01
  8.50000000E-01  8.50000000E-01  8.50000000E-01  8.50000000E-01  8.50000000E-01
  8.50000000E-01  8.50000000E-01  8.50000000E-01  8.50000000E-01  8.50000000E-01
  8.50000000E-01  8.50000000E-01  8.50000000E-01  8.50000000E-01  8.50000000E-01
  8.50000000E-01  8.50000000E-01  8.50000000E-01  8.50000000E-01  8.50000000E-01
  8.50000000E-01  8.50000000E-01  8.50000000E-01  8.50000000E-01  8.50000000E-01
  8.50000000E-01  8.50000000E-01  8.50000000E-01  8.50000000E-01  8.50000000E-01
  8.50000000E-01  8.50000000E-01  8.50000000E-01  8.50000000E-01  8.50000000E-01
  8.50000000E-01  8.50000000E-01  8.50000000E-01  8.50000000E-01  8.50000000E-01
  8.50000000E-01  8.50000000E-01  8.50000000E-01  8.50000000E-01  8.50000000E-01
  8.50000000E-01  8.50000000E-01  8.50000000E-01  8.50000000E-01  8.50000000E-01
  8.50000000E-01  8.50000000E-01  8.50000000E-01  8.50000000E-01  8.50000000E-01
  8.50000000E-01  8.50000000E-01  8.50000000E-01  8.50000000E-01  8.50000000E-01
  8.50000000E-01  8.50000000E-01  8.50000000E-01  8.50000000E-01  8.50000000E-01
  8.50000000E-01  8.50000000E-01  8.50000000E-01  8.50000000E-01  8.50000000E-01
  8.50000000E-01  8.50000000E-01  8.50000000E-01  8.50000000E-01  8.50000000E-01
  8.50000000E-01  8.50000000E-01  8.50000000E-01  8.50000000E-01  8.50000000E-01
  8.50000000E-01  8.50000000E-01  8.50000000E-01  8.50000000E-01  8.50000000E-01
  8.50000000E-01  8.50000000E-01  8.50000000E-01  8.50000000E-01  8.50000000E-01
  8.50000000E-01  8.50000000E-01  8.50000000E-01  8.50000000E-01  8.50000000E-01
  8.50000000E-01  8.50000000E-01  8.50000000E-01  8.50000000E-01  8.50000000E-01
  8.50000000E-01  8.50000000E-01  8.50000000E-01  8.50000000E-01  8.50000000E-01
  8.50000000E-01  8.50000000E-01  8.50000000E-01  8.50000000E-01  8.50000000E-01
  8.50000000E-01  8.50000000E-01  8.50000000E-01  8.50000000E-01  8.50000000E-01
  8.50000000E-01  8.50000000E-01  8.50000000E-01  8.50000000E-01  8.50000000E-01
  8.50000000E-01  8.50000000E-01  8.50000000E-01  8.50000000E-01  8.50000000E-01
  8.50000000E-01  8.50000000E-01  8.50000000E-01  8.50000000E-01  8.50000000E-01
  8.50000000E-01  8.50000000E-01  8.50000000E-01  8.50000000E-01  8.50000000E-01
  8.50000000E-01  8.50000000E-01  8.50000000E-01  8.50000000E-01  8.50000000E-01
  8.50000000E-01  8.50000000E-01  8.50000000E-01  8.50000000E-01  8.50000000E-01
  8.50000000E-01  8.50000000E-01  8.50000000E-01  8.50000000E-01  8.50000000E-01
  8.50000000E-01  8.50000000E-01  8.50000000E-01  8.50000000E-01  8.50000000E-01
  8.50000000E-01  8.50000000E-01  8.50000000E-01  8.50000000E-01  8.50000000E-01
  8.50000000E-01  8.50000000E-01  8.50000000E-01  8.50000000E-01  8.50000000E-01
  8.50000000E-01  8.50000000E-01  8.50000000E-01  8.50000000E-01  8.50000000E-01
  8.50000000E-01  8.50000000E-01  8.50000000E-01  8.50000000E-01  8.50000000E-01
  8.50000000E-01  8.50000000E-01  8.50000000E-01  8.50000000E-01  8.50000000E-01
  8.50000000E-01  8.50000000E-01  8.50000000E-01  8.50000000E-01  8.50000000E-01
  8.50000000E-01  8.50000000E-01  8.50000000E-01  8.50000000E-01  8.50000000E-01
  8.50000000E-01  8.50000000E-01  8.50000000E-01  8.50000000E-01  8.50000000E-01
  8.50000000E-01  8.50000000E-01  8.50000000E-01  8.50000000E-01  8.50000000E-01
  8.50000000E-01  8.50000000E-01  8.50000000E-01  8.50000000E-01  8.50000000E-01
  8.50000000E-01  8.50000000E-01  8.50000000E-01  8.50000000E-01  8.50000000E-01
  8.50000000E-01  8.50000000E-01  8.50000000E-01  8.50000000E-01  8.50000000E-01
  8.50000000E-01  8.50000000E-01  8.50000000E-01  8.50000000E-01  8.50000000E-01
  8.50000000E-01  8.50000000E-01  8.50000000E-01  8.50000000E-01  8.50000000E-01
  8.50000000E-01  8.50000000E-01  8.50000000E-01  8.50000000E-01  8.50000000E-01
  8.50000000E-01  8.50000000E-01  8.50000000E-01  8.50000000E-01  8.50000000E-01
  8.50000000E-01  8.50000000E-01  8.50000000E-01  8.50000000E-01  8.50000000E-01
  8.50000000E-01  8.50000000E-01  8.50000000E-01  8.50000000E-01  8.50000000E-01
  8.50000000E-01  8.50000000E-01  8.50000000E-01  8.50000000E-01  8.50000000E-01
  8.50000000E-01  8.50000000E-01  8.50000000E-01  8.50000000E-01  8.50000000E-01
  8.50000000E-01  8.50000000E-01  8.50000000E-01  8.50000000E-01  8.50000000E-01
  8.50000000E-01  8.50000000E-01  8.50000000E-01  8.50000000E-01  8.50000000E-01
  8.50000000E-01  8.50000000E-01  8.50000000E-01  8.50000000E-01  8.50000000E-01
  8.50000000E-01  8.50000000E-01  8.50000000E-01  8.50000000E-01  8.50000000E-01
  8.50000000E-01  8.50000000E-01  8.50000000E-01  8.50000000E-01  8.50000000E-01
  8.50000000E-01  8.50000000E-01  8.50000000E-01  8.50000000E-01  8.50000000E-01
  8.50000000E-01  8.50000000E-01  8.50000000E-01  8.50000000E-01  8.50000000E-01
  8.50000000E-01  8.50000000E-01  8.50000000E-01  8.50000000E-01  8.50000000E-01
  8.50000000E-01  8.50000000E-01  8.50000000E-01  8.50000000E-01  8.50000000E-01
  8.50000000E-01  8.50000000E-01  8.50000000E-01  8.50000000E-01  8.50000000E-01
  8.50000000E-01  8.50000000E-01  8.50000000E-01  8.50000000E-01  8.50000000E-01
  8.50000000E-01  8.50000000E-01  8.50000000E-01  8.50000000E-01  8.50000000E-01
  8.50000000E-01  8.50000000E-01  8.50000000E-01  8.50000000E-01  8.50000000E-01
  8.50000000E-01  8.50000000E-01  8.50000000E-01  8.50000000E-01  8.50000000E-01
  8.50000000E-01  8.50000000E-01  8.50000000E-01  8.50000000E-01  8.50000000E-01
  8.50000000E-01  8.50000000E-01  8.50000000E-01  8.50000000E-01  8.50000000E-01
  8.50000000E-01  8.50000000E-01  8.50000000E-01  8.50000000E-01  8.50000000E-01
  8.50000000E-01  8.50000000E-01  8.50000000E-01  8.50000000E-01  8.50000000E-01
  8.50000000E-01  8.50000000E-01  8.50000000E-01  8.50000000E-01  8.50000000E-01
  8.50000000E-01  8.50000000E-01  8.50000000E-01  8.50000000E-01  8.50000000E-01
  8.50000000E-01  8.50000000E-01  8.50000000E-01  8.50000000E-01  8.50000000E-01
  8.50000000E-01  8.50000000E-01  8.50000000E-01  8.50000000E-01  8.50000000E-01
  8.50000000E-01  8.50000000E-01  8.50000000E-01  8.50000000E-01  8.50000000E-01
  8.50000000E-01  8.50000000E-01  8.50000000E-01  8.50000000E-01  8.50000000E-01
  8.50000000E-01  8.50000000E-01  8.50000000E-01  8.50000000E-01  8.50000000E-01
  8.50000000E-01  8.50000000E-01  8.50000000E-01  8.50000000E-01  8.50000000E-01
  8.50000000E-01  8.50000000E-01  8.50000000E-01  8.50000000E-01  8.50000000E-01
  8.50000000E-01  8.50000000E-01  8.50000000E-01  8.50000000E-01  8.50000000E-01
  8.50000000E-01  8.50000000E-01  8.50000000E-01  8.50000000E-01  8.50000000E-01
  8.50000000E-01  8.50000000E-01  8.50000000E-01  8.50000000E-01  8.50000000E-01
  8.50000000E-01  8.50000000E-01  8.50000000E-01  8.50000000E-01  8.50000000E-01
  8.50000000E-01  8.50000000E-01  8.50000000E-01  8.50000000E-01  8.50000000E-01
  8.50000000E-01  8.50000000E-01  8.50000000E-01  8.50000000E-01  8.50000000E-01
  8.50000000E-01  8.50000000E-01  8.50000000E-01  8.50000000E-01  8.50000000E-01
  8.50000000E-01  8.50000000E-01  8.50000000E-01  8.50000000E-01  8.50000000E-01
  8.50000000E-01  8.50000000E-01  8.50000000E-01  8.50000000E-01  8.50000000E-01
  8.50000000E-01  8.50000000E-01  8.50000000E-01  8.50000000E-01  8.50000000E-01
  8.50000000E-01  8.50000000E-01  8.50000000E-01  8.50000000E-01  8.50000000E-01
  8.50000000E-01  8.50000000E-01  8.50000000E-01  8.50000000E-01  8.50000000E-01
  8.50000000E-01  8.50000000E-01  8.50000000E-01  8.50000000E-01  8.50000000E-01
  8.50000000E-01  8.50000000E-01  8.50000000E-01  8.50000000E-01  8.50000000E-01
  8.50000000E-01  8.50000000E-01  8.50000000E-01  8.50000000E-01  8.50000000E-01
  8.50000000E-01  8.50000000E-01  8.50000000E-01  8.50000000E-01  8.50000000E-01
  8.50000000E-01  8.50000000E-01  8.50000000E-01  8.50000000E-01  8.50000000E-01
  8.50000000E-01  8.50000000E-01  8.50000000E-01  8.50000000E-01  8.50000000E-01
  8.50000000E-01  8.50000000E-01  8.50000000E-01  8.50000000E-01  8.50000000E-01
  8.50000000E-01  8.50000000E-01  8.50000000E-01  8.50000000E-01  8.50000000E-01
  8.50000000E-01  8.50000000E-01  8.50000000E-01  8.50000000E-01  8.50000000E-01
  8.50000000E-01  8.50000000E-01  8.50000000E-01  8.50000000E-01  8.50000000E-01
  8.50000000E-01  8.50000000E-01  8.50000000E-01  8.50000000E-01  8.50000000E-01
  8.50000000E-01  8.50000000E-01  8.50000000E-01  8.50000000E-01  8.50000000E-01
  8.50000000E-01  8.50000000E-01  8.50000000E-01  8.50000000E-01  8.50000000E-01
  8.50000000E-01  8.50000000E-01  8.50000000E-01  8.50000000E-01  8.50000000E-01
  8.50000000E-01  8.50000000E-01  8.50000000E-01  8.50000000E-01  8.50000000E-01
  8.50000000E-01  8.50000000E-01  8.50000000E-01  8.50000000E-01  8.50000000E-01
  8.50000000E-01  8.50000000E-01  8.50000000E-01  8.50000000E-01  8.50000000E-01
  8.50000000E-01  8.50000000E-01  8.50000000E-01  8.50000000E-01  8.50000000E-01
  8.50000000E-01  8.50000000E-01  8.50000000E-01  8.50000000E-01  8.50000000E-01
  8.50000000E-01  8.50000000E-01  8.50000000E-01  8.50000000E-01  8.50000000E-01
  8.50000000E-01  8.50000000E-01  8.50000000E-01  8.50000000E-01  8.50000000E-01
  8.50000000E-01  8.50000000E-01  8.50000000E-01  8.50000000E-01  8.50000000E-01
  8.50000000E-01  8.50000000E-01  8.50000000E-01  8.50000000E-01  8.50000000E-01
  8.50000000E-01  8.50000000E-01  8.50000000E-01  8.50000000E-01  8.50000000E-01
  8.50000000E-01  8.50000000E-01  8.50000000E-01  8.50000000E-01  8.50000000E-01
  8.50000000E-01  8.50000000E-01  8.50000000E-01  8.50000000E-01  8.50000000E-01
  8.50000000E-01  8.50000000E-01  8.50000000E-01  8.50000000E-01  8.50000000E-01
  8.50000000E-01  8.50000000E-01  8.50000000E-01  8.50000000E-01  8.50000000E-01
  8.50000000E-01  8.50000000E-01  8.50000000E-01  8.50000000E-01  8.50000000E-01
  8.50000000E-01  8.50000000E-01  8.50000000E-01  8.50000000E-01  8.50000000E-01
  8.50000000E-01  8.50000000E-01  8.50000000E-01  8.50000000E-01  8.50000000E-01
  8.50000000E-01  8.50000000E-01  8.50000000E-01  8.50000000E-01  8.50000000E-01
  8.50000000E-01  8.50000000E-01  8.50000000E-01  8.50000000E-01  8.50000000E-01
  8.50000000E-01  8.50000000E-01  8.50000000E-01  8.50000000E-01  8.50000000E-01
  8.50000000E-01  8.50000000E-01  8.50000000E-01  8.50000000E-01  8.50000000E-01
  8.50000000E-01  8.50000000E-01  8.50000000E-01  8.50000000E-01  8.50000000E-01
  8.50000000E-01  8.50000000E-01  8.50000000E-01  8.50000000E-01  8.50000000E-01
  8.50000000E-01  8.50000000E-01  8.50000000E-01  8.50000000E-01  8.50000000E-01
  8.50000000E-01  8.50000000E-01  8.50000000E-01  8.50000000E-01  8.50000000E-01
  8.50000000E-01  8.50000000E-01  8.50000000E-01  8.50000000E-01  8.50000000E-01
  8.50000000E-01  8.50000000E-01  8.50000000E-01  8.50000000E-01  8.50000000E-01
  8.50000000E-01  8.50000000E-01  8.50000000E-01  8.50000000E-01  8.50000000E-01
  8.50000000E-01  8.50000000E-01  8.50000000E-01  8.50000000E-01  8.50000000E-01
  8.50000000E-01  8.50000000E-01  8.50000000E-01  8.50000000E-01  8.50000000E-01
  8.50000000E-01  8.50000000E-01  8.50000000E-01  8.50000000E-01  8.50000000E-01
  8.50000000E-01  8.50000000E-01  8.50000000E-01  8.50000000E-01  8.50000000E-01
  8.50000000E-01  8.50000000E-01  8.50000000E-01  8.50000000E-01  8.50000000E-01
  8.50000000E-01  8.50000000E-01  8.50000000E-01  8.50000000E-01  8.50000000E-01
  8.50000000E-01  8.50000000E-01  8.50000000E-01  8.50000000E-01  8.50000000E-01
  8.50000000E-01  8.50000000E-01  8.50000000E-01  8.50000000E-01  8.50000000E-01
  8.50000000E-01  8.50000000E-01  8.50000000E-01  8.50000000E-01  8.50000000E-01
  8.50000000E-01  8.50000000E-01  8.50000000E-01  8.50000000E-01  8.50000000E-01
  8.50000000E-01  8.50000000E-01  8.50000000E-01  8.50000000E-01  8.50000000E-01
  8.50000000E-01  8.50000000E-01  8.50000000E-01  8.50000000E-01  8.50000000E-01
  8.50000000E-01  8.50000000E-01  8.50000000E-01  8.50000000E-01  8.50000000E-01
  8.50000000E-01  8.50000000E-01  8.50000000E-01  8.50000000E-01  8.50000000E-01
  8.50000000E-01  8.50000000E-01  8.50000000E-01  8.50000000E-01  8.50000000E-01
  8.50000000E-01  8.50000000E-01  8.50000000E-01  8.50000000E-01  8.50000000E-01
  8.50000000E-01  8.50000000E-01  8.50000000E-01  8.50000000E-01  8.50000000E-01
  8.50000000E-01  8.50000000E-01  8.50000000E-01  8.50000000E-01  8.50000000E-01
  8.50000000E-01  8.50000000E-01  8.50000000E-01  8.50000000E-01  8.50000000E-01
  8.50000000E-01  8.50000000E-01  8.50000000E-01  8.50000000E-01  8.50000000E-01
  8.50000000E-01  8.50000000E-01  8.50000000E-01  8.50000000E-01  8.50000000E-01
  8.50000000E-01  8.50000000E-01  8.50000000E-01  8.50000000E-01  8.50000000E-01
  8.50000000E-01  8.50000000E-01  8.50000000E-01  8.50000000E-01  8.50000000E-01
  8.50000000E-01  8.50000000E-01  8.50000000E-01  8.50000000E-01  8.50000000E-01
  8.50000000E-01  8.50000000E-01  8.50000000E-01  8.50000000E-01  8.50000000E-01
  8.50000000E-01  8.50000000E-01  8.50000000E-01  8.50000000E-01  8.50000000E-01
  8.50000000E-01  8.50000000E-01  8.50000000E-01  8.50000000E-01  8.50000000E-01
  8.50000000E-01  8.50000000E-01  8.50000000E-01  8.50000000E-01  8.50000000E-01
  8.50000000E-01  8.50000000E-01  8.50000000E-01  8.50000000E-01  8.50000000E-01
  8.50000000E-01  8.50000000E-01  8.50000000E-01  8.50000000E-01  8.50000000E-01
  8.50000000E-01  8.50000000E-01  8.50000000E-01  8.50000000E-01  8.50000000E-01
  8.50000000E-01  8.50000000E-01  8.50000000E-01  8.50000000E-01  8.50000000E-01
  8.50000000E-01  8.50000000E-01  8.50000000E-01  8.50000000E-01  8.50000000E-01
  8.50000000E-01  8.50000000E-01  8.50000000E-01  8.50000000E-01  8.50000000E-01
  8.50000000E-01  8.50000000E-01  8.50000000E-01  8.50000000E-01  8.50000000E-01
  8.50000000E-01  8.50000000E-01  8.50000000E-01  8.50000000E-01  8.50000000E-01
  8.50000000E-01  8.50000000E-01  8.50000000E-01  8.50000000E-01  8.50000000E-01
  8.50000000E-01  8.50000000E-01  8.50000000E-01  8.50000000E-01  8.50000000E-01
  8.50000000E-01  8.50000000E-01  8.50000000E-01  8.50000000E-01  8.50000000E-01
  8.50000000E-01  8.50000000E-01  8.50000000E-01  8.50000000E-01  8.50000000E-01
  8.50000000E-01  8.50000000E-01  8.50000000E-01  8.50000000E-01  8.50000000E-01
  8.50000000E-01  8.50000000E-01  8.50000000E-01  8.50000000E-01  8.50000000E-01
  8.50000000E-01  8.50000000E-01  8.50000000E-01  8.50000000E-01  8.50000000E-01
  8.50000000E-01  8.50000000E-01  8.50000000E-01  8.50000000E-01  8.50000000E-01
  8.50000000E-01  8.50000000E-01  8.50000000E-01  8.50000000E-01  8.50000000E-01
  8.50000000E-01  8.50000000E-01  8.50000000E-01  8.50000000E-01  8.50000000E-01
  8.50000000E-01  8.50000000E-01  8.50000000E-01  8.50000000E-01  8.50000000E-01
  8.50000000E-01  8.50000000E-01  8.50000000E-01  8.50000000E-01  8.50000000E-01
  8.50000000E-01  8.50000000E-01  8.50000000E-01  8.50000000E-01  8.50000000E-01
  8.50000000E-01  8.50000000E-01  8.50000000E-01  8.50000000E-01  8.50000000E-01
  8.50000000E-01  8.50000000E-01  8.50000000E-01  8.50000000E-01  8.50000000E-01
  8.50000000E-01  8.50000000E-01  8.50000000E-01  8.50000000E-01  8.50000000E-01
  8.50000000E-01  8.50000000E-01  8.50000000E-01  8.50000000E-01  8.50000000E-01
  8.50000000E-01  8.50000000E-01  8.50000000E-01  8.50000000E-01  8.50000000E-01
  8.50000000E-01  8.50000000E-01  8.50000000E-01  8.50000000E-01  8.50000000E-01
  8.50000000E-01  8.50000000E-01  8.50000000E-01  8.50000000E-01  8.50000000E-01
  8.50000000E-01  8.50000000E-01  8.50000000E-01  8.50000000E-01  8.50000000E-01
  8.50000000E-01  8.50000000E-01  8.50000000E-01  8.50000000E-01  8.50000000E-01
  8.50000000E-01  8.50000000E-01  8.50000000E-01  8.50000000E-01  8.50000000E-01
  8.50000000E-01  8.50000000E-01  8.50000000E-01  8.50000000E-01  8.50000000E-01
  8.50000000E-01  8.50000000E-01  8.50000000E-01  8.50000000E-01  8.50000000E-01
  8.50000000E-01  8.50000000E-01  8.50000000E-01  8.50000000E-01  8.50000000E-01
  8.50000000E-01  8.50000000E-01  8.50000000E-01  8.50000000E-01  8.50000000E-01
  8.50000000E-01  8.50000000E-01  8.50000000E-01  8.50000000E-01  8.50000000E-01
  8.50000000E-01  8.50000000E-01  8.50000000E-01  8.50000000E-01  8.50000000E-01
  8.50000000E-01  8.50000000E-01  8.50000000E-01  8.50000000E-01  8.50000000E-01
  8.50000000E-01  8.50000000E-01  8.50000000E-01  8.50000000E-01  8.50000000E-01
  8.50000000E-01  8.50000000E-01  8.50000000E-01  8.50000000E-01  8.50000000E-01
  8.50000000E-01  8.50000000E-01  8.50000000E-01  8.50000000E-01  8.50000000E-01
  8.50000000E-01  8.50000000E-01  8.50000000E-01  8.50000000E-01  8.50000000E-01
  8.50000000E-01  8.50000000E-01  8.50000000E-01  8.50000000E-01  8.50000000E-01
  8.50000000E-01  8.50000000E-01  8.50000000E-01  8.50000000E-01  8.50000000E-01
  8.50000000E-01  8.50000000E-01  8.50000000E-01  8.50000000E-01  8.50000000E-01
  8.50000000E-01  8.50000000E-01  8.50000000E-01  8.50000000E-01  8.50000000E-01
  8.50000000E-01  8.50000000E-01  8.50000000E-01  8.50000000E-01  8.50000000E-01
  8.50000000E-01  8.50000000E-01  8.50000000E-01  8.50000000E-01  8.50000000E-01
  8.50000000E-01  8.50000000E-01  8.50000000E-01  8.50000000E-01  8.50000000E-01
  8.50000000E-01  8.50000000E-01  8.50000000E-01  8.50000000E-01  8.50000000E-01
  8.50000000E-01  8.50000000E-01  8.50000000E-01  8.50000000E-01  8.50000000E-01
  8.50000000E-01  8.50000000E-01  8.50000000E-01  8.50000000E-01  8.50000000E-01
  8.50000000E-01  8.50000000E-01  8.50000000E-01  8.50000000E-01  8.50000000E-01
  8.50000000E-01  8.50000000E-01  8.50000000E-01  8.50000000E-01  8.50000000E-01
  8.50000000E-01  8.50000000E-01  8.50000000E-01  8.50000000E-01  8.50000000E-01
  8.50000000E-01  8.50000000E-01  8.50000000E-01  8.50000000E-01  8.50000000E-01
  8.50000000E-01  8.50000000E-01  8.50000000E-01  8.50000000E-01  8.50000000E-01
  8.50000000E-01  8.50000000E-01  8.50000000E-01  8.50000000E-01  8.50000000E-01
  8.50000000E-01  8.50000000E-01  8.50000000E-01  8.50000000E-01  8.50000000E-01
  8.50000000E-01  8.50000000E-01  8.50000000E-01  8.50000000E-01  8.50000000E-01
  8.50000000E-01  8.50000000E-01  8.50000000E-01  8.50000000E-01  8.50000000E-01
  8.50000000E-01  8.50000000E-01  8.50000000E-01  8.50000000E-01  8.50000000E-01
  8.50000000E-01  8.50000000E-01  8.50000000E-01  8.50000000E-01  8.50000000E-01
  8.50000000E-01  8.50000000E-01  8.50000000E-01  8.50000000E-01  8.50000000E-01
  8.50000000E-01  8.50000000E-01  8.50000000E-01  8.50000000E-01  8.50000000E-01
  8.50000000E-01  8.50000000E-01  8.50000000E-01  8.50000000E-01  8.50000000E-01
  8.50000000E-01  8.50000000E-01  8.50000000E-01  8.50000000E-01  8.50000000E-01
  8.50000000E-01  8.50000000E-01  8.50000000E-01  8.50000000E-01  8.50000000E-01
  8.50000000E-01  8.50000000E-01  8.50000000E-01  8.50000000E-01  8.50000000E-01
  8.50000000E-01  8.50000000E-01  8.50000000E-01  8.50000000E-01  8.50000000E-01
  8.50000000E-01  8.50000000E-01  8.50000000E-01  8.50000000E-01  8.50000000E-01
  8.50000000E-01  8.50000000E-01  8.50000000E-01  8.50000000E-01  8.50000000E-01
  8.50000000E-01  8.50000000E-01  8.50000000E-01  8.50000000E-01  8.50000000E-01
  8.50000000E-01  8.50000000E-01  8.50000000E-01  8.50000000E-01  8.50000000E-01
  8.50000000E-01  8.50000000E-01  8.50000000E-01  8.50000000E-01  8.50000000E-01
  8.50000000E-01  8.50000000E-01  8.50000000E-01  8.50000000E-01  8.50000000E-01
  8.50000000E-01  8.50000000E-01  8.50000000E-01  8.50000000E-01  8.50000000E-01
  8.50000000E-01  8.50000000E-01  8.50000000E-01  8.50000000E-01  8.50000000E-01
  8.50000000E-01  8.50000000E-01  8.50000000E-01  8.50000000E-01  8.50000000E-01
  8.50000000E-01  8.50000000E-01  8.50000000E-01  8.50000000E-01  8.50000000E-01
  8.50000000E-01  8.50000000E-01  8.50000000E-01  8.50000000E-01  8.50000000E-01
  8.50000000E-01  8.50000000E-01  8.50000000E-01  8.50000000E-01  8.50000000E-01
  8.50000000E-01  8.50000000E-01  8.50000000E-01  8.50000000E-01  8.50000000E-01
  8.50000000E-01  8.50000000E-01  8.50000000E-01  8.50000000E-01  8.50000000E-01
  8.50000000E-01  8.50000000E-01  8.50000000E-01  8.50000000E-01  8.50000000E-01
  8.50000000E-01  8.50000000E-01  8.50000000E-01  8.50000000E-01  8.50000000E-01
  8.50000000E-01  8.50000000E-01  8.50000000E-01  8.50000000E-01  8.50000000E-01
  8.50000000E-01  8.50000000E-01  8.50000000E-01  8.50000000E-01  8.50000000E-01
  8.50000000E-01  8.50000000E-01  8.50000000E-01  8.50000000E-01  8.50000000E-01
  8.50000000E-01  8.50000000E-01  8.50000000E-01  8.50000000E-01  8.50000000E-01
  8.50000000E-01  8.50000000E-01  8.50000000E-01  8.50000000E-01  8.50000000E-01
  8.50000000E-01  8.50000000E-01  8.50000000E-01  8.50000000E-01  8.50000000E-01
  8.50000000E-01  8.50000000E-01  8.50000000E-01  8.50000000E-01  8.50000000E-01
  8.50000000E-01  8.50000000E-01  8.50000000E-01  8.50000000E-01  8.50000000E-01
  8.50000000E-01  8.50000000E-01  8.50000000E-01  8.50000000E-01  8.50000000E-01
  8.50000000E-01  8.50000000E-01  8.50000000E-01  8.50000000E-01  8.50000000E-01
  8.50000000E-01  8.50000000E-01  8.50000000E-01  8.50000000E-01  8.50000000E-01
  8.50000000E-01  8.50000000E-01  8.50000000E-01  8.50000000E-01  8.50000000E-01
  8.50000000E-01  8.50000000E-01  8.50000000E-01  8.50000000E-01  8.50000000E-01
  8.50000000E-01  8.50000000E-01  8.50000000E-01  8.50000000E-01  8.50000000E-01
  8.50000000E-01  8.50000000E-01  8.50000000E-01  8.50000000E-01  8.50000000E-01
  8.50000000E-01  8.50000000E-01  8.50000000E-01  8.50000000E-01  8.50000000E-01
  8.50000000E-01  8.50000000E-01  8.50000000E-01  8.50000000E-01  8.50000000E-01
  8.50000000E-01  8.50000000E-01  8.50000000E-01  8.50000000E-01  8.50000000E-01
  8.50000000E-01  8.50000000E-01  8.50000000E-01  8.50000000E-01  8.50000000E-01
  8.50000000E-01  8.50000000E-01  8.50000000E-01  8.50000000E-01  8.50000000E-01
  8.50000000E-01  8.50000000E-01  8.50000000E-01  8.50000000E-01  8.50000000E-01
  8.50000000E-01  8.50000000E-01  8.50000000E-01  8.50000000E-01  8.50000000E-01
  8.50000000E-01  8.50000000E-01  8.50000000E-01  8.50000000E-01  8.50000000E-01
  8.50000000E-01  8.50000000E-01  8.50000000E-01  8.50000000E-01  8.50000000E-01
  8.50000000E-01  8.50000000E-01  8.50000000E-01  8.50000000E-01  8.50000000E-01
  8.50000000E-01  8.50000000E-01  8.50000000E-01  8.50000000E-01  8.50000000E-01
  8.50000000E-01  8.50000000E-01  8.50000000E-01  8.50000000E-01  8.50000000E-01
  8.50000000E-01  8.50000000E-01  8.50000000E-01  8.50000000E-01  8.50000000E-01
  8.50000000E-01  8.50000000E-01  8.50000000E-01  8.50000000E-01  8.50000000E-01
  8.50000000E-01  8.50000000E-01  8.50000000E-01  8.50000000E-01  8.50000000E-01
  8.50000000E-01  8.50000000E-01  8.50000000E-01  8.50000000E-01  8.50000000E-01
  8.50000000E-01  8.50000000E-01  8.50000000E-01  8.50000000E-01  8.50000000E-01
  8.50000000E-01  8.50000000E-01  8.50000000E-01  8.50000000E-01  8.50000000E-01
  8.50000000E-01  8.50000000E-01  8.50000000E-01  8.50000000E-01  8.50000000E-01
  8.50000000E-01  8.50000000E-01  8.50000000E-01  8.50000000E-01  8.50000000E-01
  8.50000000E-01  8.50000000E-01  8.50000000E-01  8.50000000E-01  8.50000000E-01
  8.50000000E-01  8.50000000E-01  8.50000000E-01  8.50000000E-01  8.50000000E-01
  8.50000000E-01  8.50000000E-01  8.50000000E-01  8.50000000E-01  8.50000000E-01
  8.50000000E-01  8.50000000E-01  8.50000000E-01  8.50000000E-01  8.50000000E-01
  8.50000000E-01  8.50000000E-01  8.50000000E-01  8.50000000E-01  8.50000000E-01
  8.50000000E-01  8.50000000E-01  8.50000000E-01  8.50000000E-01  8.50000000E-01
  8.50000000E-01  8.50000000E-01  8.50000000E-01  8.50000000E-01  8.50000000E-01
  8.50000000E-01  8.50000000E-01  8.50000000E-01  8.50000000E-01  8.50000000E-01
  8.50000000E-01  8.50000000E-01  8.50000000E-01  8.50000000E-01  8.50000000E-01
  8.50000000E-01  8.50000000E-01  8.50000000E-01  8.50000000E-01  8.50000000E-01
  8.50000000E-01  8.50000000E-01  8.50000000E-01  8.50000000E-01  8.50000000E-01
  8.50000000E-01  8.50000000E-01  8.50000000E-01  8.50000000E-01  8.50000000E-01
  8.50000000E-01  8.50000000E-01  8.50000000E-01  8.50000000E-01  8.50000000E-01
  8.50000000E-01  8.50000000E-01  8.50000000E-01  8.50000000E-01  8.50000000E-01
  8.50000000E-01  8.50000000E-01  8.50000000E-01  8.50000000E-01  8.50000000E-01
  8.50000000E-01  8.50000000E-01  8.50000000E-01  8.50000000E-01  8.50000000E-01
  8.50000000E-01  8.50000000E-01  8.50000000E-01  8.50000000E-01  8.50000000E-01
  8.50000000E-01  8.50000000E-01  8.50000000E-01  8.50000000E-01  8.50000000E-01
  8.50000000E-01  8.50000000E-01  8.50000000E-01  8.50000000E-01  8.50000000E-01
  8.50000000E-01  8.50000000E-01  8.50000000E-01  8.50000000E-01  8.50000000E-01
  8.50000000E-01  8.50000000E-01  8.50000000E-01  8.50000000E-01  8.50000000E-01
  8.50000000E-01  8.50000000E-01  8.50000000E-01  8.50000000E-01  8.50000000E-01
  8.50000000E-01  8.50000000E-01  8.50000000E-01  8.50000000E-01  8.50000000E-01
  8.50000000E-01  8.50000000E-01  8.50000000E-01  8.50000000E-01  8.50000000E-01
  8.50000000E-01  8.50000000E-01  8.50000000E-01  8.50000000E-01  8.50000000E-01
  8.50000000E-01  8.50000000E-01  8.50000000E-01  8.50000000E-01  8.50000000E-01
  8.50000000E-01  8.50000000E-01  8.50000000E-01  8.50000000E-01  8.50000000E-01
  8.50000000E-01  8.50000000E-01  8.50000000E-01  8.50000000E-01  8.50000000E-01
  8.50000000E-01  8.50000000E-01  8.50000000E-01  8.50000000E-01  8.50000000E-01
  8.50000000E-01  8.50000000E-01  8.50000000E-01  8.50000000E-01  8.50000000E-01
  8.50000000E-01  8.50000000E-01  8.50000000E-01  8.50000000E-01  8.50000000E-01
  8.50000000E-01  8.50000000E-01  8.50000000E-01  8.50000000E-01  8.50000000E-01
  8.50000000E-01  8.50000000E-01  8.50000000E-01  8.50000000E-01  8.50000000E-01
  8.50000000E-01  8.50000000E-01  8.50000000E-01  8.50000000E-01  8.50000000E-01
  8.50000000E-01  8.50000000E-01  8.50000000E-01  8.50000000E-01  8.50000000E-01
  8.50000000E-01  8.50000000E-01  8.50000000E-01  8.50000000E-01  8.50000000E-01
  8.50000000E-01  8.50000000E-01  8.50000000E-01  8.50000000E-01  8.50000000E-01
  8.50000000E-01  8.50000000E-01  8.50000000E-01  8.50000000E-01  8.50000000E-01
  8.50000000E-01  8.50000000E-01  8.50000000E-01  8.50000000E-01  8.50000000E-01
  8.50000000E-01  8.50000000E-01  8.50000000E-01  8.50000000E-01  8.50000000E-01
  8.50000000E-01  8.50000000E-01  8.50000000E-01  8.50000000E-01  8.50000000E-01
  8.50000000E-01  8.50000000E-01  8.50000000E-01  8.50000000E-01  8.50000000E-01
  8.50000000E-01  8.50000000E-01  8.50000000E-01  8.50000000E-01  8.50000000E-01
  8.50000000E-01  8.50000000E-01  8.50000000E-01  8.50000000E-01  8.50000000E-01
  8.50000000E-01  8.50000000E-01  8.50000000E-01  8.50000000E-01  8.50000000E-01
  8.50000000E-01  8.50000000E-01  8.50000000E-01  8.50000000E-01  8.50000000E-01
  8.50000000E-01  8.50000000E-01  8.50000000E-01  8.50000000E-01  8.50000000E-01
  8.50000000E-01  8.50000000E-01  8.50000000E-01  8.50000000E-01  8.50000000E-01
  8.50000000E-01  8.50000000E-01  8.50000000E-01  8.50000000E-01  8.50000000E-01
  8.50000000E-01  8.50000000E-01  8.50000000E-01  8.50000000E-01  8.50000000E-01
  8.50000000E-01  8.50000000E-01  8.50000000E-01  8.50000000E-01  8.50000000E-01
  8.50000000E-01  8.50000000E-01  8.50000000E-01  8.50000000E-01  8.50000000E-01
  8.50000000E-01  8.50000000E-01  8.50000000E-01  8.50000000E-01  8.50000000E-01
  8.50000000E-01  8.50000000E-01  8.50000000E-01  8.50000000E-01  8.50000000E-01
  8.50000000E-01  8.50000000E-01  8.50000000E-01  8.50000000E-01  8.50000000E-01
  8.50000000E-01  8.50000000E-01  8.50000000E-01  8.50000000E-01  8.50000000E-01
  8.50000000E-01  8.50000000E-01  8.50000000E-01  8.50000000E-01  8.50000000E-01
  8.50000000E-01  8.50000000E-01  8.50000000E-01  8.50000000E-01  8.50000000E-01
  8.50000000E-01  8.50000000E-01  8.50000000E-01  8.50000000E-01  8.50000000E-01
  8.50000000E-01  8.50000000E-01  8.50000000E-01  8.50000000E-01  8.50000000E-01
  8.50000000E-01  8.50000000E-01  8.50000000E-01  8.50000000E-01  8.50000000E-01
  8.50000000E-01  8.50000000E-01  8.50000000E-01  8.50000000E-01  8.50000000E-01
  8.50000000E-01  8.50000000E-01  8.50000000E-01  8.50000000E-01  8.50000000E-01
  8.50000000E-01  8.50000000E-01  8.50000000E-01  8.50000000E-01  8.50000000E-01
  8.50000000E-01  8.50000000E-01  8.50000000E-01  8.50000000E-01  8.50000000E-01
  8.50000000E-01  8.50000000E-01  8.50000000E-01  8.50000000E-01  8.50000000E-01
  8.50000000E-01  8.50000000E-01  8.50000000E-01  8.50000000E-01  8.50000000E-01
  8.50000000E-01  8.50000000E-01  8.50000000E-01  8.50000000E-01  8.50000000E-01
  8.50000000E-01  8.50000000E-01  8.50000000E-01  8.50000000E-01  8.50000000E-01
  8.50000000E-01  8.50000000E-01  8.50000000E-01  8.50000000E-01  8.50000000E-01
  8.50000000E-01  8.50000000E-01  8.50000000E-01  8.50000000E-01  8.50000000E-01
  8.50000000E-01  8.50000000E-01  8.50000000E-01  8.50000000E-01  8.50000000E-01
  8.50000000E-01  8.50000000E-01  8.50000000E-01  8.50000000E-01  8.50000000E-01
  8.50000000E-01  8.50000000E-01  8.50000000E-01  8.50000000E-01  8.50000000E-01
  8.50000000E-01  8.50000000E-01  8.50000000E-01  8.50000000E-01  8.50000000E-01
  8.50000000E-01  8.50000000E-01  8.50000000E-01  8.50000000E-01  8.50000000E-01
  8.50000000E-01  8.50000000E-01  8.50000000E-01  8.50000000E-01  8.50000000E-01
  8.50000000E-01  8.50000000E-01  8.50000000E-01  8.50000000E-01  8.50000000E-01
  8.50000000E-01  8.50000000E-01  8.50000000E-01  8.50000000E-01  8.50000000E-01
  8.50000000E-01  8.50000000E-01  8.50000000E-01  8.50000000E-01  8.50000000E-01
  8.50000000E-01  8.50000000E-01  8.50000000E-01  8.50000000E-01  8.50000000E-01
  8.50000000E-01  8.50000000E-01  8.50000000E-01  8.50000000E-01  8.50000000E-01
  8.50000000E-01  8.50000000E-01  8.50000000E-01  8.50000000E-01  8.50000000E-01
  8.50000000E-01  8.50000000E-01  8.50000000E-01  8.50000000E-01  8.50000000E-01
  8.50000000E-01  8.50000000E-01  8.50000000E-01  8.50000000E-01  8.50000000E-01
  8.50000000E-01  8.50000000E-01  8.50000000E-01  8.50000000E-01  8.50000000E-01
  8.50000000E-01  8.50000000E-01  8.50000000E-01  8.50000000E-01  8.50000000E-01
  8.50000000E-01  8.50000000E-01  8.50000000E-01  8.50000000E-01  8.50000000E-01
  8.50000000E-01  8.50000000E-01  8.50000000E-01  8.50000000E-01  8.50000000E-01
  8.50000000E-01  8.50000000E-01  8.50000000E-01  8.50000000E-01  8.50000000E-01
  8.50000000E-01  8.50000000E-01  8.50000000E-01  8.50000000E-01  8.50000000E-01
  8.50000000E-01  8.50000000E-01  8.50000000E-01  8.50000000E-01  8.50000000E-01
  8.50000000E-01  8.50000000E-01  8.50000000E-01  8.50000000E-01  8.50000000E-01
  8.50000000E-01  8.50000000E-01  8.50000000E-01  8.50000000E-01  8.50000000E-01
  8.50000000E-01  8.50000000E-01  8.50000000E-01  8.50000000E-01  8.50000000E-01
  8.50000000E-01  8.50000000E-01  8.50000000E-01  8.50000000E-01  8.50000000E-01
  8.50000000E-01  8.50000000E-01  8.50000000E-01  8.50000000E-01  8.50000000E-01
  8.50000000E-01  8.50000000E-01  8.50000000E-01  8.50000000E-01  8.50000000E-01
  8.50000000E-01  8.50000000E-01  8.50000000E-01  8.50000000E-01  8.50000000E-01
  8.50000000E-01  8.50000000E-01  8.50000000E-01  8.50000000E-01  8.50000000E-01
  8.50000000E-01  8.50000000E-01  8.50000000E-01  8.50000000E-01  8.50000000E-01
  8.50000000E-01  8.50000000E-01  8.50000000E-01  8.50000000E-01  8.50000000E-01
  8.50000000E-01  8.50000000E-01  8.50000000E-01  8.50000000E-01  8.50000000E-01
  8.50000000E-01  8.50000000E-01  8.50000000E-01  8.50000000E-01  8.50000000E-01
  8.50000000E-01  8.50000000E-01  8.50000000E-01  8.50000000E-01  8.50000000E-01
  8.50000000E-01  8.50000000E-01  8.50000000E-01  8.50000000E-01  8.50000000E-01
  8.50000000E-01  8.50000000E-01  8.50000000E-01  8.50000000E-01  8.50000000E-01
  8.50000000E-01  8.50000000E-01  8.50000000E-01  8.50000000E-01  8.50000000E-01
  8.50000000E-01  8.50000000E-01  8.50000000E-01  8.50000000E-01  8.50000000E-01
  8.50000000E-01  8.50000000E-01  8.50000000E-01  8.50000000E-01  8.50000000E-01
  8.50000000E-01  8.50000000E-01  8.50000000E-01  8.50000000E-01  8.50000000E-01
  8.50000000E-01  8.50000000E-01  8.50000000E-01  8.50000000E-01  8.50000000E-01
  8.50000000E-01  8.50000000E-01  8.50000000E-01  8.50000000E-01  8.50000000E-01
  8.50000000E-01  8.50000000E-01  8.50000000E-01  8.50000000E-01  8.50000000E-01
  8.50000000E-01  8.50000000E-01  8.50000000E-01  8.50000000E-01  8.50000000E-01
  8.50000000E-01  8.50000000E-01  8.50000000E-01  8.50000000E-01  8.50000000E-01
  8.50000000E-01  8.50000000E-01  8.50000000E-01  8.50000000E-01  8.50000000E-01
  8.50000000E-01  8.50000000E-01  8.50000000E-01  8.50000000E-01  8.50000000E-01
  8.50000000E-01  8.50000000E-01  8.50000000E-01  8.50000000E-01  8.50000000E-01
  8.50000000E-01  8.50000000E-01  8.50000000E-01  8.50000000E-01  8.50000000E-01
  8.50000000E-01  8.50000000E-01  8.50000000E-01  8.50000000E-01  8.50000000E-01
  8.50000000E-01  8.50000000E-01  8.50000000E-01  8.50000000E-01  8.50000000E-01
  8.50000000E-01  8.50000000E-01  8.50000000E-01  8.50000000E-01  8.50000000E-01
  8.50000000E-01  8.50000000E-01  8.50000000E-01  8.50000000E-01  8.50000000E-01
  8.50000000E-01  8.50000000E-01  8.50000000E-01  8.50000000E-01  8.50000000E-01
  8.50000000E-01  8.50000000E-01  8.50000000E-01  8.50000000E-01  8.50000000E-01
  8.50000000E-01  8.50000000E-01  8.50000000E-01  8.50000000E-01  8.50000000E-01
  8.50000000E-01  8.50000000E-01  8.50000000E-01  8.50000000E-01  8.50000000E-01
  8.50000000E-01  8.50000000E-01  8.50000000E-01  8.50000000E-01  8.50000000E-01
  8.50000000E-01  8.50000000E-01  8.50000000E-01  8.50000000E-01  8.50000000E-01
  8.50000000E-01  8.50000000E-01  8.50000000E-01  8.50000000E-01  8.50000000E-01
  8.50000000E-01  8.50000000E-01  8.50000000E-01  8.50000000E-01  8.50000000E-01
  8.50000000E-01  8.50000000E-01  8.50000000E-01  8.50000000E-01  8.50000000E-01
  8.50000000E-01  8.50000000E-01  8.50000000E-01  8.50000000E-01  8.50000000E-01
  8.50000000E-01  8.50000000E-01  8.50000000E-01  8.50000000E-01  8.50000000E-01
  8.50000000E-01  8.50000000E-01  8.50000000E-01  8.50000000E-01  8.50000000E-01
  8.50000000E-01  8.50000000E-01  8.50000000E-01  8.50000000E-01  8.50000000E-01
  8.50000000E-01  8.50000000E-01  8.50000000E-01  8.50000000E-01  8.50000000E-01
  8.50000000E-01  8.50000000E-01  8.50000000E-01  8.50000000E-01  8.50000000E-01
  8.50000000E-01  8.50000000E-01  8.50000000E-01  8.50000000E-01  8.50000000E-01
  8.50000000E-01  8.50000000E-01  8.50000000E-01  8.50000000E-01  8.50000000E-01
  8.50000000E-01  8.50000000E-01  8.50000000E-01  8.50000000E-01  8.50000000E-01
  8.50000000E-01  8.50000000E-01  8.50000000E-01  8.50000000E-01  8.50000000E-01
  8.50000000E-01  8.50000000E-01  8.50000000E-01  8.50000000E-01  8.50000000E-01
  8.50000000E-01  8.50000000E-01  8.50000000E-01  8.50000000E-01  8.50000000E-01
  8.50000000E-01  8.50000000E-01  8.50000000E-01  8.50000000E-01  8.50000000E-01
  8.50000000E-01  8.50000000E-01  8.50000000E-01  8.50000000E-01  8.50000000E-01
  8.50000000E-01  8.50000000E-01  8.50000000E-01  8.50000000E-01  8.50000000E-01
  8.50000000E-01  8.50000000E-01  8.50000000E-01  8.50000000E-01  8.50000000E-01
  8.50000000E-01  8.50000000E-01  8.50000000E-01  8.50000000E-01  8.50000000E-01
  8.50000000E-01  8.50000000E-01  8.50000000E-01  8.50000000E-01  8.50000000E-01
  8.50000000E-01  8.50000000E-01  8.50000000E-01  8.50000000E-01  8.50000000E-01
  8.50000000E-01  8.50000000E-01  8.50000000E-01  8.50000000E-01  8.50000000E-01
  8.50000000E-01  8.50000000E-01  8.50000000E-01  8.50000000E-01  8.50000000E-01
  8.50000000E-01  8.50000000E-01  8.50000000E-01  8.50000000E-01  8.50000000E-01
  8.50000000E-01  8.50000000E-01  8.50000000E-01  8.50000000E-01  8.50000000E-01
  8.50000000E-01  8.50000000E-01  8.50000000E-01  8.50000000E-01  8.50000000E-01
  8.50000000E-01  8.50000000E-01  8.50000000E-01  8.50000000E-01  8.50000000E-01
  8.50000000E-01  8.50000000E-01  8.50000000E-01  8.50000000E-01  8.50000000E-01
  8.50000000E-01  8.50000000E-01  8.50000000E-01  8.50000000E-01  8.50000000E-01
  8.50000000E-01  8.50000000E-01  8.50000000E-01  8.50000000E-01  8.50000000E-01
  8.50000000E-01  8.50000000E-01  8.50000000E-01  8.50000000E-01  8.50000000E-01
  8.50000000E-01  8.50000000E-01  8.50000000E-01  8.50000000E-01  8.50000000E-01
  8.50000000E-01  8.50000000E-01  8.50000000E-01  8.50000000E-01  8.50000000E-01
  8.50000000E-01  8.50000000E-01  8.50000000E-01  8.50000000E-01  8.50000000E-01
  8.50000000E-01  8.50000000E-01  8.50000000E-01  8.50000000E-01  8.50000000E-01
  8.50000000E-01  8.50000000E-01  8.50000000E-01  8.50000000E-01  8.50000000E-01
  8.50000000E-01  8.50000000E-01  8.50000000E-01  8.50000000E-01  8.50000000E-01
  8.50000000E-01  8.50000000E-01  8.50000000E-01  8.50000000E-01  8.50000000E-01
  8.50000000E-01  8.50000000E-01  8.50000000E-01  8.50000000E-01  8.50000000E-01
  8.50000000E-01  8.50000000E-01  8.50000000E-01  8.50000000E-01  8.50000000E-01
  8.50000000E-01  8.50000000E-01  8.50000000E-01  8.50000000E-01  8.50000000E-01
  8.50000000E-01  8.50000000E-01  8.50000000E-01  8.50000000E-01  8.50000000E-01
  8.50000000E-01  8.50000000E-01  8.50000000E-01  8.50000000E-01  8.50000000E-01
  8.50000000E-01  8.50000000E-01  8.50000000E-01  8.50000000E-01  8.50000000E-01
  8.50000000E-01  8.50000000E-01  8.50000000E-01  8.50000000E-01  8.50000000E-01
  8.50000000E-01  8.50000000E-01  8.50000000E-01  8.50000000E-01  8.50000000E-01
  8.50000000E-01  8.50000000E-01  8.50000000E-01  8.50000000E-01  8.50000000E-01
  8.50000000E-01  8.50000000E-01  8.50000000E-01  8.50000000E-01  8.50000000E-01
  8.50000000E-01  8.50000000E-01  8.50000000E-01  8.50000000E-01  8.50000000E-01
  8.50000000E-01  8.50000000E-01  8.50000000E-01  8.50000000E-01  8.50000000E-01
  8.50000000E-01  8.50000000E-01  8.50000000E-01  8.50000000E-01  8.50000000E-01
  8.50000000E-01  8.50000000E-01  8.50000000E-01  8.50000000E-01  8.50000000E-01
  8.50000000E-01  8.50000000E-01  8.50000000E-01  8.50000000E-01  8.50000000E-01
  8.50000000E-01  8.50000000E-01  8.50000000E-01  8.50000000E-01  8.50000000E-01
  8.50000000E-01  8.50000000E-01  8.50000000E-01  8.50000000E-01  8.50000000E-01
  8.50000000E-01  8.50000000E-01  8.50000000E-01  8.50000000E-01  8.50000000E-01
  8.50000000E-01  8.50000000E-01  8.50000000E-01  8.50000000E-01  8.50000000E-01
  8.50000000E-01  8.50000000E-01  8.50000000E-01  8.50000000E-01  8.50000000E-01
  8.50000000E-01  8.50000000E-01  8.50000000E-01  8.50000000E-01  8.50000000E-01
  8.50000000E-01  8.50000000E-01  8.50000000E-01  8.50000000E-01  8.50000000E-01
  8.50000000E-01  8.50000000E-01  8.50000000E-01  8.50000000E-01  8.50000000E-01
  8.50000000E-01  8.50000000E-01  8.50000000E-01  8.50000000E-01  8.50000000E-01
  8.50000000E-01  8.50000000E-01  8.50000000E-01  8.50000000E-01  8.50000000E-01
  8.50000000E-01  8.50000000E-01  8.50000000E-01  8.50000000E-01  8.50000000E-01
  8.50000000E-01  8.50000000E-01  8.50000000E-01  8.50000000E-01  8.50000000E-01
  8.50000000E-01  8.50000000E-01  8.50000000E-01  8.50000000E-01  8.50000000E-01
  8.50000000E-01  8.50000000E-01  8.50000000E-01  8.50000000E-01  8.50000000E-01
  8.50000000E-01  8.50000000E-01  8.50000000E-01  8.50000000E-01  8.50000000E-01
  8.50000000E-01  8.50000000E-01  8.50000000E-01  8.50000000E-01  8.50000000E-01
  8.50000000E-01  8.50000000E-01  8.50000000E-01  8.50000000E-01  8.50000000E-01
  8.50000000E-01  8.50000000E-01  8.50000000E-01  8.50000000E-01  8.50000000E-01
  8.50000000E-01  8.50000000E-01  8.50000000E-01  8.50000000E-01  8.50000000E-01
  8.50000000E-01  8.50000000E-01  8.50000000E-01  8.50000000E-01  8.50000000E-01
  8.50000000E-01  8.50000000E-01  8.50000000E-01  8.50000000E-01  8.50000000E-01
  8.50000000E-01  8.50000000E-01  8.50000000E-01  8.50000000E-01  8.50000000E-01
  8.50000000E-01  8.50000000E-01  8.50000000E-01  8.50000000E-01  8.50000000E-01
  8.50000000E-01  8.50000000E-01  8.50000000E-01  8.50000000E-01  8.50000000E-01
  8.50000000E-01  8.50000000E-01  8.50000000E-01  8.50000000E-01  8.50000000E-01
  8.50000000E-01  8.50000000E-01  8.50000000E-01  8.50000000E-01  8.50000000E-01
  8.50000000E-01  8.50000000E-01  8.50000000E-01  8.50000000E-01  8.50000000E-01
  8.50000000E-01  8.50000000E-01  8.50000000E-01  8.50000000E-01  8.50000000E-01
  8.50000000E-01  8.50000000E-01  8.50000000E-01  8.50000000E-01  8.50000000E-01
  8.50000000E-01  8.50000000E-01  8.50000000E-01  8.50000000E-01  8.50000000E-01
  8.50000000E-01  8.50000000E-01  8.50000000E-01  8.50000000E-01  8.50000000E-01
  8.50000000E-01  8.50000000E-01  8.50000000E-01  8.50000000E-01  8.50000000E-01
  8.50000000E-01  8.50000000E-01  8.50000000E-01  8.50000000E-01  8.50000000E-01
  8.50000000E-01  8.50000000E-01  8.50000000E-01  8.50000000E-01  8.50000000E-01
  8.50000000E-01  8.50000000E-01  8.50000000E-01  8.50000000E-01  8.50000000E-01
  8.50000000E-01  8.50000000E-01  8.50000000E-01  8.50000000E-01  8.50000000E-01
  8.50000000E-01  8.50000000E-01  8.50000000E-01  8.50000000E-01  8.50000000E-01
  8.50000000E-01  8.50000000E-01  8.50000000E-01  8.50000000E-01  8.50000000E-01
  8.50000000E-01  8.50000000E-01  8.50000000E-01  8.50000000E-01  8.50000000E-01
  8.50000000E-01  8.50000000E-01  8.50000000E-01  8.50000000E-01  8.50000000E-01
  8.50000000E-01  8.50000000E-01  8.50000000E-01  8.50000000E-01  8.50000000E-01
  8.50000000E-01  8.50000000E-01  8.50000000E-01  8.50000000E-01  8.50000000E-01
  8.50000000E-01  8.50000000E-01  8.50000000E-01  8.50000000E-01  8.50000000E-01
  8.50000000E-01  8.50000000E-01  8.50000000E-01  8.50000000E-01  8.50000000E-01
  8.50000000E-01  8.50000000E-01  8.50000000E-01  8.50000000E-01  8.50000000E-01
  8.50000000E-01  8.50000000E-01  8.50000000E-01  8.50000000E-01  8.50000000E-01
  8.50000000E-01  8.50000000E-01  8.50000000E-01  8.50000000E-01  8.50000000E-01
  8.50000000E-01  8.50000000E-01  8.50000000E-01  8.50000000E-01  8.50000000E-01
  8.50000000E-01  8.50000000E-01  8.50000000E-01  8.50000000E-01  8.50000000E-01
  8.50000000E-01  8.50000000E-01  8.50000000E-01  8.50000000E-01  8.50000000E-01
  8.50000000E-01  8.50000000E-01  8.50000000E-01  8.50000000E-01  8.50000000E-01
  8.50000000E-01  8.50000000E-01  8.50000000E-01  8.50000000E-01  8.50000000E-01
  8.50000000E-01  8.50000000E-01  8.50000000E-01  8.50000000E-01  8.50000000E-01
  8.50000000E-01  8.50000000E-01  8.50000000E-01  8.50000000E-01  8.50000000E-01
  8.50000000E-01  8.50000000E-01  8.50000000E-01  8.50000000E-01  8.50000000E-01
  8.50000000E-01  8.50000000E-01  8.50000000E-01  8.50000000E-01  8.50000000E-01
  8.50000000E-01  8.50000000E-01  8.50000000E-01  8.50000000E-01  8.50000000E-01
  8.50000000E-01  8.50000000E-01  8.50000000E-01  8.50000000E-01  8.50000000E-01
  8.50000000E-01  8.50000000E-01  8.50000000E-01  8.50000000E-01  8.50000000E-01
  8.50000000E-01  8.50000000E-01  8.50000000E-01  8.50000000E-01  8.50000000E-01
  8.50000000E-01  8.50000000E-01  8.50000000E-01  8.50000000E-01  8.50000000E-01
  8.50000000E-01  8.50000000E-01  8.50000000E-01  8.50000000E-01  8.50000000E-01
  8.50000000E-01  8.50000000E-01  8.50000000E-01  8.50000000E-01  8.50000000E-01
  8.50000000E-01  8.50000000E-01  8.50000000E-01  8.50000000E-01  8.50000000E-01
  8.50000000E-01  8.50000000E-01  8.50000000E-01  8.50000000E-01  8.50000000E-01
  8.50000000E-01  8.50000000E-01  8.50000000E-01  8.50000000E-01  8.50000000E-01
  8.50000000E-01  8.50000000E-01  8.50000000E-01  8.50000000E-01  8.50000000E-01
  8.50000000E-01  8.50000000E-01  8.50000000E-01  8.50000000E-01  8.50000000E-01
  8.50000000E-01  8.50000000E-01  8.50000000E-01  8.50000000E-01  8.50000000E-01
  8.50000000E-01  8.50000000E-01  8.50000000E-01  8.50000000E-01  8.50000000E-01
  8.50000000E-01  8.50000000E-01  8.50000000E-01  8.50000000E-01  8.50000000E-01
  8.50000000E-01  8.50000000E-01  8.50000000E-01  8.50000000E-01  8.50000000E-01
  8.50000000E-01  8.50000000E-01  8.50000000E-01  8.50000000E-01  8.50000000E-01
  8.50000000E-01  8.50000000E-01  8.50000000E-01  8.50000000E-01  8.50000000E-01
  8.50000000E-01  8.50000000E-01  8.50000000E-01  8.50000000E-01  8.50000000E-01
  8.50000000E-01  8.50000000E-01  8.50000000E-01  8.50000000E-01  8.50000000E-01
  8.50000000E-01  8.50000000E-01  8.50000000E-01  8.50000000E-01  8.50000000E-01
  8.50000000E-01  8.50000000E-01  8.50000000E-01  8.50000000E-01  8.50000000E-01
  8.50000000E-01  8.50000000E-01  8.50000000E-01  8.50000000E-01  8.50000000E-01
  8.50000000E-01  8.50000000E-01  8.50000000E-01  8.50000000E-01  8.50000000E-01
  8.50000000E-01  8.50000000E-01  8.50000000E-01  8.50000000E-01  8.50000000E-01
  8.50000000E-01  8.50000000E-01  8.50000000E-01  8.50000000E-01  8.50000000E-01
  8.50000000E-01  8.50000000E-01  8.50000000E-01  8.50000000E-01  8.50000000E-01
  8.50000000E-01  8.50000000E-01  8.50000000E-01  8.50000000E-01  8.50000000E-01
  8.50000000E-01  8.50000000E-01  8.50000000E-01  8.50000000E-01  8.50000000E-01
  8.50000000E-01  8.50000000E-01  8.50000000E-01  8.50000000E-01  8.50000000E-01
  8.50000000E-01  8.50000000E-01  8.50000000E-01  8.50000000E-01  8.50000000E-01
  8.50000000E-01  8.50000000E-01  8.50000000E-01  8.50000000E-01  8.50000000E-01
  8.50000000E-01  8.50000000E-01  8.50000000E-01  8.50000000E-01  8.50000000E-01
  8.50000000E-01  8.50000000E-01  8.50000000E-01  8.50000000E-01  8.50000000E-01
  8.50000000E-01  8.50000000E-01  8.50000000E-01  8.50000000E-01  8.50000000E-01
  8.50000000E-01  8.50000000E-01  8.50000000E-01  8.50000000E-01  8.50000000E-01
  8.50000000E-01  8.50000000E-01  8.50000000E-01  8.50000000E-01  8.50000000E-01
  8.50000000E-01  8.50000000E-01  8.50000000E-01  8.50000000E-01  8.50000000E-01
  8.50000000E-01  8.50000000E-01  8.50000000E-01  8.50000000E-01  8.50000000E-01
  8.50000000E-01  8.50000000E-01  8.50000000E-01  8.50000000E-01  8.50000000E-01
  8.50000000E-01  8.50000000E-01  8.50000000E-01  8.50000000E-01  8.50000000E-01
  8.50000000E-01  8.50000000E-01  8.50000000E-01  8.50000000E-01  8.50000000E-01
  8.50000000E-01  8.50000000E-01  8.50000000E-01  8.50000000E-01  8.50000000E-01
  8.50000000E-01  8.50000000E-01  8.50000000E-01  8.50000000E-01  8.50000000E-01
  8.50000000E-01  8.50000000E-01  8.50000000E-01  8.50000000E-01  8.50000000E-01
  8.50000000E-01  8.50000000E-01  8.50000000E-01  8.50000000E-01  8.50000000E-01
  8.50000000E-01  8.50000000E-01  8.50000000E-01  8.50000000E-01  8.50000000E-01
  8.50000000E-01  8.50000000E-01  8.50000000E-01  8.50000000E-01  8.50000000E-01
  8.50000000E-01  8.50000000E-01  8.50000000E-01  8.50000000E-01  8.50000000E-01
  8.50000000E-01  8.50000000E-01  8.50000000E-01  8.50000000E-01  8.50000000E-01
  8.50000000E-01  8.50000000E-01  8.50000000E-01  8.50000000E-01  8.50000000E-01
  8.50000000E-01  8.50000000E-01  8.50000000E-01  8.50000000E-01  8.50000000E-01
  8.50000000E-01  8.50000000E-01  8.50000000E-01  8.50000000E-01  8.50000000E-01
  8.50000000E-01  8.50000000E-01  8.50000000E-01  8.50000000E-01  8.50000000E-01
  8.50000000E-01  8.50000000E-01  8.50000000E-01  8.50000000E-01  8.50000000E-01
  8.50000000E-01  8.50000000E-01  8.50000000E-01  8.50000000E-01  8.50000000E-01
  8.50000000E-01  8.50000000E-01  8.50000000E-01  8.50000000E-01  8.50000000E-01
  8.50000000E-01  8.50000000E-01  8.50000000E-01  8.50000000E-01  8.50000000E-01
  8.50000000E-01  8.50000000E-01  8.50000000E-01  8.50000000E-01  8.50000000E-01
  8.50000000E-01  8.50000000E-01  8.50000000E-01  8.50000000E-01  8.50000000E-01
  8.50000000E-01  8.50000000E-01  8.50000000E-01  8.50000000E-01  8.50000000E-01
  8.50000000E-01  8.50000000E-01  8.50000000E-01  8.50000000E-01  8.50000000E-01
  8.50000000E-01  8.50000000E-01  8.50000000E-01  8.50000000E-01  8.50000000E-01
  8.50000000E-01  8.50000000E-01  8.50000000E-01  8.50000000E-01  8.50000000E-01
  8.50000000E-01  8.50000000E-01  8.50000000E-01  8.50000000E-01  8.50000000E-01
  8.50000000E-01  8.50000000E-01  8.50000000E-01  8.50000000E-01  8.50000000E-01
  8.50000000E-01  8.50000000E-01  8.50000000E-01  8.50000000E-01  8.50000000E-01
  8.50000000E-01  8.50000000E-01  8.50000000E-01  8.50000000E-01  8.50000000E-01
  8.50000000E-01  8.50000000E-01  8.50000000E-01  8.50000000E-01  8.50000000E-01
  8.50000000E-01  8.50000000E-01  8.50000000E-01  8.50000000E-01  8.50000000E-01
  8.50000000E-01  8.50000000E-01  8.50000000E-01  8.50000000E-01  8.50000000E-01
  8.50000000E-01  8.50000000E-01  8.50000000E-01  8.50000000E-01  8.50000000E-01
  8.50000000E-01  8.50000000E-01  8.50000000E-01  8.50000000E-01  8.50000000E-01
  8.50000000E-01  8.50000000E-01  8.50000000E-01  8.50000000E-01  8.50000000E-01
  8.50000000E-01  8.50000000E-01  8.50000000E-01  8.50000000E-01  8.50000000E-01
  8.50000000E-01  8.50000000E-01  8.50000000E-01  8.50000000E-01  8.50000000E-01
  8.50000000E-01  8.50000000E-01  8.50000000E-01  8.50000000E-01  8.50000000E-01
  8.50000000E-01  8.50000000E-01  8.50000000E-01  8.50000000E-01  8.50000000E-01
  8.50000000E-01  8.50000000E-01  8.50000000E-01  8.50000000E-01  8.50000000E-01
  8.50000000E-01  8.50000000E-01  8.50000000E-01  8.50000000E-01  8.50000000E-01
  8.50000000E-01  8.50000000E-01  8.50000000E-01  8.50000000E-01  8.50000000E-01
  8.50000000E-01  8.50000000E-01  8.50000000E-01  8.50000000E-01  8.50000000E-01
  8.50000000E-01  8.50000000E-01  8.50000000E-01  8.50000000E-01  8.50000000E-01
  8.50000000E-01  8.50000000E-01  8.50000000E-01  8.50000000E-01  8.50000000E-01
  8.50000000E-01  8.50000000E-01  8.50000000E-01  8.50000000E-01  8.50000000E-01
  8.50000000E-01  8.50000000E-01  8.50000000E-01  8.50000000E-01  8.50000000E-01
  8.50000000E-01  8.50000000E-01  8.50000000E-01  8.50000000E-01  8.50000000E-01
  8.50000000E-01  8.50000000E-01  8.50000000E-01  8.50000000E-01  8.50000000E-01
  8.50000000E-01  8.50000000E-01  8.50000000E-01  8.50000000E-01  8.50000000E-01
  8.50000000E-01  8.50000000E-01  8.50000000E-01  8.50000000E-01  8.50000000E-01
  8.50000000E-01  8.50000000E-01  8.50000000E-01  8.50000000E-01  8.50000000E-01
  8.50000000E-01  8.50000000E-01  8.50000000E-01  8.50000000E-01  8.50000000E-01
  8.50000000E-01  8.50000000E-01  8.50000000E-01  8.50000000E-01  8.50000000E-01
  8.50000000E-01  8.50000000E-01  8.50000000E-01  8.50000000E-01  8.50000000E-01
  8.50000000E-01  8.50000000E-01  8.50000000E-01  8.50000000E-01  8.50000000E-01
  8.50000000E-01  8.50000000E-01  8.50000000E-01  8.50000000E-01  8.50000000E-01
  8.50000000E-01  8.50000000E-01  8.50000000E-01  8.50000000E-01  8.50000000E-01
  8.50000000E-01  8.50000000E-01  8.50000000E-01  8.50000000E-01  8.50000000E-01
  8.50000000E-01  8.50000000E-01  8.50000000E-01  8.50000000E-01  8.50000000E-01
  8.50000000E-01  8.50000000E-01  8.50000000E-01  8.50000000E-01  8.50000000E-01
  8.50000000E-01  8.50000000E-01  8.50000000E-01  8.50000000E-01  8.50000000E-01
  8.50000000E-01  8.50000000E-01  8.50000000E-01  8.50000000E-01  8.50000000E-01
  8.50000000E-01  8.50000000E-01  8.50000000E-01  8.50000000E-01  8.50000000E-01
  8.50000000E-01  8.50000000E-01  8.50000000E-01  8.50000000E-01  8.50000000E-01
  8.50000000E-01  8.50000000E-01  8.50000000E-01  8.50000000E-01  8.50000000E-01
  8.50000000E-01  8.50000000E-01  8.50000000E-01  8.50000000E-01  8.50000000E-01
  8.50000000E-01  8.50000000E-01  8.50000000E-01  8.50000000E-01  8.50000000E-01
  8.50000000E-01  8.50000000E-01  8.50000000E-01  8.50000000E-01  8.50000000E-01
  8.50000000E-01  8.50000000E-01  8.50000000E-01  8.50000000E-01  8.50000000E-01
  8.50000000E-01  8.50000000E-01  8.50000000E-01  8.50000000E-01  8.50000000E-01
  8.50000000E-01  8.50000000E-01  8.50000000E-01  8.50000000E-01  8.50000000E-01
  8.50000000E-01  8.50000000E-01  8.50000000E-01  8.50000000E-01  8.50000000E-01
  8.50000000E-01  8.50000000E-01  8.50000000E-01  8.50000000E-01  8.50000000E-01
  8.50000000E-01  8.50000000E-01  8.50000000E-01  8.50000000E-01  8.50000000E-01
  8.50000000E-01  8.50000000E-01  8.50000000E-01  8.50000000E-01  8.50000000E-01
  8.50000000E-01  8.50000000E-01  8.50000000E-01  8.50000000E-01  8.50000000E-01
  8.50000000E-01  8.50000000E-01  8.50000000E-01  8.50000000E-01  8.50000000E-01
  8.50000000E-01  8.50000000E-01  8.50000000E-01  8.50000000E-01  8.50000000E-01
  8.50000000E-01  8.50000000E-01  8.50000000E-01  8.50000000E-01  8.50000000E-01
  8.50000000E-01  8.50000000E-01  8.50000000E-01  8.50000000E-01  8.50000000E-01
  8.50000000E-01  8.50000000E-01  8.50000000E-01  8.50000000E-01  8.50000000E-01
  8.50000000E-01  8.50000000E-01  8.50000000E-01  8.50000000E-01  8.50000000E-01
  8.50000000E-01  8.50000000E-01  8.50000000E-01  8.50000000E-01  8.50000000E-01
  8.50000000E-01  8.50000000E-01  8.50000000E-01  8.50000000E-01  8.50000000E-01
  8.50000000E-01  8.50000000E-01  8.50000000E-01  8.50000000E-01  8.50000000E-01
  8.50000000E-01  8.50000000E-01  8.50000000E-01  8.50000000E-01  8.50000000E-01
  8.50000000E-01  8.50000000E-01  8.50000000E-01  8.50000000E-01  8.50000000E-01
  8.50000000E-01  8.50000000E-01  8.50000000E-01  8.50000000E-01  8.50000000E-01
  8.50000000E-01  8.50000000E-01  8.50000000E-01  8.50000000E-01  8.50000000E-01
  8.50000000E-01  8.50000000E-01  8.50000000E-01  8.50000000E-01  8.50000000E-01
  8.50000000E-01  8.50000000E-01  8.50000000E-01  8.50000000E-01  8.50000000E-01
  8.50000000E-01  8.50000000E-01  8.50000000E-01  8.50000000E-01  8.50000000E-01
  8.50000000E-01  8.50000000E-01  8.50000000E-01  8.50000000E-01  8.50000000E-01
  8.50000000E-01  8.50000000E-01  8.50000000E-01  8.50000000E-01  8.50000000E-01
  8.50000000E-01  8.50000000E-01  8.50000000E-01  8.50000000E-01  8.50000000E-01
  8.50000000E-01  8.50000000E-01  8.50000000E-01  8.50000000E-01  8.50000000E-01
  8.50000000E-01  8.50000000E-01  8.50000000E-01  8.50000000E-01  8.50000000E-01
  8.50000000E-01  8.50000000E-01  8.50000000E-01  8.50000000E-01  8.50000000E-01
  8.50000000E-01  8.50000000E-01  8.50000000E-01  8.50000000E-01  8.50000000E-01
  8.50000000E-01  8.50000000E-01  8.50000000E-01  8.50000000E-01  8.50000000E-01
  8.50000000E-01  8.50000000E-01  8.50000000E-01  8.50000000E-01  8.50000000E-01
  8.50000000E-01  8.50000000E-01  8.50000000E-01  8.50000000E-01  8.50000000E-01
  8.50000000E-01  8.50000000E-01  8.50000000E-01  8.50000000E-01  8.50000000E-01
  8.50000000E-01  8.50000000E-01  8.50000000E-01  8.50000000E-01  8.50000000E-01
  8.50000000E-01  8.50000000E-01  8.50000000E-01  8.50000000E-01  8.50000000E-01
  8.50000000E-01  8.50000000E-01  8.50000000E-01  8.50000000E-01  8.50000000E-01
  8.50000000E-01  8.50000000E-01  8.50000000E-01  8.50000000E-01  8.50000000E-01
  8.50000000E-01  8.50000000E-01  8.50000000E-01  8.50000000E-01  8.50000000E-01
  8.50000000E-01  8.50000000E-01  8.50000000E-01  8.50000000E-01  8.50000000E-01
  8.50000000E-01  8.50000000E-01  8.50000000E-01  8.50000000E-01  8.50000000E-01
  8.50000000E-01  8.50000000E-01  8.50000000E-01  8.50000000E-01  8.50000000E-01
  8.50000000E-01  8.50000000E-01  8.50000000E-01  8.50000000E-01  8.50000000E-01
  8.50000000E-01  8.50000000E-01  8.50000000E-01  8.50000000E-01  8.50000000E-01
  8.50000000E-01  8.50000000E-01  8.50000000E-01  8.50000000E-01  8.50000000E-01
  8.50000000E-01  8.50000000E-01  8.50000000E-01  8.50000000E-01  8.50000000E-01
  8.50000000E-01  8.50000000E-01  8.50000000E-01  8.50000000E-01  8.50000000E-01
  8.50000000E-01  8.50000000E-01  8.50000000E-01  8.50000000E-01  8.50000000E-01
  8.50000000E-01  8.50000000E-01  8.50000000E-01  8.50000000E-01  8.50000000E-01
  8.50000000E-01  8.50000000E-01  8.50000000E-01  8.50000000E-01  8.50000000E-01
  8.50000000E-01  8.50000000E-01  8.50000000E-01  8.50000000E-01  8.50000000E-01
  8.50000000E-01  8.50000000E-01  8.50000000E-01  8.50000000E-01  8.50000000E-01
  8.50000000E-01  8.50000000E-01  8.50000000E-01  8.50000000E-01  8.50000000E-01
  8.50000000E-01  8.50000000E-01  8.50000000E-01  8.50000000E-01  8.50000000E-01
  8.50000000E-01  8.50000000E-01  8.50000000E-01  8.50000000E-01  8.50000000E-01
  8.50000000E-01  8.50000000E-01  8.50000000E-01  8.50000000E-01  8.50000000E-01
  8.50000000E-01  8.50000000E-01  8.50000000E-01  8.50000000E-01  8.50000000E-01
  8.50000000E-01  8.50000000E-01  8.50000000E-01  8.50000000E-01  8.50000000E-01
  8.50000000E-01  8.50000000E-01  8.50000000E-01  8.50000000E-01  8.50000000E-01
  8.50000000E-01  8.50000000E-01  8.50000000E-01  8.50000000E-01  8.50000000E-01
  8.50000000E-01  8.50000000E-01  8.50000000E-01  8.50000000E-01  8.50000000E-01
  8.50000000E-01  8.50000000E-01  8.50000000E-01  8.50000000E-01  8.50000000E-01
  8.50000000E-01  8.50000000E-01  8.50000000E-01  8.50000000E-01  8.50000000E-01
  8.50000000E-01  8.50000000E-01  8.50000000E-01  8.50000000E-01  8.50000000E-01
  8.50000000E-01  8.50000000E-01  8.50000000E-01  8.50000000E-01  8.50000000E-01
  8.50000000E-01  8.50000000E-01  8.50000000E-01  8.50000000E-01  8.50000000E-01
  8.50000000E-01  8.50000000E-01  8.50000000E-01  8.50000000E-01  8.50000000E-01
  8.50000000E-01  8.50000000E-01  8.50000000E-01  8.50000000E-01  8.50000000E-01
  8.50000000E-01  8.50000000E-01  8.50000000E-01  8.50000000E-01  8.50000000E-01
  8.50000000E-01  8.50000000E-01  8.50000000E-01  8.50000000E-01  8.50000000E-01
  8.50000000E-01  8.50000000E-01  8.50000000E-01  8.50000000E-01  8.50000000E-01
  8.50000000E-01  8.50000000E-01  8.50000000E-01  8.50000000E-01  8.50000000E-01
  8.50000000E-01  8.50000000E-01  8.50000000E-01  8.50000000E-01  8.50000000E-01
  8.50000000E-01  8.50000000E-01  8.50000000E-01  8.50000000E-01  8.50000000E-01
  8.50000000E-01  8.50000000E-01  8.50000000E-01  8.50000000E-01  8.50000000E-01
  8.50000000E-01  8.50000000E-01  8.50000000E-01  8.50000000E-01  8.50000000E-01
  8.50000000E-01  8.50000000E-01  8.50000000E-01  8.50000000E-01  8.50000000E-01
  8.50000000E-01  8.50000000E-01  8.50000000E-01  8.50000000E-01  8.50000000E-01
  8.50000000E-01  8.50000000E-01  8.50000000E-01  8.50000000E-01  8.50000000E-01
  8.50000000E-01  8.50000000E-01  8.50000000E-01  8.50000000E-01  8.50000000E-01
  8.50000000E-01  8.50000000E-01  8.50000000E-01  8.50000000E-01  8.50000000E-01
  8.50000000E-01  8.50000000E-01  8.50000000E-01  8.50000000E-01  8.50000000E-01
  8.50000000E-01  8.50000000E-01  8.50000000E-01  8.50000000E-01  8.50000000E-01
  8.50000000E-01  8.50000000E-01  8.50000000E-01  8.50000000E-01  8.50000000E-01
  8.50000000E-01  8.50000000E-01  8.50000000E-01  8.50000000E-01  8.50000000E-01
  8.50000000E-01  8.50000000E-01  8.50000000E-01  8.50000000E-01  8.50000000E-01
  8.50000000E-01  8.50000000E-01  8.50000000E-01  8.50000000E-01  8.50000000E-01
  8.50000000E-01  8.50000000E-01  8.50000000E-01  8.50000000E-01  8.50000000E-01
  8.50000000E-01  8.50000000E-01  8.50000000E-01  8.50000000E-01  8.50000000E-01
  8.50000000E-01  8.50000000E-01  8.50000000E-01  8.50000000E-01  8.50000000E-01
  8.50000000E-01  8.50000000E-01  8.50000000E-01  8.50000000E-01  8.50000000E-01
  8.50000000E-01  8.50000000E-01  8.50000000E-01  8.50000000E-01  8.50000000E-01
  8.50000000E-01  8.50000000E-01  8.50000000E-01  8.50000000E-01  8.50000000E-01
  8.50000000E-01  8.50000000E-01  8.50000000E-01  8.50000000E-01  8.50000000E-01
  8.50000000E-01  8.50000000E-01  8.50000000E-01  8.50000000E-01  8.50000000E-01
  8.50000000E-01  8.50000000E-01  8.50000000E-01  8.50000000E-01  8.50000000E-01
  8.50000000E-01  8.50000000E-01  8.50000000E-01  8.50000000E-01  8.50000000E-01
  8.50000000E-01  8.50000000E-01  8.50000000E-01  8.50000000E-01  8.50000000E-01
  8.50000000E-01  8.50000000E-01  8.50000000E-01  8.50000000E-01  8.50000000E-01
  8.50000000E-01  8.50000000E-01  8.50000000E-01  8.50000000E-01  8.50000000E-01
  8.50000000E-01  8.50000000E-01  8.50000000E-01  8.50000000E-01  8.50000000E-01
  8.50000000E-01  8.50000000E-01  8.50000000E-01  8.50000000E-01  8.50000000E-01
  8.50000000E-01  8.50000000E-01  8.50000000E-01  8.50000000E-01  8.50000000E-01
  8.50000000E-01  8.50000000E-01  8.50000000E-01  8.50000000E-01  8.50000000E-01
  8.50000000E-01  8.50000000E-01  8.50000000E-01  8.50000000E-01  8.50000000E-01
  8.50000000E-01  8.50000000E-01  8.50000000E-01  8.50000000E-01  8.50000000E-01
  8.50000000E-01  8.50000000E-01  8.50000000E-01  8.50000000E-01  8.50000000E-01
  8.50000000E-01  8.50000000E-01  8.50000000E-01  8.50000000E-01  8.50000000E-01
  8.50000000E-01  8.50000000E-01  8.50000000E-01  8.50000000E-01  8.50000000E-01
  8.50000000E-01  8.50000000E-01  8.50000000E-01  8.50000000E-01  8.50000000E-01
  8.50000000E-01  8.50000000E-01  8.50000000E-01  8.50000000E-01  8.50000000E-01
  8.50000000E-01  8.50000000E-01  8.50000000E-01  8.50000000E-01  8.50000000E-01
  8.50000000E-01  8.50000000E-01  8.50000000E-01  8.50000000E-01  8.50000000E-01
  8.50000000E-01  8.50000000E-01  8.50000000E-01  8.50000000E-01  8.50000000E-01
  8.50000000E-01  8.50000000E-01  8.50000000E-01  8.50000000E-01  8.50000000E-01
  8.50000000E-01  8.50000000E-01  8.50000000E-01  8.50000000E-01  8.50000000E-01
  8.50000000E-01  8.50000000E-01  8.50000000E-01  8.50000000E-01  8.50000000E-01
  8.50000000E-01  8.50000000E-01  8.50000000E-01  8.50000000E-01  8.50000000E-01
  8.50000000E-01  8.50000000E-01  8.50000000E-01  8.50000000E-01  8.50000000E-01
  8.50000000E-01  8.50000000E-01  8.50000000E-01  8.50000000E-01  8.50000000E-01
  8.50000000E-01  8.50000000E-01  8.50000000E-01  8.50000000E-01  8.50000000E-01
  8.50000000E-01  8.50000000E-01  8.50000000E-01  8.50000000E-01  8.50000000E-01
  8.50000000E-01  8.50000000E-01  8.50000000E-01  8.50000000E-01  8.50000000E-01
  8.50000000E-01  8.50000000E-01  8.50000000E-01  8.50000000E-01  8.50000000E-01
  8.50000000E-01  8.50000000E-01  8.50000000E-01  8.50000000E-01  8.50000000E-01
  8.50000000E-01  8.50000000E-01  8.50000000E-01  8.50000000E-01  8.50000000E-01
  8.50000000E-01  8.50000000E-01  8.50000000E-01  8.50000000E-01  8.50000000E-01
  8.50000000E-01  8.50000000E-01  8.50000000E-01  8.50000000E-01  8.50000000E-01
  8.50000000E-01  8.50000000E-01  8.50000000E-01  8.50000000E-01  8.50000000E-01
  8.50000000E-01  8.50000000E-01  8.50000000E-01  8.50000000E-01  8.50000000E-01
  8.50000000E-01  8.50000000E-01  8.50000000E-01  8.50000000E-01  8.50000000E-01
  8.50000000E-01  8.50000000E-01  8.50000000E-01  8.50000000E-01  8.50000000E-01
  8.50000000E-01  8.50000000E-01  8.50000000E-01  8.50000000E-01  8.50000000E-01
  8.50000000E-01  8.50000000E-01  8.50000000E-01  8.50000000E-01  8.50000000E-01
  8.50000000E-01  8.50000000E-01  8.50000000E-01  8.50000000E-01  8.50000000E-01
  8.50000000E-01  8.50000000E-01  8.50000000E-01  8.50000000E-01  8.50000000E-01
  8.50000000E-01  8.50000000E-01  8.50000000E-01  8.50000000E-01  8.50000000E-01
  8.50000000E-01  8.50000000E-01  8.50000000E-01  8.50000000E-01  8.50000000E-01
  8.50000000E-01  8.50000000E-01  8.50000000E-01  8.50000000E-01  8.50000000E-01
  8.50000000E-01  8.50000000E-01  8.50000000E-01  8.50000000E-01  8.50000000E-01
  8.50000000E-01  8.50000000E-01  8.50000000E-01  8.50000000E-01  8.50000000E-01
  8.50000000E-01  8.50000000E-01  8.50000000E-01  8.50000000E-01  8.50000000E-01
  8.50000000E-01  8.50000000E-01  8.50000000E-01  8.50000000E-01  8.50000000E-01
  8.50000000E-01  8.50000000E-01  8.50000000E-01  8.50000000E-01  8.50000000E-01
  8.50000000E-01  8.50000000E-01  8.50000000E-01  8.50000000E-01  8.50000000E-01
  8.50000000E-01  8.50000000E-01  8.50000000E-01  8.50000000E-01  8.50000000E-01
  8.50000000E-01  8.50000000E-01  8.50000000E-01  8.50000000E-01  8.50000000E-01
  8.50000000E-01  8.50000000E-01  8.50000000E-01  8.50000000E-01  8.50000000E-01
  8.50000000E-01  8.50000000E-01  8.50000000E-01  8.50000000E-01  8.50000000E-01
  8.50000000E-01  8.50000000E-01  8.50000000E-01  8.50000000E-01  8.50000000E-01
  8.50000000E-01  8.50000000E-01  8.50000000E-01  8.50000000E-01  8.50000000E-01
  8.50000000E-01  8.50000000E-01  8.50000000E-01  8.50000000E-01  8.50000000E-01
  8.50000000E-01  8.50000000E-01  8.50000000E-01  8.50000000E-01  8.50000000E-01
  8.50000000E-01  8.50000000E-01  8.50000000E-01  8.50000000E-01  8.50000000E-01
  8.50000000E-01  8.50000000E-01  8.50000000E-01  8.50000000E-01  8.50000000E-01
  8.50000000E-01  8.50000000E-01  8.50000000E-01  8.50000000E-01  8.50000000E-01
  8.50000000E-01  8.50000000E-01  8.50000000E-01  8.50000000E-01  8.50000000E-01
  8.50000000E-01  8.50000000E-01  8.50000000E-01  8.50000000E-01  8.50000000E-01
  8.50000000E-01  8.50000000E-01  8.50000000E-01  8.50000000E-01  8.50000000E-01
  8.50000000E-01  8.50000000E-01  8.50000000E-01  8.50000000E-01  8.50000000E-01
  8.50000000E-01  8.50000000E-01  8.50000000E-01  8.50000000E-01  8.50000000E-01
  8.50000000E-01  8.50000000E-01  8.50000000E-01  8.50000000E-01  8.50000000E-01
  8.50000000E-01  8.50000000E-01  8.50000000E-01  8.50000000E-01  8.50000000E-01
  8.50000000E-01  8.50000000E-01  8.50000000E-01  8.50000000E-01  8.50000000E-01
  8.50000000E-01  8.50000000E-01  8.50000000E-01  8.50000000E-01  8.50000000E-01
  8.50000000E-01  8.50000000E-01  8.50000000E-01  8.50000000E-01  8.50000000E-01
  8.50000000E-01  8.50000000E-01  8.50000000E-01  8.50000000E-01  8.50000000E-01
  8.50000000E-01  8.50000000E-01  8.50000000E-01  8.50000000E-01  8.50000000E-01
  8.50000000E-01  8.50000000E-01  8.50000000E-01  8.50000000E-01  8.50000000E-01
  8.50000000E-01  8.50000000E-01  8.50000000E-01  8.50000000E-01  8.50000000E-01
  8.50000000E-01  8.50000000E-01  8.50000000E-01  8.50000000E-01  8.50000000E-01
  8.50000000E-01  8.50000000E-01  8.50000000E-01  8.50000000E-01  8.50000000E-01
  8.50000000E-01  8.50000000E-01  8.50000000E-01  8.50000000E-01  8.50000000E-01
  8.50000000E-01  8.50000000E-01  8.50000000E-01  8.50000000E-01  8.50000000E-01
  8.50000000E-01  8.50000000E-01  8.50000000E-01  8.50000000E-01  8.50000000E-01
  8.50000000E-01  8.50000000E-01  8.50000000E-01  8.50000000E-01  8.50000000E-01
  8.50000000E-01  8.50000000E-01  8.50000000E-01  8.50000000E-01  8.50000000E-01
  8.50000000E-01  8.50000000E-01  8.50000000E-01  8.50000000E-01  8.50000000E-01
  8.50000000E-01  8.50000000E-01  8.50000000E-01  8.50000000E-01  8.50000000E-01
  8.50000000E-01  8.50000000E-01  8.50000000E-01  8.50000000E-01  8.50000000E-01
  8.50000000E-01  8.50000000E-01  8.50000000E-01  8.50000000E-01  8.50000000E-01
  8.50000000E-01  8.50000000E-01  8.50000000E-01  8.50000000E-01  8.50000000E-01
  8.50000000E-01  8.50000000E-01  8.50000000E-01  8.50000000E-01  8.50000000E-01
  8.50000000E-01  8.50000000E-01  8.50000000E-01  8.50000000E-01  8.50000000E-01
  8.50000000E-01  8.50000000E-01  8.50000000E-01  8.50000000E-01  8.50000000E-01
  8.50000000E-01  8.50000000E-01  8.50000000E-01  8.50000000E-01  8.50000000E-01
  8.50000000E-01  8.50000000E-01  8.50000000E-01  8.50000000E-01  8.50000000E-01
  8.50000000E-01  8.50000000E-01  8.50000000E-01  8.50000000E-01  8.50000000E-01
  8.50000000E-01  8.50000000E-01  8.50000000E-01  8.50000000E-01  8.50000000E-01
  8.50000000E-01  8.50000000E-01  8.50000000E-01  8.50000000E-01  8.50000000E-01
  8.50000000E-01  8.50000000E-01  8.50000000E-01  8.50000000E-01  8.50000000E-01
  8.50000000E-01  8.50000000E-01  8.50000000E-01  8.50000000E-01  8.50000000E-01
  8.50000000E-01  8.50000000E-01  8.50000000E-01  8.50000000E-01  8.50000000E-01
  8.50000000E-01  8.50000000E-01  8.50000000E-01  8.50000000E-01  8.50000000E-01
  8.50000000E-01  8.50000000E-01  8.50000000E-01  8.50000000E-01  8.50000000E-01
  8.50000000E-01  8.50000000E-01  8.50000000E-01  8.50000000E-01  8.50000000E-01
  8.50000000E-01  8.50000000E-01  8.50000000E-01  8.50000000E-01  8.50000000E-01
  8.50000000E-01  8.50000000E-01  8.50000000E-01  8.50000000E-01  8.50000000E-01
  8.50000000E-01  8.50000000E-01  8.50000000E-01  8.50000000E-01  8.50000000E-01
  8.50000000E-01  8.50000000E-01  8.50000000E-01  8.50000000E-01  8.50000000E-01
  8.50000000E-01  8.50000000E-01  8.50000000E-01  8.50000000E-01  8.50000000E-01
  8.50000000E-01  8.50000000E-01  8.50000000E-01  8.50000000E-01  8.50000000E-01
  8.50000000E-01  8.50000000E-01  8.50000000E-01  8.50000000E-01  8.50000000E-01
  8.50000000E-01  8.50000000E-01  8.50000000E-01  8.50000000E-01  8.50000000E-01
  8.50000000E-01  8.50000000E-01  8.50000000E-01  8.50000000E-01  8.50000000E-01
  8.50000000E-01  8.50000000E-01  8.50000000E-01  8.50000000E-01  8.50000000E-01
  8.50000000E-01  8.50000000E-01  8.50000000E-01  8.50000000E-01  8.50000000E-01
  8.50000000E-01  8.50000000E-01  8.50000000E-01  8.50000000E-01  8.50000000E-01
  8.50000000E-01  8.50000000E-01  8.50000000E-01  8.50000000E-01  8.50000000E-01
  8.50000000E-01  8.50000000E-01  8.50000000E-01  8.50000000E-01  8.50000000E-01
  8.50000000E-01  8.50000000E-01  8.50000000E-01  8.50000000E-01  8.50000000E-01
  8.50000000E-01  8.50000000E-01  8.50000000E-01  8.50000000E-01  8.50000000E-01
  8.50000000E-01  8.50000000E-01  8.50000000E-01  8.50000000E-01  8.50000000E-01
  8.50000000E-01  8.50000000E-01  8.50000000E-01  8.50000000E-01  8.50000000E-01
  8.50000000E-01  8.50000000E-01  8.50000000E-01  8.50000000E-01  8.50000000E-01
  8.50000000E-01  8.50000000E-01  8.50000000E-01  8.50000000E-01  8.50000000E-01
  8.50000000E-01  8.50000000E-01  8.50000000E-01  8.50000000E-01  8.50000000E-01
  8.50000000E-01  8.50000000E-01  8.50000000E-01  8.50000000E-01  8.50000000E-01
  8.50000000E-01  8.50000000E-01  8.50000000E-01  8.50000000E-01  8.50000000E-01
  8.50000000E-01  8.50000000E-01  8.50000000E-01  8.50000000E-01  8.50000000E-01
  8.50000000E-01  8.50000000E-01  8.50000000E-01  8.50000000E-01  8.50000000E-01
  8.50000000E-01  8.50000000E-01  8.50000000E-01  8.50000000E-01  8.50000000E-01
  8.50000000E-01  8.50000000E-01  8.50000000E-01  8.50000000E-01  8.50000000E-01
  8.50000000E-01  8.50000000E-01  8.50000000E-01  8.50000000E-01  8.50000000E-01
  8.50000000E-01  8.50000000E-01  8.50000000E-01  8.50000000E-01  8.50000000E-01
  8.50000000E-01  8.50000000E-01  8.50000000E-01  8.50000000E-01  8.50000000E-01
  8.50000000E-01  8.50000000E-01  8.50000000E-01  8.50000000E-01  8.50000000E-01
  8.50000000E-01  8.50000000E-01  8.50000000E-01  8.50000000E-01  8.50000000E-01
  8.50000000E-01  8.50000000E-01  8.50000000E-01  8.50000000E-01  8.50000000E-01
  8.50000000E-01  8.50000000E-01  8.50000000E-01  8.50000000E-01  8.50000000E-01
  8.50000000E-01  8.50000000E-01  8.50000000E-01  8.50000000E-01  8.50000000E-01
  8.50000000E-01  8.50000000E-01  8.50000000E-01  8.50000000E-01  8.50000000E-01
  8.50000000E-01  8.50000000E-01  8.50000000E-01  8.50000000E-01  8.50000000E-01
  8.50000000E-01  8.50000000E-01  8.50000000E-01  8.50000000E-01  8.50000000E-01
  8.50000000E-01  8.50000000E-01  8.50000000E-01  8.50000000E-01  8.50000000E-01
  8.50000000E-01  8.50000000E-01  8.50000000E-01  8.50000000E-01  8.50000000E-01
  8.50000000E-01  8.50000000E-01  8.50000000E-01  8.50000000E-01  8.50000000E-01
  8.50000000E-01  8.50000000E-01  8.50000000E-01  8.50000000E-01  8.50000000E-01
  8.50000000E-01  8.50000000E-01  8.50000000E-01  8.50000000E-01  8.50000000E-01
  8.50000000E-01  8.50000000E-01  8.50000000E-01  8.50000000E-01  8.50000000E-01
  8.50000000E-01  8.50000000E-01  8.50000000E-01  8.50000000E-01  8.50000000E-01
  8.50000000E-01  8.50000000E-01  8.50000000E-01  8.50000000E-01  8.50000000E-01
  8.50000000E-01  8.50000000E-01  8.50000000E-01  8.50000000E-01  8.50000000E-01
  8.50000000E-01  8.50000000E-01  8.50000000E-01  8.50000000E-01  8.50000000E-01
  8.50000000E-01  8.50000000E-01  8.50000000E-01  8.50000000E-01  8.50000000E-01
  8.50000000E-01  8.50000000E-01  8.50000000E-01  8.50000000E-01  8.50000000E-01
  8.50000000E-01  8.50000000E-01  8.50000000E-01  8.50000000E-01  8.50000000E-01
  8.50000000E-01  8.50000000E-01  8.50000000E-01  8.50000000E-01  8.50000000E-01
  8.50000000E-01  8.50000000E-01  8.50000000E-01  8.50000000E-01  8.50000000E-01
  8.50000000E-01  8.50000000E-01  8.50000000E-01  8.50000000E-01  8.50000000E-01
  8.50000000E-01  8.50000000E-01  8.50000000E-01  8.50000000E-01  8.50000000E-01
  8.50000000E-01  8.50000000E-01  8.50000000E-01  8.50000000E-01  8.50000000E-01
  8.50000000E-01  8.50000000E-01  8.50000000E-01  8.50000000E-01  8.50000000E-01
  8.50000000E-01  8.50000000E-01  8.50000000E-01  8.50000000E-01  8.50000000E-01
  8.50000000E-01  8.50000000E-01  8.50000000E-01  8.50000000E-01  8.50000000E-01
  8.50000000E-01  8.50000000E-01  8.50000000E-01  8.50000000E-01  8.50000000E-01
  8.50000000E-01  8.50000000E-01  8.50000000E-01  8.50000000E-01  8.50000000E-01
  8.50000000E-01  8.50000000E-01  8.50000000E-01  8.50000000E-01  8.50000000E-01
  8.50000000E-01  8.50000000E-01  8.50000000E-01  8.50000000E-01  8.50000000E-01
  8.50000000E-01  8.50000000E-01  8.50000000E-01  8.50000000E-01  8.50000000E-01
  8.50000000E-01  8.50000000E-01  8.50000000E-01  8.50000000E-01  8.50000000E-01
  8.50000000E-01  8.50000000E-01  8.50000000E-01  8.50000000E-01  8.50000000E-01
  8.50000000E-01  8.50000000E-01  8.50000000E-01  8.50000000E-01  8.50000000E-01
  8.50000000E-01  8.50000000E-01  8.50000000E-01  8.50000000E-01  8.50000000E-01
  8.50000000E-01  8.50000000E-01  8.50000000E-01  8.50000000E-01  8.50000000E-01
  8.50000000E-01  8.50000000E-01  8.50000000E-01  8.50000000E-01  8.50000000E-01
  8.50000000E-01  8.50000000E-01  8.50000000E-01  8.50000000E-01  8.50000000E-01
  8.50000000E-01  8.50000000E-01  8.50000000E-01  8.50000000E-01  8.50000000E-01
  8.50000000E-01  8.50000000E-01  8.50000000E-01  8.50000000E-01  8.50000000E-01
  8.50000000E-01  8.50000000E-01  8.50000000E-01  8.50000000E-01  8.50000000E-01
  8.50000000E-01  8.50000000E-01  8.50000000E-01  8.50000000E-01  8.50000000E-01
  8.50000000E-01  8.50000000E-01  8.50000000E-01  8.50000000E-01  8.50000000E-01
  8.50000000E-01  8.50000000E-01  8.50000000E-01  8.50000000E-01  8.50000000E-01
  8.50000000E-01  8.50000000E-01  8.50000000E-01  8.50000000E-01  8.50000000E-01
  8.50000000E-01  8.50000000E-01  8.50000000E-01  8.50000000E-01  8.50000000E-01
  8.50000000E-01  8.50000000E-01  8.50000000E-01  8.50000000E-01  8.50000000E-01
  8.50000000E-01  8.50000000E-01  8.50000000E-01  8.50000000E-01  8.50000000E-01
  8.50000000E-01  8.50000000E-01  8.50000000E-01  8.50000000E-01  8.50000000E-01
  8.50000000E-01  8.50000000E-01  8.50000000E-01  8.50000000E-01  8.50000000E-01
  8.50000000E-01  8.50000000E-01  8.50000000E-01  8.50000000E-01  8.50000000E-01
  8.50000000E-01  8.50000000E-01  8.50000000E-01  8.50000000E-01  8.50000000E-01
  8.50000000E-01  8.50000000E-01  8.50000000E-01  8.50000000E-01  8.50000000E-01
  8.50000000E-01  8.50000000E-01  8.50000000E-01  8.50000000E-01  8.50000000E-01
  8.50000000E-01  8.50000000E-01  8.50000000E-01  8.50000000E-01  8.50000000E-01
  8.50000000E-01  8.50000000E-01  8.50000000E-01  8.50000000E-01  8.50000000E-01
  8.50000000E-01  8.50000000E-01  8.50000000E-01  8.50000000E-01  8.50000000E-01
  8.50000000E-01  8.50000000E-01  8.50000000E-01  8.50000000E-01  8.50000000E-01
  8.50000000E-01  8.50000000E-01  8.50000000E-01  8.50000000E-01  8.50000000E-01
  8.50000000E-01  8.50000000E-01  8.50000000E-01  8.50000000E-01  8.50000000E-01
  8.50000000E-01  8.50000000E-01  8.50000000E-01  8.50000000E-01  8.50000000E-01
  8.50000000E-01  8.50000000E-01  8.50000000E-01  8.50000000E-01  8.50000000E-01
  8.50000000E-01  8.50000000E-01  8.50000000E-01  8.50000000E-01  8.50000000E-01
  8.50000000E-01  8.50000000E-01  8.50000000E-01  8.50000000E-01  8.50000000E-01
  8.50000000E-01  8.50000000E-01  8.50000000E-01  8.50000000E-01  8.50000000E-01
  8.50000000E-01  8.50000000E-01  8.50000000E-01  8.50000000E-01  8.50000000E-01
  8.50000000E-01  8.50000000E-01  8.50000000E-01  8.50000000E-01  8.50000000E-01
  8.50000000E-01  8.50000000E-01  8.50000000E-01  8.50000000E-01  8.50000000E-01
  8.50000000E-01  8.50000000E-01  8.50000000E-01  8.50000000E-01  8.50000000E-01
  8.50000000E-01  8.50000000E-01  8.50000000E-01  8.50000000E-01  8.50000000E-01
  8.50000000E-01  8.50000000E-01  8.50000000E-01  8.50000000E-01  8.50000000E-01
  8.50000000E-01  8.50000000E-01  8.50000000E-01  8.50000000E-01  8.50000000E-01
  8.50000000E-01  8.50000000E-01  8.50000000E-01  8.50000000E-01  8.50000000E-01
  8.50000000E-01  8.50000000E-01  8.50000000E-01  8.50000000E-01  8.50000000E-01
  8.50000000E-01  8.50000000E-01  8.50000000E-01  8.50000000E-01  8.50000000E-01
  8.50000000E-01  8.50000000E-01  8.50000000E-01  8.50000000E-01  8.50000000E-01
  8.50000000E-01  8.50000000E-01  8.50000000E-01  8.50000000E-01  8.50000000E-01
  8.50000000E-01  8.50000000E-01  8.50000000E-01  8.50000000E-01  8.50000000E-01
  8.50000000E-01  8.50000000E-01  8.50000000E-01  8.50000000E-01  8.50000000E-01
  8.50000000E-01  8.50000000E-01  8.50000000E-01  8.50000000E-01  8.50000000E-01
  8.50000000E-01  8.50000000E-01  8.50000000E-01  8.50000000E-01  8.50000000E-01
  8.50000000E-01  8.50000000E-01  8.50000000E-01  8.50000000E-01  8.50000000E-01
  8.50000000E-01  8.50000000E-01  8.50000000E-01  8.50000000E-01  8.50000000E-01
  8.50000000E-01  8.50000000E-01  8.50000000E-01  8.50000000E-01  8.50000000E-01
  8.50000000E-01  8.50000000E-01  8.50000000E-01  8.50000000E-01  8.50000000E-01
  8.50000000E-01  8.50000000E-01  8.50000000E-01  8.50000000E-01  8.50000000E-01
  8.50000000E-01  8.50000000E-01  8.50000000E-01  8.50000000E-01  8.50000000E-01
  8.50000000E-01  8.50000000E-01  8.50000000E-01  8.50000000E-01  8.50000000E-01
  8.50000000E-01  8.50000000E-01  8.50000000E-01  8.50000000E-01  8.50000000E-01
  8.50000000E-01  8.50000000E-01  8.50000000E-01  8.50000000E-01  8.50000000E-01
  8.50000000E-01  8.50000000E-01  8.50000000E-01  8.50000000E-01  8.50000000E-01
  8.50000000E-01  8.50000000E-01  8.50000000E-01  8.50000000E-01  8.50000000E-01
  8.50000000E-01  8.50000000E-01  8.50000000E-01  8.50000000E-01  8.50000000E-01
  8.50000000E-01  8.50000000E-01  8.50000000E-01  8.50000000E-01  8.50000000E-01
  8.50000000E-01  8.50000000E-01  8.50000000E-01  8.50000000E-01  8.50000000E-01
  8.50000000E-01  8.50000000E-01  8.50000000E-01  8.50000000E-01  8.50000000E-01
  8.50000000E-01  8.50000000E-01  8.50000000E-01  8.50000000E-01  8.50000000E-01
  8.50000000E-01  8.50000000E-01  8.50000000E-01  8.50000000E-01  8.50000000E-01
  8.50000000E-01  8.50000000E-01  8.50000000E-01  8.50000000E-01  8.50000000E-01
  8.50000000E-01  8.50000000E-01  8.50000000E-01  8.50000000E-01  8.50000000E-01
  8.50000000E-01  8.50000000E-01  8.50000000E-01  8.50000000E-01  8.50000000E-01
  8.50000000E-01  8.50000000E-01  8.50000000E-01  8.50000000E-01  8.50000000E-01
  8.50000000E-01  8.50000000E-01  8.50000000E-01  8.50000000E-01  8.50000000E-01
  8.50000000E-01  8.50000000E-01  8.50000000E-01  8.50000000E-01  8.50000000E-01
  8.50000000E-01  8.50000000E-01  8.50000000E-01  8.50000000E-01  8.50000000E-01
  8.50000000E-01  8.50000000E-01  8.50000000E-01  8.50000000E-01  8.50000000E-01
  8.50000000E-01  8.50000000E-01  8.50000000E-01  8.50000000E-01  8.50000000E-01
  8.50000000E-01  8.50000000E-01  8.50000000E-01  8.50000000E-01  8.50000000E-01
  8.50000000E-01  8.50000000E-01  8.50000000E-01  8.50000000E-01  8.50000000E-01
  8.50000000E-01  8.50000000E-01  8.50000000E-01  8.50000000E-01  8.50000000E-01
  8.50000000E-01  8.50000000E-01  8.50000000E-01  8.50000000E-01  8.50000000E-01
  8.50000000E-01  8.50000000E-01  8.50000000E-01  8.50000000E-01  8.50000000E-01
  8.50000000E-01  8.50000000E-01  8.50000000E-01  8.50000000E-01  8.50000000E-01
  8.50000000E-01  8.50000000E-01  8.50000000E-01  8.50000000E-01  8.50000000E-01
  8.50000000E-01  8.50000000E-01  8.50000000E-01  8.50000000E-01  8.50000000E-01
  8.50000000E-01  8.50000000E-01  8.50000000E-01  8.50000000E-01  8.50000000E-01
  8.50000000E-01  8.50000000E-01  8.50000000E-01  8.50000000E-01  8.50000000E-01
  8.50000000E-01  8.50000000E-01  8.50000000E-01  8.50000000E-01  8.50000000E-01
  8.50000000E-01  8.50000000E-01  8.50000000E-01  8.50000000E-01  8.50000000E-01
  8.50000000E-01  8.50000000E-01  8.50000000E-01  8.50000000E-01  8.50000000E-01
  8.50000000E-01  8.50000000E-01  8.50000000E-01  8.50000000E-01  8.50000000E-01
  8.50000000E-01  8.50000000E-01  8.50000000E-01  8.50000000E-01  8.50000000E-01
  8.50000000E-01  8.50000000E-01  8.50000000E-01  8.50000000E-01  8.50000000E-01
  8.50000000E-01  8.50000000E-01  8.50000000E-01  8.50000000E-01  8.50000000E-01
  8.50000000E-01  8.50000000E-01  8.50000000E-01  8.50000000E-01  8.50000000E-01
  8.50000000E-01  8.50000000E-01  8.50000000E-01  8.50000000E-01  8.50000000E-01
  8.50000000E-01  8.50000000E-01  8.50000000E-01  8.50000000E-01  8.50000000E-01
  8.50000000E-01  8.50000000E-01  8.50000000E-01  8.50000000E-01  8.50000000E-01
  8.50000000E-01  8.50000000E-01  8.50000000E-01  8.50000000E-01  8.50000000E-01
  8.50000000E-01  8.50000000E-01  8.50000000E-01  8.50000000E-01  8.50000000E-01
  8.50000000E-01  8.50000000E-01  8.50000000E-01  8.50000000E-01  8.50000000E-01
  8.50000000E-01  8.50000000E-01  8.50000000E-01  8.50000000E-01  8.50000000E-01
  8.50000000E-01  8.50000000E-01  8.50000000E-01  8.50000000E-01  8.50000000E-01
  8.50000000E-01  8.50000000E-01  8.50000000E-01  8.50000000E-01  8.50000000E-01
  8.50000000E-01  8.50000000E-01  8.50000000E-01  8.50000000E-01  8.50000000E-01
  8.50000000E-01  8.50000000E-01  8.50000000E-01  8.50000000E-01  8.50000000E-01
  8.50000000E-01  8.50000000E-01  8.50000000E-01  8.50000000E-01  8.50000000E-01
  8.50000000E-01  8.50000000E-01  8.50000000E-01  8.50000000E-01  8.50000000E-01
  8.50000000E-01  8.50000000E-01  8.50000000E-01  8.50000000E-01  8.50000000E-01
  8.50000000E-01  8.50000000E-01  8.50000000E-01  8.50000000E-01  8.50000000E-01
  8.50000000E-01  8.50000000E-01  8.50000000E-01  8.50000000E-01  8.50000000E-01
  8.50000000E-01  8.50000000E-01  8.50000000E-01  8.50000000E-01  8.50000000E-01
  8.50000000E-01  8.50000000E-01  8.50000000E-01  8.50000000E-01  8.50000000E-01
  8.50000000E-01  8.50000000E-01  8.50000000E-01  8.50000000E-01  8.50000000E-01
  8.50000000E-01  8.50000000E-01  8.50000000E-01  8.50000000E-01  8.50000000E-01
  8.50000000E-01  8.50000000E-01  8.50000000E-01  8.50000000E-01  8.50000000E-01
  8.50000000E-01  8.50000000E-01  8.50000000E-01  8.50000000E-01  8.50000000E-01
  8.50000000E-01  8.50000000E-01  8.50000000E-01  8.50000000E-01  8.50000000E-01
  8.50000000E-01  8.50000000E-01  8.50000000E-01  8.50000000E-01  8.50000000E-01
  8.50000000E-01  8.50000000E-01  8.50000000E-01  8.50000000E-01  8.50000000E-01
  8.50000000E-01  8.50000000E-01  8.50000000E-01  8.50000000E-01  8.50000000E-01
  8.50000000E-01  8.50000000E-01  8.50000000E-01  8.50000000E-01  8.50000000E-01
  8.50000000E-01  8.50000000E-01  8.50000000E-01  8.50000000E-01  8.50000000E-01
  8.50000000E-01  8.50000000E-01  8.50000000E-01  8.50000000E-01  8.50000000E-01
  8.50000000E-01  8.50000000E-01  8.50000000E-01  8.50000000E-01  8.50000000E-01
  8.50000000E-01  8.50000000E-01  8.50000000E-01  8.50000000E-01  8.50000000E-01
  8.50000000E-01  8.50000000E-01  8.50000000E-01  8.50000000E-01  8.50000000E-01
  8.50000000E-01  8.50000000E-01  8.50000000E-01  8.50000000E-01  8.50000000E-01
  8.50000000E-01  8.50000000E-01  8.50000000E-01  8.50000000E-01  8.50000000E-01
  8.50000000E-01  8.50000000E-01  8.50000000E-01  8.50000000E-01  8.50000000E-01
  8.50000000E-01  8.50000000E-01  8.50000000E-01  8.50000000E-01  8.50000000E-01
  8.50000000E-01  8.50000000E-01  8.50000000E-01  8.50000000E-01  8.50000000E-01
  8.50000000E-01  8.50000000E-01  8.50000000E-01  8.50000000E-01  8.50000000E-01
  8.50000000E-01  8.50000000E-01  8.50000000E-01  8.50000000E-01  8.50000000E-01
  8.50000000E-01  8.50000000E-01  8.50000000E-01  8.50000000E-01  8.50000000E-01
  8.50000000E-01  8.50000000E-01  8.50000000E-01  8.50000000E-01  8.50000000E-01
  8.50000000E-01  8.50000000E-01  8.50000000E-01  8.50000000E-01  8.50000000E-01
  8.50000000E-01  8.50000000E-01  8.50000000E-01  8.50000000E-01  8.50000000E-01
  8.50000000E-01  8.50000000E-01  8.50000000E-01  8.50000000E-01  8.50000000E-01
  8.50000000E-01  8.50000000E-01  8.50000000E-01  8.50000000E-01  8.50000000E-01
  8.50000000E-01  8.50000000E-01  8.50000000E-01  8.50000000E-01  8.50000000E-01
  8.50000000E-01  8.50000000E-01  8.50000000E-01  8.50000000E-01  8.50000000E-01
  8.50000000E-01  8.50000000E-01  8.50000000E-01  8.50000000E-01  8.50000000E-01
  8.50000000E-01  8.50000000E-01  8.50000000E-01  8.50000000E-01  8.50000000E-01
  8.50000000E-01  8.50000000E-01  8.50000000E-01  8.50000000E-01  8.50000000E-01
  8.50000000E-01  8.50000000E-01  8.50000000E-01  8.50000000E-01  8.50000000E-01
  8.50000000E-01  8.50000000E-01  8.50000000E-01  8.50000000E-01  8.50000000E-01
  8.50000000E-01  8.50000000E-01  8.50000000E-01  8.50000000E-01  8.50000000E-01
  8.50000000E-01  8.50000000E-01  8.50000000E-01  8.50000000E-01  8.50000000E-01
  8.50000000E-01  8.50000000E-01  8.50000000E-01  8.50000000E-01  8.50000000E-01
  8.50000000E-01  8.50000000E-01  8.50000000E-01  8.50000000E-01  8.50000000E-01
  8.50000000E-01  8.50000000E-01  8.50000000E-01  8.50000000E-01  8.50000000E-01
  8.50000000E-01  8.50000000E-01  8.50000000E-01  8.50000000E-01  8.50000000E-01
  8.50000000E-01  8.50000000E-01  8.50000000E-01  8.50000000E-01  8.50000000E-01
  8.50000000E-01  8.50000000E-01  8.50000000E-01  8.50000000E-01  8.50000000E-01
  8.50000000E-01  8.50000000E-01  8.50000000E-01  8.50000000E-01  8.50000000E-01
  8.50000000E-01  8.50000000E-01  8.50000000E-01  8.50000000E-01  8.50000000E-01
  8.50000000E-01  8.50000000E-01  8.50000000E-01  8.50000000E-01  8.50000000E-01
  8.50000000E-01  8.50000000E-01  8.50000000E-01  8.50000000E-01  8.50000000E-01
  8.50000000E-01  8.50000000E-01  8.50000000E-01  8.50000000E-01  8.50000000E-01
  8.50000000E-01  8.50000000E-01  8.50000000E-01  8.50000000E-01  8.50000000E-01
  8.50000000E-01  8.50000000E-01  8.50000000E-01  8.50000000E-01  8.50000000E-01
  8.50000000E-01  8.50000000E-01  8.50000000E-01  8.50000000E-01  8.50000000E-01
  8.50000000E-01  8.50000000E-01  8.50000000E-01  8.50000000E-01  8.50000000E-01
  8.50000000E-01  8.50000000E-01  8.50000000E-01  8.50000000E-01  8.50000000E-01
  8.50000000E-01  8.50000000E-01  8.50000000E-01  8.50000000E-01  8.50000000E-01
  8.50000000E-01  8.50000000E-01  8.50000000E-01  8.50000000E-01  8.50000000E-01
  8.50000000E-01  8.50000000E-01  8.50000000E-01  8.50000000E-01  8.50000000E-01
  8.50000000E-01  8.50000000E-01  8.50000000E-01  8.50000000E-01  8.50000000E-01
  8.50000000E-01  8.50000000E-01  8.50000000E-01  8.50000000E-01  8.50000000E-01
  8.50000000E-01  8.50000000E-01  8.50000000E-01  8.50000000E-01  8.50000000E-01
  8.50000000E-01  8.50000000E-01  8.50000000E-01  8.50000000E-01  8.50000000E-01
  8.50000000E-01  8.50000000E-01  8.50000000E-01  8.50000000E-01  8.50000000E-01
  8.50000000E-01  8.50000000E-01  8.50000000E-01  8.50000000E-01  8.50000000E-01
  8.50000000E-01  8.50000000E-01  8.50000000E-01  8.50000000E-01  8.50000000E-01
  8.50000000E-01  8.50000000E-01  8.50000000E-01  8.50000000E-01  8.50000000E-01
  8.50000000E-01  8.50000000E-01  8.50000000E-01  8.50000000E-01  8.50000000E-01
  8.50000000E-01  8.50000000E-01  8.50000000E-01  8.50000000E-01  8.50000000E-01
  8.50000000E-01  8.50000000E-01  8.50000000E-01  8.50000000E-01  8.50000000E-01
  8.50000000E-01  8.50000000E-01  8.50000000E-01  8.50000000E-01  8.50000000E-01
  8.50000000E-01  8.50000000E-01  8.50000000E-01  8.50000000E-01  8.50000000E-01
  8.50000000E-01  8.50000000E-01  8.50000000E-01  8.50000000E-01  8.50000000E-01
  8.50000000E-01  8.50000000E-01  8.50000000E-01  8.50000000E-01  8.50000000E-01
  8.50000000E-01  8.50000000E-01  8.50000000E-01  8.50000000E-01  8.50000000E-01
  8.50000000E-01  8.50000000E-01  8.50000000E-01  8.50000000E-01  8.50000000E-01
  8.50000000E-01  8.50000000E-01  8.50000000E-01  8.50000000E-01  8.50000000E-01
  8.50000000E-01  8.50000000E-01  8.50000000E-01  8.50000000E-01  8.50000000E-01
  8.50000000E-01  8.50000000E-01  8.50000000E-01  8.50000000E-01  8.50000000E-01
  8.50000000E-01  8.50000000E-01  8.50000000E-01  8.50000000E-01  8.50000000E-01
  8.50000000E-01  8.50000000E-01  8.50000000E-01  8.50000000E-01  8.50000000E-01
  8.50000000E-01  8.50000000E-01  8.50000000E-01  8.50000000E-01  8.50000000E-01
  8.50000000E-01  8.50000000E-01  8.50000000E-01  8.50000000E-01  8.50000000E-01
  8.50000000E-01  8.50000000E-01  8.50000000E-01  8.50000000E-01  8.50000000E-01
  8.50000000E-01  8.50000000E-01  8.50000000E-01  8.50000000E-01  8.50000000E-01
  8.50000000E-01  8.50000000E-01  8.50000000E-01  8.50000000E-01  8.50000000E-01
  8.50000000E-01  8.50000000E-01  8.50000000E-01  8.50000000E-01  8.50000000E-01
  8.50000000E-01  8.50000000E-01  8.50000000E-01  8.50000000E-01  8.50000000E-01
  8.50000000E-01  8.50000000E-01  8.50000000E-01  8.50000000E-01  8.50000000E-01
  8.50000000E-01  8.50000000E-01  8.50000000E-01  8.50000000E-01  8.50000000E-01
  8.50000000E-01  8.50000000E-01  8.50000000E-01  8.50000000E-01  8.50000000E-01
  8.50000000E-01  8.50000000E-01  8.50000000E-01  8.50000000E-01  8.50000000E-01
  8.50000000E-01  8.50000000E-01  8.50000000E-01  8.50000000E-01  8.50000000E-01
  8.50000000E-01  8.50000000E-01  8.50000000E-01  8.50000000E-01  8.50000000E-01
  8.50000000E-01  8.50000000E-01  8.50000000E-01  8.50000000E-01  8.50000000E-01
  8.50000000E-01  8.50000000E-01  8.50000000E-01  8.50000000E-01  8.50000000E-01
  8.50000000E-01  8.50000000E-01  8.50000000E-01  8.50000000E-01  8.50000000E-01
  8.50000000E-01  8.50000000E-01  8.50000000E-01  8.50000000E-01  8.50000000E-01
  8.50000000E-01  8.50000000E-01  8.50000000E-01  8.50000000E-01  8.50000000E-01
  8.50000000E-01  8.50000000E-01  8.50000000E-01  8.50000000E-01  8.50000000E-01
  8.50000000E-01  8.50000000E-01  8.50000000E-01  8.50000000E-01  8.50000000E-01
  8.50000000E-01  8.50000000E-01  8.50000000E-01  8.50000000E-01  8.50000000E-01
  8.50000000E-01  8.50000000E-01  8.50000000E-01  8.50000000E-01  8.50000000E-01
  8.50000000E-01  8.50000000E-01  8.50000000E-01  8.50000000E-01  8.50000000E-01
  8.50000000E-01  8.50000000E-01  8.50000000E-01  8.50000000E-01  8.50000000E-01
  8.50000000E-01  8.50000000E-01  8.50000000E-01  8.50000000E-01  8.50000000E-01
  8.50000000E-01  8.50000000E-01  8.50000000E-01  8.50000000E-01  8.50000000E-01
  8.50000000E-01  8.50000000E-01  8.50000000E-01  8.50000000E-01  8.50000000E-01
  8.50000000E-01  8.50000000E-01  8.50000000E-01  8.50000000E-01  8.50000000E-01
  8.50000000E-01  8.50000000E-01  8.50000000E-01  8.50000000E-01  8.50000000E-01
  8.50000000E-01  8.50000000E-01  8.50000000E-01  8.50000000E-01  8.50000000E-01
  8.50000000E-01  8.50000000E-01  8.50000000E-01  8.50000000E-01  8.50000000E-01
  8.50000000E-01  8.50000000E-01  8.50000000E-01  8.50000000E-01  8.50000000E-01
  8.50000000E-01  8.50000000E-01  8.50000000E-01  8.50000000E-01  8.50000000E-01
  8.50000000E-01  8.50000000E-01  8.50000000E-01  8.50000000E-01  8.50000000E-01
  8.50000000E-01  8.50000000E-01  8.50000000E-01  8.50000000E-01  8.50000000E-01
  8.50000000E-01  8.50000000E-01  8.50000000E-01  8.50000000E-01  8.50000000E-01
  8.50000000E-01  8.50000000E-01  8.50000000E-01  8.50000000E-01  8.50000000E-01
  8.50000000E-01  8.50000000E-01  8.50000000E-01  8.50000000E-01  8.50000000E-01
  8.50000000E-01  8.50000000E-01  8.50000000E-01  8.50000000E-01  8.50000000E-01
  8.50000000E-01  8.50000000E-01  8.50000000E-01  8.50000000E-01  8.50000000E-01
  8.50000000E-01  8.50000000E-01  8.50000000E-01  8.50000000E-01  8.50000000E-01
  8.50000000E-01  8.50000000E-01  8.50000000E-01  8.50000000E-01  8.50000000E-01
  8.50000000E-01  8.50000000E-01  8.50000000E-01  8.50000000E-01  8.50000000E-01
  8.50000000E-01  8.50000000E-01  8.50000000E-01  8.50000000E-01  8.50000000E-01
  8.50000000E-01  8.50000000E-01  8.50000000E-01  8.50000000E-01  8.50000000E-01
  8.50000000E-01  8.50000000E-01  8.50000000E-01  8.50000000E-01  8.50000000E-01
  8.50000000E-01  8.50000000E-01  8.50000000E-01  8.50000000E-01  8.50000000E-01
  8.50000000E-01  8.50000000E-01  8.50000000E-01  8.50000000E-01  8.50000000E-01
  8.50000000E-01  8.50000000E-01  8.50000000E-01  8.50000000E-01  8.50000000E-01
  8.50000000E-01  8.50000000E-01  8.50000000E-01  8.50000000E-01  8.50000000E-01
  8.50000000E-01  8.50000000E-01  8.50000000E-01  8.50000000E-01  8.50000000E-01
  8.50000000E-01  8.50000000E-01  8.50000000E-01  8.50000000E-01  8.50000000E-01
  8.50000000E-01  8.50000000E-01  8.50000000E-01  8.50000000E-01  8.50000000E-01
  8.50000000E-01  8.50000000E-01  8.50000000E-01  8.50000000E-01  8.50000000E-01
  8.50000000E-01  8.50000000E-01  8.50000000E-01  8.50000000E-01  8.50000000E-01
  8.50000000E-01  8.50000000E-01  8.50000000E-01  8.50000000E-01  8.50000000E-01
  8.50000000E-01  8.50000000E-01  8.50000000E-01  8.50000000E-01  8.50000000E-01
  8.50000000E-01  8.50000000E-01  8.50000000E-01  8.50000000E-01  8.50000000E-01
  8.50000000E-01  8.50000000E-01  8.50000000E-01  8.50000000E-01  8.50000000E-01
  8.50000000E-01  8.50000000E-01  8.50000000E-01  8.50000000E-01  8.50000000E-01
  8.50000000E-01  8.50000000E-01  8.50000000E-01  8.50000000E-01  8.50000000E-01
  8.50000000E-01  8.50000000E-01  8.50000000E-01  8.50000000E-01  8.50000000E-01
  8.50000000E-01  8.50000000E-01  8.50000000E-01  8.50000000E-01  8.50000000E-01
  8.50000000E-01  8.50000000E-01  8.50000000E-01  8.50000000E-01  8.50000000E-01
  8.50000000E-01  8.50000000E-01  8.50000000E-01  8.50000000E-01  8.50000000E-01
  8.50000000E-01  8.50000000E-01  8.50000000E-01  8.50000000E-01  8.50000000E-01
  8.50000000E-01  8.50000000E-01  8.50000000E-01  8.50000000E-01  8.50000000E-01
  8.50000000E-01  8.50000000E-01  8.50000000E-01  8.50000000E-01  8.50000000E-01
  8.50000000E-01  8.50000000E-01  8.50000000E-01  8.50000000E-01  8.50000000E-01
  8.50000000E-01  8.50000000E-01  8.50000000E-01  8.50000000E-01  8.50000000E-01
  8.50000000E-01  8.50000000E-01  8.50000000E-01  8.50000000E-01  8.50000000E-01
  8.50000000E-01  8.50000000E-01  8.50000000E-01  8.50000000E-01  8.50000000E-01
  8.50000000E-01  8.50000000E-01  8.50000000E-01  8.50000000E-01  8.50000000E-01
  8.50000000E-01  8.50000000E-01  8.50000000E-01  8.50000000E-01  8.50000000E-01
  8.50000000E-01  8.50000000E-01  8.50000000E-01  8.50000000E-01  8.50000000E-01
  8.50000000E-01  8.50000000E-01  8.50000000E-01  8.50000000E-01  8.50000000E-01
  8.50000000E-01  8.50000000E-01  8.50000000E-01  8.50000000E-01  8.50000000E-01
  8.50000000E-01  8.50000000E-01  8.50000000E-01  8.50000000E-01  8.50000000E-01
  8.50000000E-01  8.50000000E-01  8.50000000E-01  8.50000000E-01  8.50000000E-01
  8.50000000E-01  8.50000000E-01  8.50000000E-01  8.50000000E-01  8.50000000E-01
  8.50000000E-01  8.50000000E-01  8.50000000E-01  8.50000000E-01  8.50000000E-01
  8.50000000E-01  8.50000000E-01  8.50000000E-01  8.50000000E-01  8.50000000E-01
  8.50000000E-01  8.50000000E-01  8.50000000E-01  8.50000000E-01  8.50000000E-01
  8.50000000E-01  8.50000000E-01  8.50000000E-01  8.50000000E-01  8.50000000E-01
  8.50000000E-01  8.50000000E-01  8.50000000E-01  8.50000000E-01  8.50000000E-01
  8.50000000E-01  8.50000000E-01  8.50000000E-01  8.50000000E-01  8.50000000E-01
  8.50000000E-01  8.50000000E-01  8.50000000E-01  8.50000000E-01  8.50000000E-01
  8.50000000E-01  8.50000000E-01  8.50000000E-01  8.50000000E-01  8.50000000E-01
  8.50000000E-01  8.50000000E-01  8.50000000E-01  8.50000000E-01  8.50000000E-01
  8.50000000E-01  8.50000000E-01  8.50000000E-01  8.50000000E-01  8.50000000E-01
  8.50000000E-01  8.50000000E-01  8.50000000E-01  8.50000000E-01  8.50000000E-01
  8.50000000E-01  8.50000000E-01  8.50000000E-01  8.50000000E-01  8.50000000E-01
  8.50000000E-01  8.50000000E-01  8.50000000E-01  8.50000000E-01  8.50000000E-01
  8.50000000E-01  8.50000000E-01  8.50000000E-01  8.50000000E-01  8.50000000E-01
  8.50000000E-01  8.50000000E-01  8.50000000E-01  8.50000000E-01  8.50000000E-01
  8.50000000E-01  8.50000000E-01  8.50000000E-01  8.50000000E-01  8.50000000E-01
  8.50000000E-01  8.50000000E-01  8.50000000E-01  8.50000000E-01  8.50000000E-01
  8.50000000E-01  8.50000000E-01  8.50000000E-01  8.50000000E-01  8.50000000E-01
  8.50000000E-01  8.50000000E-01  8.50000000E-01  8.50000000E-01  8.50000000E-01
  8.50000000E-01  8.50000000E-01  8.50000000E-01  8.50000000E-01  8.50000000E-01
  8.50000000E-01  8.50000000E-01  8.50000000E-01  8.50000000E-01  8.50000000E-01
  8.50000000E-01  8.50000000E-01  8.50000000E-01  8.50000000E-01  8.50000000E-01
  8.50000000E-01  8.50000000E-01  8.50000000E-01  8.50000000E-01  8.50000000E-01
  8.50000000E-01  8.50000000E-01  8.50000000E-01  8.50000000E-01  8.50000000E-01
  8.50000000E-01  8.50000000E-01  8.50000000E-01  8.50000000E-01  8.50000000E-01
  8.50000000E-01  8.50000000E-01  8.50000000E-01  8.50000000E-01  8.50000000E-01
  8.50000000E-01  8.50000000E-01  8.50000000E-01  8.50000000E-01  8.50000000E-01
  8.50000000E-01  8.50000000E-01  8.50000000E-01  8.50000000E-01  8.50000000E-01
  8.50000000E-01  8.50000000E-01  8.50000000E-01  8.50000000E-01  8.50000000E-01
  8.50000000E-01  8.50000000E-01  8.50000000E-01  8.50000000E-01  8.50000000E-01
  8.50000000E-01  8.50000000E-01  8.50000000E-01  8.50000000E-01  8.50000000E-01
  8.50000000E-01  8.50000000E-01  8.50000000E-01  8.50000000E-01  8.50000000E-01
  8.50000000E-01  8.50000000E-01  8.50000000E-01  8.50000000E-01  8.50000000E-01
  8.50000000E-01  8.50000000E-01  8.50000000E-01  8.50000000E-01  8.50000000E-01
  8.50000000E-01  8.50000000E-01  8.50000000E-01  8.50000000E-01  8.50000000E-01
  8.50000000E-01  8.50000000E-01  8.50000000E-01  8.50000000E-01  8.50000000E-01
  8.50000000E-01  8.50000000E-01  8.50000000E-01  8.50000000E-01  8.50000000E-01
  8.50000000E-01  8.50000000E-01  8.50000000E-01  8.50000000E-01  8.50000000E-01
  8.50000000E-01  8.50000000E-01  8.50000000E-01  8.50000000E-01  8.50000000E-01
  8.50000000E-01  8.50000000E-01  8.50000000E-01  8.50000000E-01  8.50000000E-01
  8.50000000E-01  8.50000000E-01  8.50000000E-01  8.50000000E-01  8.50000000E-01
  8.50000000E-01  8.50000000E-01  8.50000000E-01  8.50000000E-01  8.50000000E-01
  8.50000000E-01  8.50000000E-01  8.50000000E-01  8.50000000E-01  8.50000000E-01
  8.50000000E-01  8.50000000E-01  8.50000000E-01  8.50000000E-01  8.50000000E-01
  8.50000000E-01  8.50000000E-01  8.50000000E-01  8.50000000E-01  8.50000000E-01
  8.50000000E-01  8.50000000E-01  8.50000000E-01  8.50000000E-01  8.50000000E-01
  8.50000000E-01  8.50000000E-01  8.50000000E-01  8.50000000E-01  8.50000000E-01
  8.50000000E-01  8.50000000E-01  8.50000000E-01  8.50000000E-01  8.50000000E-01
  8.50000000E-01  8.50000000E-01  8.50000000E-01  8.50000000E-01  8.50000000E-01
  8.50000000E-01  8.50000000E-01  8.50000000E-01  8.50000000E-01  8.50000000E-01
  8.50000000E-01  8.50000000E-01  8.50000000E-01  8.50000000E-01  8.50000000E-01
  8.50000000E-01  8.50000000E-01  8.50000000E-01  8.50000000E-01  8.50000000E-01
  8.50000000E-01  8.50000000E-01  8.50000000E-01  8.50000000E-01  8.50000000E-01
  8.50000000E-01  8.50000000E-01  8.50000000E-01  8.50000000E-01  8.50000000E-01
  8.50000000E-01  8.50000000E-01  8.50000000E-01  8.50000000E-01  8.50000000E-01
  8.50000000E-01  8.50000000E-01  8.50000000E-01  8.50000000E-01  8.50000000E-01
  8.50000000E-01  8.50000000E-01  8.50000000E-01  8.50000000E-01  8.50000000E-01
  8.50000000E-01  8.50000000E-01  8.50000000E-01  8.50000000E-01  8.50000000E-01
  8.50000000E-01  8.50000000E-01  8.50000000E-01  8.50000000E-01  8.50000000E-01
  8.50000000E-01  8.50000000E-01  8.50000000E-01  8.50000000E-01  8.50000000E-01
  8.50000000E-01  8.50000000E-01  8.50000000E-01  8.50000000E-01  8.50000000E-01
  8.50000000E-01  8.50000000E-01  8.50000000E-01  8.50000000E-01  8.50000000E-01
  8.50000000E-01  8.50000000E-01  8.50000000E-01  8.50000000E-01  8.50000000E-01
  8.50000000E-01  8.50000000E-01  8.50000000E-01  8.50000000E-01  8.50000000E-01
  8.50000000E-01  8.50000000E-01  8.50000000E-01  8.50000000E-01  8.50000000E-01
  8.50000000E-01  8.50000000E-01  8.50000000E-01  8.50000000E-01  8.50000000E-01
  8.50000000E-01  8.50000000E-01  8.50000000E-01  8.50000000E-01  8.50000000E-01
  8.50000000E-01  8.50000000E-01  8.50000000E-01  8.50000000E-01  8.50000000E-01
  8.50000000E-01  8.50000000E-01  8.50000000E-01  8.50000000E-01  8.50000000E-01
  8.50000000E-01  8.50000000E-01  8.50000000E-01  8.50000000E-01  8.50000000E-01
  8.50000000E-01  8.50000000E-01  8.50000000E-01  8.50000000E-01  8.50000000E-01
  8.50000000E-01  8.50000000E-01  8.50000000E-01  8.50000000E-01  8.50000000E-01
  8.50000000E-01  8.50000000E-01  8.50000000E-01  8.50000000E-01  8.50000000E-01
  8.50000000E-01  8.50000000E-01  8.50000000E-01  8.50000000E-01  8.50000000E-01
  8.50000000E-01  8.50000000E-01  8.50000000E-01  8.50000000E-01  8.50000000E-01
  8.50000000E-01  8.50000000E-01  8.50000000E-01  8.50000000E-01  8.50000000E-01
  8.50000000E-01  8.50000000E-01  8.50000000E-01  8.50000000E-01  8.50000000E-01
  8.50000000E-01  8.50000000E-01  8.50000000E-01  8.50000000E-01  8.50000000E-01
  8.50000000E-01  8.50000000E-01  8.50000000E-01  8.50000000E-01  8.50000000E-01
  8.50000000E-01  8.50000000E-01  8.50000000E-01  8.50000000E-01  8.50000000E-01
  8.50000000E-01  8.50000000E-01  8.50000000E-01  8.50000000E-01  8.50000000E-01
  8.50000000E-01  8.50000000E-01  8.50000000E-01  8.50000000E-01  8.50000000E-01
  8.50000000E-01  8.50000000E-01  8.50000000E-01  8.50000000E-01  8.50000000E-01
  8.50000000E-01  8.50000000E-01  8.50000000E-01  8.50000000E-01  8.50000000E-01
  8.50000000E-01  8.50000000E-01  8.50000000E-01  8.50000000E-01  8.50000000E-01
  8.50000000E-01  8.50000000E-01  8.50000000E-01  8.50000000E-01  8.50000000E-01
  8.50000000E-01  8.50000000E-01  8.50000000E-01  8.50000000E-01  8.50000000E-01
  8.50000000E-01  8.50000000E-01  8.50000000E-01  8.50000000E-01  8.50000000E-01
  8.50000000E-01  8.50000000E-01  8.50000000E-01  8.50000000E-01  8.50000000E-01
  8.50000000E-01  8.50000000E-01  8.50000000E-01  8.50000000E-01  8.50000000E-01
  8.50000000E-01  8.50000000E-01  8.50000000E-01  8.50000000E-01  8.50000000E-01
  8.50000000E-01  8.50000000E-01  8.50000000E-01  8.50000000E-01  8.50000000E-01
  8.50000000E-01  8.50000000E-01  8.50000000E-01  8.50000000E-01  8.50000000E-01
  8.50000000E-01  8.50000000E-01  8.50000000E-01  8.50000000E-01  8.50000000E-01
  8.50000000E-01  8.50000000E-01  8.50000000E-01  8.50000000E-01  8.50000000E-01
  8.50000000E-01  8.50000000E-01  8.50000000E-01  8.50000000E-01  8.50000000E-01
  8.50000000E-01  8.50000000E-01  8.50000000E-01  8.50000000E-01  8.50000000E-01
  8.50000000E-01  8.50000000E-01  8.50000000E-01  8.50000000E-01  8.50000000E-01
  8.50000000E-01  8.50000000E-01  8.50000000E-01  8.50000000E-01  8.50000000E-01
  8.50000000E-01  8.50000000E-01  8.50000000E-01  8.50000000E-01  8.50000000E-01
  8.50000000E-01  8.50000000E-01  8.50000000E-01  8.50000000E-01  8.50000000E-01
  8.50000000E-01  8.50000000E-01  8.50000000E-01  8.50000000E-01  8.50000000E-01
  8.50000000E-01  8.50000000E-01  8.50000000E-01  8.50000000E-01  8.50000000E-01
  8.50000000E-01  8.50000000E-01  8.50000000E-01  8.50000000E-01  8.50000000E-01
  8.50000000E-01  8.50000000E-01  8.50000000E-01  8.50000000E-01  8.50000000E-01
  8.50000000E-01  8.50000000E-01  8.50000000E-01  8.50000000E-01  8.50000000E-01
  8.50000000E-01  8.50000000E-01  8.50000000E-01  8.50000000E-01  8.50000000E-01
  8.50000000E-01  8.50000000E-01  8.50000000E-01  8.50000000E-01  8.50000000E-01
  8.50000000E-01  8.50000000E-01  8.50000000E-01  8.50000000E-01  8.50000000E-01
  8.50000000E-01  8.50000000E-01  8.50000000E-01  8.50000000E-01  8.50000000E-01
  8.50000000E-01  8.50000000E-01  8.50000000E-01  8.50000000E-01  8.50000000E-01
  8.50000000E-01  8.50000000E-01  8.50000000E-01  8.50000000E-01  8.50000000E-01
  8.50000000E-01  8.50000000E-01  8.50000000E-01  8.50000000E-01  8.50000000E-01
  8.50000000E-01  8.50000000E-01  8.50000000E-01  8.50000000E-01  8.50000000E-01
  8.50000000E-01  8.50000000E-01  8.50000000E-01  8.50000000E-01  8.50000000E-01
  8.50000000E-01  8.50000000E-01  8.50000000E-01  8.50000000E-01  8.50000000E-01
  8.50000000E-01  8.50000000E-01  8.50000000E-01  8.50000000E-01  8.50000000E-01
  8.50000000E-01  8.50000000E-01  8.50000000E-01  8.50000000E-01  8.50000000E-01
  8.50000000E-01  8.50000000E-01  8.50000000E-01  8.50000000E-01  8.50000000E-01
  8.50000000E-01  8.50000000E-01  8.50000000E-01  8.50000000E-01  8.50000000E-01
  8.50000000E-01  8.50000000E-01  8.50000000E-01  8.50000000E-01  8.50000000E-01
  8.50000000E-01  8.50000000E-01  8.50000000E-01  8.50000000E-01  8.50000000E-01
  8.50000000E-01  8.50000000E-01  8.50000000E-01  8.50000000E-01  8.50000000E-01
  8.50000000E-01  8.50000000E-01  8.50000000E-01  8.50000000E-01  8.50000000E-01
  8.50000000E-01  8.50000000E-01  8.50000000E-01  8.50000000E-01  8.50000000E-01
  8.50000000E-01  8.50000000E-01  8.50000000E-01  8.50000000E-01  8.50000000E-01
  8.50000000E-01  8.50000000E-01  8.50000000E-01  8.50000000E-01  8.50000000E-01
  8.50000000E-01  8.50000000E-01  8.50000000E-01  8.50000000E-01  8.50000000E-01
  8.50000000E-01  8.50000000E-01  8.50000000E-01  8.50000000E-01  8.50000000E-01
  8.50000000E-01  8.50000000E-01  8.50000000E-01  8.50000000E-01  8.50000000E-01
  8.50000000E-01  8.50000000E-01  8.50000000E-01  8.50000000E-01  8.50000000E-01
  8.50000000E-01  8.50000000E-01  8.50000000E-01  8.50000000E-01  8.50000000E-01
  8.50000000E-01  8.50000000E-01  8.50000000E-01  8.50000000E-01  8.50000000E-01
  8.50000000E-01  8.50000000E-01  8.50000000E-01  8.50000000E-01  8.50000000E-01
  8.50000000E-01  8.50000000E-01  8.50000000E-01  8.50000000E-01  8.50000000E-01
  8.50000000E-01  8.50000000E-01  8.50000000E-01  8.50000000E-01  8.50000000E-01
  8.50000000E-01  8.50000000E-01  8.50000000E-01  8.50000000E-01  8.50000000E-01
  8.50000000E-01  8.50000000E-01  8.50000000E-01  8.50000000E-01  8.50000000E-01
  8.50000000E-01  8.50000000E-01  8.50000000E-01  8.50000000E-01  8.50000000E-01
  8.50000000E-01  8.50000000E-01  8.50000000E-01  8.50000000E-01  8.50000000E-01
  8.50000000E-01  8.50000000E-01  8.50000000E-01  8.50000000E-01  8.50000000E-01
  8.50000000E-01  8.50000000E-01  8.50000000E-01  8.50000000E-01  8.50000000E-01
  8.50000000E-01  8.50000000E-01  8.50000000E-01  8.50000000E-01  8.50000000E-01
  8.50000000E-01  8.50000000E-01  8.50000000E-01  8.50000000E-01  8.50000000E-01
  8.50000000E-01  8.50000000E-01  8.50000000E-01  8.50000000E-01  8.50000000E-01
  8.50000000E-01  8.50000000E-01  8.50000000E-01  8.50000000E-01  8.50000000E-01
  8.50000000E-01  8.50000000E-01  8.50000000E-01  8.50000000E-01  8.50000000E-01
  8.50000000E-01  8.50000000E-01  8.50000000E-01  8.50000000E-01  8.50000000E-01
  8.50000000E-01  8.50000000E-01  8.50000000E-01  8.50000000E-01  8.50000000E-01
  8.50000000E-01  8.50000000E-01  8.50000000E-01  8.50000000E-01  8.50000000E-01
  8.50000000E-01  8.50000000E-01  8.50000000E-01  8.50000000E-01  8.50000000E-01
  8.50000000E-01  8.50000000E-01  8.50000000E-01  8.50000000E-01  8.50000000E-01
  8.50000000E-01  8.50000000E-01  8.50000000E-01  8.50000000E-01  8.50000000E-01
  8.50000000E-01  8.50000000E-01  8.50000000E-01  8.50000000E-01  8.50000000E-01
  8.50000000E-01  8.50000000E-01  8.50000000E-01  8.50000000E-01  8.50000000E-01
  8.50000000E-01  8.50000000E-01  8.50000000E-01  8.50000000E-01  8.50000000E-01
  8.50000000E-01  8.50000000E-01  8.50000000E-01  8.50000000E-01  8.50000000E-01
  8.50000000E-01  8.50000000E-01  8.50000000E-01  8.50000000E-01  8.50000000E-01
  8.50000000E-01  8.50000000E-01  8.50000000E-01  8.50000000E-01  8.50000000E-01
  8.50000000E-01  8.50000000E-01  8.50000000E-01  8.50000000E-01  8.50000000E-01
  8.50000000E-01  8.50000000E-01  8.50000000E-01  8.50000000E-01  8.50000000E-01
  8.50000000E-01  8.50000000E-01  8.50000000E-01  8.50000000E-01  8.50000000E-01
  8.50000000E-01  8.50000000E-01  8.50000000E-01  8.50000000E-01  8.50000000E-01
  8.50000000E-01  8.50000000E-01  8.50000000E-01  8.50000000E-01  8.50000000E-01
  8.50000000E-01  8.50000000E-01  8.50000000E-01  8.50000000E-01  8.50000000E-01
  8.50000000E-01  8.50000000E-01  8.50000000E-01  8.50000000E-01  8.50000000E-01
  8.50000000E-01  8.50000000E-01  8.50000000E-01  8.50000000E-01  8.50000000E-01
  8.50000000E-01  8.50000000E-01  8.50000000E-01  8.50000000E-01  8.50000000E-01
  8.50000000E-01  8.50000000E-01  8.50000000E-01  8.50000000E-01  8.50000000E-01
  8.50000000E-01  8.50000000E-01  8.50000000E-01  8.50000000E-01  8.50000000E-01
  8.50000000E-01  8.50000000E-01  8.50000000E-01  8.50000000E-01  8.50000000E-01
  8.50000000E-01  8.50000000E-01  8.50000000E-01  8.50000000E-01  8.50000000E-01
  8.50000000E-01  8.50000000E-01  8.50000000E-01  8.50000000E-01  8.50000000E-01
  8.50000000E-01  8.50000000E-01  8.50000000E-01  8.50000000E-01  8.50000000E-01
  8.50000000E-01  8.50000000E-01  8.50000000E-01  8.50000000E-01  8.50000000E-01
  8.50000000E-01  8.50000000E-01  8.50000000E-01  8.50000000E-01  8.50000000E-01
  8.50000000E-01  8.50000000E-01  8.50000000E-01  8.50000000E-01  8.50000000E-01
  8.50000000E-01  8.50000000E-01  8.50000000E-01  8.50000000E-01  8.50000000E-01
  8.50000000E-01  8.50000000E-01  8.50000000E-01  8.50000000E-01  8.50000000E-01
  8.50000000E-01  8.50000000E-01  8.50000000E-01  8.50000000E-01  8.50000000E-01
  8.50000000E-01  8.50000000E-01  8.50000000E-01  8.50000000E-01  8.50000000E-01
  8.50000000E-01  8.50000000E-01  8.50000000E-01  8.50000000E-01  8.50000000E-01
  8.50000000E-01  8.50000000E-01  8.50000000E-01  8.50000000E-01  8.50000000E-01
  8.50000000E-01  8.50000000E-01  8.50000000E-01  8.50000000E-01  8.50000000E-01
  8.50000000E-01  8.50000000E-01  8.50000000E-01  8.50000000E-01  8.50000000E-01
  8.50000000E-01  8.50000000E-01  8.50000000E-01  8.50000000E-01  8.50000000E-01
  8.50000000E-01  8.50000000E-01  8.50000000E-01  8.50000000E-01  8.50000000E-01
  8.50000000E-01  8.50000000E-01  8.50000000E-01  8.50000000E-01  8.50000000E-01
  8.50000000E-01  8.50000000E-01  8.50000000E-01  8.50000000E-01  8.50000000E-01
  8.50000000E-01  8.50000000E-01  8.50000000E-01  8.50000000E-01  8.50000000E-01
  8.50000000E-01  8.50000000E-01  8.50000000E-01  8.50000000E-01  8.50000000E-01
  8.50000000E-01  8.50000000E-01  8.50000000E-01  8.50000000E-01  8.50000000E-01
  8.50000000E-01  8.50000000E-01  8.50000000E-01  8.50000000E-01  8.50000000E-01
  8.50000000E-01  8.50000000E-01  8.50000000E-01  8.50000000E-01  8.50000000E-01
  8.50000000E-01  8.50000000E-01  8.50000000E-01  8.50000000E-01  8.50000000E-01
  8.50000000E-01  8.50000000E-01  8.50000000E-01  8.50000000E-01  8.50000000E-01
  8.50000000E-01  8.50000000E-01  8.50000000E-01  8.50000000E-01  8.50000000E-01
  8.50000000E-01  8.50000000E-01  8.50000000E-01  8.50000000E-01  8.50000000E-01
  8.50000000E-01  8.50000000E-01  8.50000000E-01  8.50000000E-01  8.50000000E-01
  8.50000000E-01  8.50000000E-01  8.50000000E-01  8.50000000E-01  8.50000000E-01
  8.50000000E-01  8.50000000E-01  8.50000000E-01  8.50000000E-01  8.50000000E-01
  8.50000000E-01  8.50000000E-01  8.50000000E-01  8.50000000E-01  8.50000000E-01
  8.50000000E-01  8.50000000E-01  8.50000000E-01  8.50000000E-01  8.50000000E-01
  8.50000000E-01  8.50000000E-01  8.50000000E-01  8.50000000E-01  8.50000000E-01
  8.50000000E-01  8.50000000E-01  8.50000000E-01  8.50000000E-01  8.50000000E-01
  8.50000000E-01  8.50000000E-01  8.50000000E-01  8.50000000E-01  8.50000000E-01
  8.50000000E-01  8.50000000E-01  8.50000000E-01  8.50000000E-01  8.50000000E-01
  8.50000000E-01  8.50000000E-01  8.50000000E-01  8.50000000E-01  8.50000000E-01
  8.50000000E-01  8.50000000E-01  8.50000000E-01  8.50000000E-01  8.50000000E-01
  8.50000000E-01  8.50000000E-01  8.50000000E-01  8.50000000E-01  8.50000000E-01
  8.50000000E-01  8.50000000E-01  8.50000000E-01  8.50000000E-01  8.50000000E-01
  8.50000000E-01  8.50000000E-01  8.50000000E-01  8.50000000E-01  8.50000000E-01
  8.50000000E-01  8.50000000E-01  8.50000000E-01  8.50000000E-01  8.50000000E-01
  8.50000000E-01  8.50000000E-01  8.50000000E-01  8.50000000E-01  8.50000000E-01
  8.50000000E-01  8.50000000E-01  8.50000000E-01  8.50000000E-01  8.50000000E-01
  8.50000000E-01  8.50000000E-01  8.50000000E-01  8.50000000E-01  8.50000000E-01
  8.50000000E-01  8.50000000E-01  8.50000000E-01  8.50000000E-01  8.50000000E-01
  8.50000000E-01  8.50000000E-01  8.50000000E-01  8.50000000E-01  8.50000000E-01
  8.50000000E-01  8.50000000E-01  8.50000000E-01  8.50000000E-01  8.50000000E-01
  8.50000000E-01  8.50000000E-01  8.50000000E-01  8.50000000E-01  8.50000000E-01
  8.50000000E-01  8.50000000E-01  8.50000000E-01  8.50000000E-01  8.50000000E-01
  8.50000000E-01  8.50000000E-01  8.50000000E-01  8.50000000E-01  8.50000000E-01
  8.50000000E-01  8.50000000E-01  8.50000000E-01  8.50000000E-01  8.50000000E-01
  8.50000000E-01  8.50000000E-01  8.50000000E-01  8.50000000E-01  8.50000000E-01
  8.50000000E-01  8.50000000E-01  8.50000000E-01  8.50000000E-01  8.50000000E-01
  8.50000000E-01  8.50000000E-01  8.50000000E-01  8.50000000E-01  8.50000000E-01
  8.50000000E-01  8.50000000E-01  8.50000000E-01  8.50000000E-01  8.50000000E-01
  8.50000000E-01  8.50000000E-01  8.50000000E-01  8.50000000E-01  8.50000000E-01
  8.50000000E-01  8.50000000E-01  8.50000000E-01  8.50000000E-01  8.50000000E-01
  8.50000000E-01  8.50000000E-01  8.50000000E-01  8.50000000E-01  8.50000000E-01
  8.50000000E-01  8.50000000E-01  8.50000000E-01  8.50000000E-01  8.50000000E-01
  8.50000000E-01  8.50000000E-01  8.50000000E-01  8.50000000E-01  8.50000000E-01
  8.50000000E-01  8.50000000E-01  8.50000000E-01  8.50000000E-01  8.50000000E-01
  8.50000000E-01  8.50000000E-01  8.50000000E-01  8.50000000E-01  8.50000000E-01
  8.50000000E-01  8.50000000E-01  8.50000000E-01  8.50000000E-01  8.50000000E-01
  8.50000000E-01  8.50000000E-01  8.50000000E-01  8.50000000E-01  8.50000000E-01
  8.50000000E-01  8.50000000E-01  8.50000000E-01  8.50000000E-01  8.50000000E-01
  8.50000000E-01  8.50000000E-01  8.50000000E-01  8.50000000E-01  8.50000000E-01
  8.50000000E-01  8.50000000E-01  8.50000000E-01  8.50000000E-01  8.50000000E-01
  8.50000000E-01  8.50000000E-01  8.50000000E-01  8.50000000E-01  8.50000000E-01
  8.50000000E-01  8.50000000E-01  8.50000000E-01  8.50000000E-01  8.50000000E-01
  8.50000000E-01  8.50000000E-01  8.50000000E-01  8.50000000E-01  8.50000000E-01
  8.50000000E-01  8.50000000E-01  8.50000000E-01  8.50000000E-01  8.50000000E-01
  8.50000000E-01  8.50000000E-01  8.50000000E-01  8.50000000E-01  8.50000000E-01
  8.50000000E-01  8.50000000E-01  8.50000000E-01  8.50000000E-01  8.50000000E-01
  8.50000000E-01  8.50000000E-01  8.50000000E-01  8.50000000E-01  8.50000000E-01
  8.50000000E-01  8.50000000E-01  8.50000000E-01  8.50000000E-01  8.50000000E-01
  8.50000000E-01  8.50000000E-01  8.50000000E-01  8.50000000E-01  8.50000000E-01
  8.50000000E-01  8.50000000E-01  8.50000000E-01  8.50000000E-01  8.50000000E-01
  8.50000000E-01  8.50000000E-01  8.50000000E-01  8.50000000E-01  8.50000000E-01
  8.50000000E-01  8.50000000E-01  8.50000000E-01  8.50000000E-01  8.50000000E-01
  8.50000000E-01  8.50000000E-01  8.50000000E-01  8.50000000E-01  8.50000000E-01
  8.50000000E-01  8.50000000E-01  8.50000000E-01  8.50000000E-01  8.50000000E-01
  8.50000000E-01  8.50000000E-01  8.50000000E-01  8.50000000E-01  8.50000000E-01
  8.50000000E-01  8.50000000E-01  8.50000000E-01  8.50000000E-01  8.50000000E-01
  8.50000000E-01  8.50000000E-01  8.50000000E-01  8.50000000E-01  8.50000000E-01
  8.50000000E-01  8.50000000E-01  8.50000000E-01  8.50000000E-01  8.50000000E-01
  8.50000000E-01  8.50000000E-01  8.50000000E-01  8.50000000E-01  8.50000000E-01
  8.50000000E-01  8.50000000E-01  8.50000000E-01  8.50000000E-01  8.50000000E-01
  8.50000000E-01  8.50000000E-01  8.50000000E-01  8.50000000E-01  8.50000000E-01
  8.50000000E-01  8.50000000E-01  8.50000000E-01  8.50000000E-01  8.50000000E-01
  8.50000000E-01  8.50000000E-01  8.50000000E-01  8.50000000E-01  8.50000000E-01
  8.50000000E-01  8.50000000E-01  8.50000000E-01  8.50000000E-01  8.50000000E-01
  8.50000000E-01  8.50000000E-01  8.50000000E-01  8.50000000E-01  8.50000000E-01
  8.50000000E-01  8.50000000E-01  8.50000000E-01  8.50000000E-01  8.50000000E-01
  8.50000000E-01  8.50000000E-01  8.50000000E-01  8.50000000E-01  8.50000000E-01
  8.50000000E-01  8.50000000E-01  8.50000000E-01  8.50000000E-01  8.50000000E-01
  8.50000000E-01  8.50000000E-01  8.50000000E-01  8.50000000E-01  8.50000000E-01
  8.50000000E-01  8.50000000E-01  8.50000000E-01  8.50000000E-01  8.50000000E-01
  8.50000000E-01  8.50000000E-01  8.50000000E-01  8.50000000E-01  8.50000000E-01
  8.50000000E-01  8.50000000E-01  8.50000000E-01  8.50000000E-01  8.50000000E-01
  8.50000000E-01  8.50000000E-01  8.50000000E-01  8.50000000E-01  8.50000000E-01
  8.50000000E-01  8.50000000E-01  8.50000000E-01  8.50000000E-01  8.50000000E-01
  8.50000000E-01  8.50000000E-01  8.50000000E-01  8.50000000E-01  8.50000000E-01
  8.50000000E-01  8.50000000E-01  8.50000000E-01  8.50000000E-01  8.50000000E-01
  8.50000000E-01  8.50000000E-01  8.50000000E-01  8.50000000E-01  8.50000000E-01
  8.50000000E-01  8.50000000E-01  8.50000000E-01  8.50000000E-01  8.50000000E-01
  8.50000000E-01  8.50000000E-01  8.50000000E-01  8.50000000E-01  8.50000000E-01
  8.50000000E-01  8.50000000E-01  8.50000000E-01  8.50000000E-01  8.50000000E-01
  8.50000000E-01  8.50000000E-01  8.50000000E-01  8.50000000E-01  8.50000000E-01
  8.50000000E-01  8.50000000E-01  8.50000000E-01  8.50000000E-01  8.50000000E-01
  8.50000000E-01  8.50000000E-01  8.50000000E-01  8.50000000E-01  8.50000000E-01
  8.50000000E-01  8.50000000E-01  8.50000000E-01  8.50000000E-01  8.50000000E-01
  8.50000000E-01  8.50000000E-01  8.50000000E-01  8.50000000E-01  8.50000000E-01
  8.50000000E-01  8.50000000E-01  8.50000000E-01  8.50000000E-01  8.50000000E-01
  8.50000000E-01  8.50000000E-01  8.50000000E-01  8.50000000E-01  8.50000000E-01
  8.50000000E-01  8.50000000E-01  8.50000000E-01  8.50000000E-01  8.50000000E-01
  8.50000000E-01  8.50000000E-01  8.50000000E-01  8.50000000E-01  8.50000000E-01
  8.50000000E-01  8.50000000E-01  8.50000000E-01  8.50000000E-01  8.50000000E-01
  8.50000000E-01  8.50000000E-01  8.50000000E-01  8.50000000E-01  8.50000000E-01
  8.50000000E-01  8.50000000E-01  8.50000000E-01  8.50000000E-01  8.50000000E-01
  8.50000000E-01  8.50000000E-01  8.50000000E-01  8.50000000E-01  8.50000000E-01
  8.50000000E-01  8.50000000E-01  8.50000000E-01  8.50000000E-01  8.50000000E-01
  8.50000000E-01  8.50000000E-01  8.50000000E-01  8.50000000E-01  8.50000000E-01
  8.50000000E-01  8.50000000E-01  8.50000000E-01  8.50000000E-01  8.50000000E-01
  8.50000000E-01  8.50000000E-01  8.50000000E-01  8.50000000E-01  8.50000000E-01
  8.50000000E-01  8.50000000E-01  8.50000000E-01  8.50000000E-01  8.50000000E-01
  8.50000000E-01  8.50000000E-01  8.50000000E-01  8.50000000E-01  8.50000000E-01
  8.50000000E-01  8.50000000E-01  8.50000000E-01  8.50000000E-01  8.50000000E-01
  8.50000000E-01  8.50000000E-01  8.50000000E-01  8.50000000E-01  8.50000000E-01
  8.50000000E-01  8.50000000E-01  8.50000000E-01  8.50000000E-01  8.50000000E-01
  8.50000000E-01  8.50000000E-01  8.50000000E-01  8.50000000E-01  8.50000000E-01
  8.50000000E-01  8.50000000E-01  8.50000000E-01  8.50000000E-01  8.50000000E-01
  8.50000000E-01  8.50000000E-01  8.50000000E-01  8.50000000E-01  8.50000000E-01
  8.50000000E-01  8.50000000E-01  8.50000000E-01  8.50000000E-01  8.50000000E-01
  8.50000000E-01  8.50000000E-01  8.50000000E-01  8.50000000E-01  8.50000000E-01
  8.50000000E-01  8.50000000E-01  8.50000000E-01  8.50000000E-01  8.50000000E-01
  8.50000000E-01  8.50000000E-01  8.50000000E-01  8.50000000E-01  8.50000000E-01
  8.50000000E-01  8.50000000E-01  8.50000000E-01  8.50000000E-01  8.50000000E-01
  8.50000000E-01  8.50000000E-01  8.50000000E-01  8.50000000E-01  8.50000000E-01
  8.50000000E-01  8.50000000E-01  8.50000000E-01  8.50000000E-01  8.50000000E-01
  8.50000000E-01  8.50000000E-01  8.50000000E-01  8.50000000E-01  8.50000000E-01
  8.50000000E-01  8.50000000E-01  8.50000000E-01  8.50000000E-01  8.50000000E-01
  8.50000000E-01  8.50000000E-01  8.50000000E-01  8.50000000E-01  8.50000000E-01
  8.50000000E-01  8.50000000E-01  8.50000000E-01  8.50000000E-01  8.50000000E-01
  8.50000000E-01  8.50000000E-01  8.50000000E-01  8.50000000E-01  8.50000000E-01
  8.50000000E-01  8.50000000E-01  8.50000000E-01  8.50000000E-01  8.50000000E-01
  8.50000000E-01  8.50000000E-01  8.50000000E-01  8.50000000E-01  8.50000000E-01
  8.50000000E-01  8.50000000E-01  8.50000000E-01  8.50000000E-01  8.50000000E-01
  8.50000000E-01  8.50000000E-01  8.50000000E-01  8.50000000E-01  8.50000000E-01
  8.50000000E-01  8.50000000E-01  8.50000000E-01  8.50000000E-01  8.50000000E-01
  8.50000000E-01  8.50000000E-01  8.50000000E-01  8.50000000E-01  8.50000000E-01
  8.50000000E-01  8.50000000E-01  8.50000000E-01  8.50000000E-01  8.50000000E-01
  8.50000000E-01  8.50000000E-01  8.50000000E-01  8.50000000E-01  8.50000000E-01
  8.50000000E-01  8.50000000E-01  8.50000000E-01  8.50000000E-01  8.50000000E-01
  8.50000000E-01  8.50000000E-01  8.50000000E-01  8.50000000E-01  8.50000000E-01
  8.50000000E-01  8.50000000E-01  8.50000000E-01  8.50000000E-01  8.50000000E-01
  8.50000000E-01  8.50000000E-01  8.50000000E-01  8.50000000E-01  8.50000000E-01
  8.50000000E-01  8.50000000E-01  8.50000000E-01  8.50000000E-01  8.50000000E-01
  8.50000000E-01  8.50000000E-01  8.50000000E-01  8.50000000E-01  8.50000000E-01
  8.50000000E-01  8.50000000E-01  8.50000000E-01  8.50000000E-01  8.50000000E-01
  8.50000000E-01  8.50000000E-01  8.50000000E-01  8.50000000E-01  8.50000000E-01
  8.50000000E-01  8.50000000E-01  8.50000000E-01  8.50000000E-01  8.50000000E-01
  8.50000000E-01  8.50000000E-01  8.50000000E-01  8.50000000E-01  8.50000000E-01
  8.50000000E-01  8.50000000E-01  8.50000000E-01  8.50000000E-01  8.50000000E-01
  8.50000000E-01  8.50000000E-01  8.50000000E-01  8.50000000E-01  8.50000000E-01
  8.50000000E-01  8.50000000E-01  8.50000000E-01  8.50000000E-01  8.50000000E-01
  8.50000000E-01  8.50000000E-01  8.50000000E-01  8.50000000E-01  8.50000000E-01
  8.50000000E-01  8.50000000E-01  8.50000000E-01  8.50000000E-01  8.50000000E-01
  8.50000000E-01  8.50000000E-01  8.50000000E-01  8.50000000E-01  8.50000000E-01
  8.50000000E-01  8.50000000E-01  8.50000000E-01  8.50000000E-01  8.50000000E-01
  8.50000000E-01  8.50000000E-01  8.50000000E-01  8.50000000E-01  8.50000000E-01
  8.50000000E-01  8.50000000E-01  8.50000000E-01  8.50000000E-01  8.50000000E-01
  8.50000000E-01  8.50000000E-01  8.50000000E-01  8.50000000E-01  8.50000000E-01
  8.50000000E-01  8.50000000E-01  8.50000000E-01  8.50000000E-01  8.50000000E-01
  8.50000000E-01  8.50000000E-01  8.50000000E-01  8.50000000E-01  8.50000000E-01
  8.50000000E-01  8.50000000E-01  8.50000000E-01  8.50000000E-01  8.50000000E-01
  8.50000000E-01  8.50000000E-01  8.50000000E-01  8.50000000E-01  8.50000000E-01
  8.50000000E-01  8.50000000E-01  8.50000000E-01  8.50000000E-01  8.50000000E-01
  8.50000000E-01  8.50000000E-01  8.50000000E-01  8.50000000E-01  8.50000000E-01
  8.50000000E-01  8.50000000E-01  8.50000000E-01  8.50000000E-01  8.50000000E-01
  8.50000000E-01  8.50000000E-01  8.50000000E-01  8.50000000E-01  8.50000000E-01
  8.50000000E-01  8.50000000E-01  8.50000000E-01  8.50000000E-01  8.50000000E-01
  8.50000000E-01  8.50000000E-01  8.50000000E-01  8.50000000E-01  8.50000000E-01
  8.50000000E-01  8.50000000E-01  8.50000000E-01  8.50000000E-01  8.50000000E-01
  8.50000000E-01  8.50000000E-01  8.50000000E-01  8.50000000E-01  8.50000000E-01
  8.50000000E-01  8.50000000E-01  8.50000000E-01  8.50000000E-01  8.50000000E-01
  8.50000000E-01  8.50000000E-01  8.50000000E-01  8.50000000E-01  8.50000000E-01
  8.50000000E-01  8.50000000E-01  8.50000000E-01  8.50000000E-01  8.50000000E-01
  8.50000000E-01  8.50000000E-01  8.50000000E-01  8.50000000E-01  8.50000000E-01
  8.50000000E-01  8.50000000E-01  8.50000000E-01  8.50000000E-01  8.50000000E-01
  8.50000000E-01  8.50000000E-01  8.50000000E-01  8.50000000E-01  8.50000000E-01
  8.50000000E-01  8.50000000E-01  8.50000000E-01  8.50000000E-01  8.50000000E-01
  8.50000000E-01  8.50000000E-01  8.50000000E-01  8.50000000E-01  8.50000000E-01
  8.50000000E-01  8.50000000E-01  8.50000000E-01  8.50000000E-01  8.50000000E-01
  8.50000000E-01  8.50000000E-01  8.50000000E-01  8.50000000E-01  8.50000000E-01
  8.50000000E-01  8.50000000E-01  8.50000000E-01  8.50000000E-01  8.50000000E-01
  8.50000000E-01  8.50000000E-01  8.50000000E-01  8.50000000E-01  8.50000000E-01
  8.50000000E-01  8.50000000E-01  8.50000000E-01  8.50000000E-01  8.50000000E-01
  8.50000000E-01  8.50000000E-01  8.50000000E-01  8.50000000E-01  8.50000000E-01
  8.50000000E-01  8.50000000E-01  8.50000000E-01  8.50000000E-01  8.50000000E-01
  8.50000000E-01  8.50000000E-01  8.50000000E-01  8.50000000E-01  8.50000000E-01
  8.50000000E-01  8.50000000E-01  8.50000000E-01  8.50000000E-01  8.50000000E-01
  8.50000000E-01  8.50000000E-01  8.50000000E-01  8.50000000E-01  8.50000000E-01
  8.50000000E-01  8.50000000E-01  8.50000000E-01  8.50000000E-01  8.50000000E-01
  8.50000000E-01  8.50000000E-01  8.50000000E-01  8.50000000E-01  8.50000000E-01
  8.50000000E-01  8.50000000E-01  8.50000000E-01  8.50000000E-01  8.50000000E-01
  8.50000000E-01  8.50000000E-01  8.50000000E-01  8.50000000E-01  8.50000000E-01
  8.50000000E-01  8.50000000E-01  8.50000000E-01  8.50000000E-01  8.50000000E-01
  8.50000000E-01  8.50000000E-01  8.50000000E-01  8.50000000E-01  8.50000000E-01
  8.50000000E-01  8.50000000E-01  8.50000000E-01  8.50000000E-01  8.50000000E-01
  8.50000000E-01  8.50000000E-01  8.50000000E-01  8.50000000E-01  8.50000000E-01
  8.50000000E-01  8.50000000E-01  8.50000000E-01  8.50000000E-01  8.50000000E-01
  8.50000000E-01  8.50000000E-01  8.50000000E-01  8.50000000E-01  8.50000000E-01
  8.50000000E-01  8.50000000E-01  8.50000000E-01  8.50000000E-01  8.50000000E-01
  8.50000000E-01  8.50000000E-01  8.50000000E-01  8.50000000E-01  8.50000000E-01
  8.50000000E-01  8.50000000E-01  8.50000000E-01  8.50000000E-01  8.50000000E-01
  8.50000000E-01  8.50000000E-01  8.50000000E-01  8.50000000E-01  8.50000000E-01
  8.50000000E-01  8.50000000E-01  8.50000000E-01  8.50000000E-01  8.50000000E-01
  8.50000000E-01  8.50000000E-01  8.50000000E-01  8.50000000E-01  8.50000000E-01
  8.50000000E-01  8.50000000E-01  8.50000000E-01  8.50000000E-01  8.50000000E-01
  8.50000000E-01  8.50000000E-01  8.50000000E-01  8.50000000E-01  8.50000000E-01
  8.50000000E-01  8.50000000E-01  8.50000000E-01  8.50000000E-01  8.50000000E-01
  8.50000000E-01  8.50000000E-01  8.50000000E-01  8.50000000E-01  8.50000000E-01
  8.50000000E-01  8.50000000E-01  8.50000000E-01  8.50000000E-01  8.50000000E-01
  8.50000000E-01  8.50000000E-01  8.50000000E-01  8.50000000E-01  8.50000000E-01
  8.50000000E-01  8.50000000E-01  8.50000000E-01  8.50000000E-01  8.50000000E-01
  8.50000000E-01  8.50000000E-01  8.50000000E-01  8.50000000E-01  8.50000000E-01
  8.50000000E-01  8.50000000E-01  8.50000000E-01  8.50000000E-01  8.50000000E-01
  8.50000000E-01  8.50000000E-01  8.50000000E-01  8.50000000E-01  8.50000000E-01
  8.50000000E-01  8.50000000E-01  8.50000000E-01  8.50000000E-01  8.50000000E-01
  8.50000000E-01  8.50000000E-01  8.50000000E-01  8.50000000E-01  8.50000000E-01
  8.50000000E-01  8.50000000E-01  8.50000000E-01  8.50000000E-01  8.50000000E-01
  8.50000000E-01  8.50000000E-01  8.50000000E-01  8.50000000E-01  8.50000000E-01
  8.50000000E-01  8.50000000E-01  8.50000000E-01  8.50000000E-01  8.50000000E-01
  8.50000000E-01  8.50000000E-01  8.50000000E-01  8.50000000E-01  8.50000000E-01
  8.50000000E-01  8.50000000E-01  8.50000000E-01  8.50000000E-01  8.50000000E-01
  8.50000000E-01  8.50000000E-01  8.50000000E-01  8.50000000E-01  8.50000000E-01
  8.50000000E-01  8.50000000E-01  8.50000000E-01  8.50000000E-01  8.50000000E-01
  8.50000000E-01  8.50000000E-01  8.50000000E-01  8.50000000E-01  8.50000000E-01
  8.50000000E-01  8.50000000E-01  8.50000000E-01  8.50000000E-01  8.50000000E-01
  8.50000000E-01  8.50000000E-01  8.50000000E-01  8.50000000E-01  8.50000000E-01
  8.50000000E-01  8.50000000E-01  8.50000000E-01  8.50000000E-01  8.50000000E-01
  8.50000000E-01  8.50000000E-01  8.50000000E-01  8.50000000E-01  8.50000000E-01
  8.50000000E-01  8.50000000E-01  8.50000000E-01  8.50000000E-01  8.50000000E-01
  8.50000000E-01  8.50000000E-01  8.50000000E-01  8.50000000E-01  8.50000000E-01
  8.50000000E-01  8.50000000E-01  8.50000000E-01  8.50000000E-01  8.50000000E-01
  8.50000000E-01  8.50000000E-01  8.50000000E-01  8.50000000E-01  8.50000000E-01
  8.50000000E-01  8.50000000E-01  8.50000000E-01  8.50000000E-01  8.50000000E-01
  8.50000000E-01  8.50000000E-01  8.50000000E-01  8.50000000E-01  8.50000000E-01
  8.50000000E-01  8.50000000E-01  8.50000000E-01  8.50000000E-01  8.50000000E-01
  8.50000000E-01  8.50000000E-01  8.50000000E-01  8.50000000E-01  8.50000000E-01
  8.50000000E-01  8.50000000E-01  8.50000000E-01  8.50000000E-01  8.50000000E-01
  8.50000000E-01  8.50000000E-01  8.50000000E-01  8.50000000E-01  8.50000000E-01
  8.50000000E-01  8.50000000E-01  8.50000000E-01  8.50000000E-01  8.50000000E-01
  8.50000000E-01  8.50000000E-01  8.50000000E-01  8.50000000E-01  8.50000000E-01
  8.50000000E-01  8.50000000E-01  8.50000000E-01  8.50000000E-01  8.50000000E-01
  8.50000000E-01  8.50000000E-01  8.50000000E-01  8.50000000E-01  8.50000000E-01
  8.50000000E-01  8.50000000E-01  8.50000000E-01  8.50000000E-01  8.50000000E-01
  8.50000000E-01  8.50000000E-01  8.50000000E-01  8.50000000E-01  8.50000000E-01
  8.50000000E-01  8.50000000E-01  8.50000000E-01  8.50000000E-01  8.50000000E-01
  8.50000000E-01  8.50000000E-01  8.50000000E-01  8.50000000E-01  8.50000000E-01
  8.50000000E-01  8.50000000E-01  8.50000000E-01  8.50000000E-01  8.50000000E-01
  8.50000000E-01  8.50000000E-01  8.50000000E-01  8.50000000E-01  8.50000000E-01
  8.50000000E-01  8.50000000E-01  8.50000000E-01  8.50000000E-01  8.50000000E-01
  8.50000000E-01  8.50000000E-01  8.50000000E-01  8.50000000E-01  8.50000000E-01
  8.50000000E-01  8.50000000E-01  8.50000000E-01  8.50000000E-01  8.50000000E-01
  8.50000000E-01  8.50000000E-01  8.50000000E-01  8.50000000E-01  8.50000000E-01
  8.50000000E-01  8.50000000E-01  8.50000000E-01  8.50000000E-01  8.50000000E-01
  8.50000000E-01  8.50000000E-01  8.50000000E-01  8.50000000E-01  8.50000000E-01
  8.50000000E-01  8.50000000E-01  8.50000000E-01  8.50000000E-01  8.50000000E-01
  8.50000000E-01  8.50000000E-01  8.50000000E-01  8.50000000E-01  8.50000000E-01
  8.50000000E-01  8.50000000E-01  8.50000000E-01  8.50000000E-01  8.50000000E-01
  8.50000000E-01  8.50000000E-01  8.50000000E-01  8.50000000E-01  8.50000000E-01
  8.50000000E-01  8.50000000E-01  8.50000000E-01  8.50000000E-01  8.50000000E-01
  8.50000000E-01  8.50000000E-01  8.50000000E-01  8.50000000E-01  8.50000000E-01
  8.50000000E-01  8.50000000E-01  8.50000000E-01  8.50000000E-01  8.50000000E-01
  8.50000000E-01  8.50000000E-01  8.50000000E-01  8.50000000E-01  8.50000000E-01
  8.50000000E-01  8.50000000E-01  8.50000000E-01  8.50000000E-01  8.50000000E-01
  8.50000000E-01  8.50000000E-01  8.50000000E-01  8.50000000E-01  8.50000000E-01
  8.50000000E-01  8.50000000E-01  8.50000000E-01  8.50000000E-01  8.50000000E-01
  8.50000000E-01  8.50000000E-01  8.50000000E-01  8.50000000E-01  8.50000000E-01
  8.50000000E-01  8.50000000E-01  8.50000000E-01  8.50000000E-01  8.50000000E-01
  8.50000000E-01  8.50000000E-01  8.50000000E-01  8.50000000E-01  8.50000000E-01
  8.50000000E-01  8.50000000E-01  8.50000000E-01  8.50000000E-01  8.50000000E-01
  8.50000000E-01  8.50000000E-01  8.50000000E-01  8.50000000E-01  8.50000000E-01
  8.50000000E-01  8.50000000E-01  8.50000000E-01  8.50000000E-01  8.50000000E-01
  8.50000000E-01  8.50000000E-01  8.50000000E-01  8.50000000E-01  8.50000000E-01
  8.50000000E-01  8.50000000E-01  8.50000000E-01  8.50000000E-01  8.50000000E-01
  8.50000000E-01  8.50000000E-01  8.50000000E-01  8.50000000E-01  8.50000000E-01
  8.50000000E-01  8.50000000E-01  8.50000000E-01  8.50000000E-01  8.50000000E-01
  8.50000000E-01  8.50000000E-01  8.50000000E-01  8.50000000E-01  8.50000000E-01
  8.50000000E-01  8.50000000E-01  8.50000000E-01  8.50000000E-01  8.50000000E-01
  8.50000000E-01  8.50000000E-01  8.50000000E-01  8.50000000E-01  8.50000000E-01
  8.50000000E-01  8.50000000E-01  8.50000000E-01  8.50000000E-01  8.50000000E-01
  8.50000000E-01  8.50000000E-01  8.50000000E-01  8.50000000E-01  8.50000000E-01
  8.50000000E-01  8.50000000E-01  8.50000000E-01  8.50000000E-01  8.50000000E-01
  8.50000000E-01  8.50000000E-01  8.50000000E-01  8.50000000E-01  8.50000000E-01
  8.50000000E-01  8.50000000E-01  8.50000000E-01  8.50000000E-01  8.50000000E-01
  8.50000000E-01  8.50000000E-01  8.50000000E-01  8.50000000E-01  8.50000000E-01
  8.50000000E-01  8.50000000E-01  8.50000000E-01  8.50000000E-01  8.50000000E-01
  8.50000000E-01  8.50000000E-01  8.50000000E-01  8.50000000E-01  8.50000000E-01
  8.50000000E-01  8.50000000E-01  8.50000000E-01  8.50000000E-01  8.50000000E-01
  8.50000000E-01  8.50000000E-01  8.50000000E-01  8.50000000E-01  8.50000000E-01
  8.50000000E-01  8.50000000E-01  8.50000000E-01  8.50000000E-01  8.50000000E-01
  8.50000000E-01  8.50000000E-01  8.50000000E-01  8.50000000E-01  8.50000000E-01
  8.50000000E-01  8.50000000E-01  8.50000000E-01  8.50000000E-01  8.50000000E-01
  8.50000000E-01  8.50000000E-01  8.50000000E-01  8.50000000E-01  8.50000000E-01
  8.50000000E-01  8.50000000E-01  8.50000000E-01  8.50000000E-01  8.50000000E-01
  8.50000000E-01  8.50000000E-01  8.50000000E-01  8.50000000E-01  8.50000000E-01
  8.50000000E-01  8.50000000E-01  8.50000000E-01  8.50000000E-01  8.50000000E-01
  8.50000000E-01  8.50000000E-01  8.50000000E-01  8.50000000E-01  8.50000000E-01
  8.50000000E-01  8.50000000E-01  8.50000000E-01  8.50000000E-01  8.50000000E-01
  8.50000000E-01  8.50000000E-01  8.50000000E-01  8.50000000E-01  8.50000000E-01
  8.50000000E-01  8.50000000E-01  8.50000000E-01  8.50000000E-01  8.50000000E-01
  8.50000000E-01  8.50000000E-01  8.50000000E-01  8.50000000E-01  8.50000000E-01
  8.50000000E-01  8.50000000E-01  8.50000000E-01  8.50000000E-01  8.50000000E-01
  8.50000000E-01  8.50000000E-01  8.50000000E-01  8.50000000E-01  8.50000000E-01
  8.50000000E-01  8.50000000E-01  8.50000000E-01  8.50000000E-01  8.50000000E-01
  8.50000000E-01  8.50000000E-01  8.50000000E-01  8.50000000E-01  8.50000000E-01
  8.50000000E-01  8.50000000E-01  8.50000000E-01  8.50000000E-01  8.50000000E-01
  8.50000000E-01  8.50000000E-01  8.50000000E-01  8.50000000E-01  8.50000000E-01
  8.50000000E-01  8.50000000E-01  8.50000000E-01  8.50000000E-01  8.50000000E-01
  8.50000000E-01  8.50000000E-01  8.50000000E-01  8.50000000E-01  8.50000000E-01
  8.50000000E-01  8.50000000E-01  8.50000000E-01  8.50000000E-01  8.50000000E-01
  8.50000000E-01  8.50000000E-01  8.50000000E-01  8.50000000E-01  8.50000000E-01
  8.50000000E-01  8.50000000E-01  8.50000000E-01  8.50000000E-01  8.50000000E-01
  8.50000000E-01  8.50000000E-01  8.50000000E-01  8.50000000E-01  8.50000000E-01
  8.50000000E-01  8.50000000E-01  8.50000000E-01  8.50000000E-01  8.50000000E-01
  8.50000000E-01  8.50000000E-01  8.50000000E-01  8.50000000E-01  8.50000000E-01
  8.50000000E-01  8.50000000E-01  8.50000000E-01  8.50000000E-01  8.50000000E-01
  8.50000000E-01  8.50000000E-01  8.50000000E-01  8.50000000E-01  8.50000000E-01
  8.50000000E-01  8.50000000E-01  8.50000000E-01  8.50000000E-01  8.50000000E-01
  8.50000000E-01  8.50000000E-01  8.50000000E-01  8.50000000E-01  8.50000000E-01
  8.50000000E-01  8.50000000E-01  8.50000000E-01  8.50000000E-01  8.50000000E-01
  8.50000000E-01  8.50000000E-01  8.50000000E-01  8.50000000E-01  8.50000000E-01
  8.50000000E-01  8.50000000E-01  8.50000000E-01  8.50000000E-01  8.50000000E-01
  8.50000000E-01  8.50000000E-01  8.50000000E-01  8.50000000E-01  8.50000000E-01
  8.50000000E-01  8.50000000E-01  8.50000000E-01  8.50000000E-01  8.50000000E-01
  8.50000000E-01  8.50000000E-01  8.50000000E-01  8.50000000E-01  8.50000000E-01
  8.50000000E-01  8.50000000E-01  8.50000000E-01  8.50000000E-01  8.50000000E-01
  8.50000000E-01  8.50000000E-01  8.50000000E-01  8.50000000E-01  8.50000000E-01
  8.50000000E-01  8.50000000E-01  8.50000000E-01  8.50000000E-01  8.50000000E-01
  8.50000000E-01  8.50000000E-01  8.50000000E-01  8.50000000E-01  8.50000000E-01
  8.50000000E-01  8.50000000E-01  8.50000000E-01  8.50000000E-01  8.50000000E-01
  8.50000000E-01  8.50000000E-01  8.50000000E-01  8.50000000E-01  8.50000000E-01
  8.50000000E-01  8.50000000E-01  8.50000000E-01  8.50000000E-01  8.50000000E-01
  8.50000000E-01  8.50000000E-01  8.50000000E-01  8.50000000E-01  8.50000000E-01
  8.50000000E-01  8.50000000E-01  8.50000000E-01  8.50000000E-01  8.50000000E-01
  8.50000000E-01  8.50000000E-01  8.50000000E-01  8.50000000E-01  8.50000000E-01
  8.50000000E-01  8.50000000E-01  8.50000000E-01  8.50000000E-01  8.50000000E-01
  8.50000000E-01  8.50000000E-01  8.50000000E-01  8.50000000E-01  8.50000000E-01
  8.50000000E-01  8.50000000E-01  8.50000000E-01  8.50000000E-01  8.50000000E-01
  8.50000000E-01  8.50000000E-01  8.50000000E-01  8.50000000E-01  8.50000000E-01
  8.50000000E-01  8.50000000E-01  8.50000000E-01  8.50000000E-01  8.50000000E-01
  8.50000000E-01  8.50000000E-01  8.50000000E-01  8.50000000E-01  8.50000000E-01
  8.50000000E-01  8.50000000E-01  8.50000000E-01  8.50000000E-01  8.50000000E-01
  8.50000000E-01  8.50000000E-01  8.50000000E-01  8.50000000E-01  8.50000000E-01
  8.50000000E-01  8.50000000E-01  8.50000000E-01  8.50000000E-01  8.50000000E-01
  8.50000000E-01  8.50000000E-01  8.50000000E-01  8.50000000E-01  8.50000000E-01
  8.50000000E-01  8.50000000E-01  8.50000000E-01  8.50000000E-01  8.50000000E-01
  8.50000000E-01  8.50000000E-01  8.50000000E-01  8.50000000E-01  8.50000000E-01
  8.50000000E-01  8.50000000E-01  8.50000000E-01  8.50000000E-01  8.50000000E-01
  8.50000000E-01  8.50000000E-01  8.50000000E-01  8.50000000E-01  8.50000000E-01
  8.50000000E-01  8.50000000E-01  8.50000000E-01  8.50000000E-01  8.50000000E-01
  8.50000000E-01  8.50000000E-01  8.50000000E-01  8.50000000E-01  8.50000000E-01
  8.50000000E-01  8.50000000E-01  8.50000000E-01  8.50000000E-01  8.50000000E-01
  8.50000000E-01  8.50000000E-01  8.50000000E-01  8.50000000E-01  8.50000000E-01
  8.50000000E-01  8.50000000E-01  8.50000000E-01  8.50000000E-01  8.50000000E-01
  8.50000000E-01  8.50000000E-01  8.50000000E-01  8.50000000E-01  8.50000000E-01
  8.50000000E-01  8.50000000E-01  8.50000000E-01  8.50000000E-01  8.50000000E-01
  8.50000000E-01  8.50000000E-01  8.50000000E-01  8.50000000E-01  8.50000000E-01
  8.50000000E-01  8.50000000E-01  8.50000000E-01  8.50000000E-01  8.50000000E-01
  8.50000000E-01  8.50000000E-01  8.50000000E-01  8.50000000E-01  8.50000000E-01
  8.50000000E-01  8.50000000E-01  8.50000000E-01  8.50000000E-01  8.50000000E-01
  8.50000000E-01  8.50000000E-01  8.50000000E-01  8.50000000E-01  8.50000000E-01
  8.50000000E-01  8.50000000E-01  8.50000000E-01  8.50000000E-01  8.50000000E-01
  8.50000000E-01  8.50000000E-01  8.50000000E-01  8.50000000E-01  8.50000000E-01
  8.50000000E-01  8.50000000E-01  8.50000000E-01  8.50000000E-01  8.50000000E-01
  8.50000000E-01  8.50000000E-01  8.50000000E-01  8.50000000E-01  8.50000000E-01
  8.50000000E-01  8.50000000E-01  8.50000000E-01  8.50000000E-01  8.50000000E-01
  8.50000000E-01  8.50000000E-01  8.50000000E-01  8.50000000E-01  8.50000000E-01
  8.50000000E-01  8.50000000E-01  8.50000000E-01  8.50000000E-01  8.50000000E-01
  8.50000000E-01  8.50000000E-01  8.50000000E-01  8.50000000E-01  8.50000000E-01
  8.50000000E-01  8.50000000E-01  8.50000000E-01  8.50000000E-01  8.50000000E-01
  8.50000000E-01  8.50000000E-01  8.50000000E-01  8.50000000E-01  8.50000000E-01
  8.50000000E-01  8.50000000E-01  8.50000000E-01  8.50000000E-01  8.50000000E-01
  8.50000000E-01  8.50000000E-01  8.50000000E-01  8.50000000E-01  8.50000000E-01
  8.50000000E-01  8.50000000E-01  8.50000000E-01  8.50000000E-01  8.50000000E-01
  8.50000000E-01  8.50000000E-01  8.50000000E-01  8.50000000E-01  8.50000000E-01
  8.50000000E-01  8.50000000E-01  8.50000000E-01  8.50000000E-01  8.50000000E-01
  8.50000000E-01  8.50000000E-01  8.50000000E-01  8.50000000E-01  8.50000000E-01
  8.50000000E-01  8.50000000E-01  8.50000000E-01  8.50000000E-01  8.50000000E-01
  8.50000000E-01  8.50000000E-01  8.50000000E-01  8.50000000E-01  8.50000000E-01
  8.50000000E-01  8.50000000E-01  8.50000000E-01  8.50000000E-01  8.50000000E-01
  8.50000000E-01  8.50000000E-01  8.50000000E-01  8.50000000E-01  8.50000000E-01
  8.50000000E-01  8.50000000E-01  8.50000000E-01  8.50000000E-01  8.50000000E-01
  8.50000000E-01  8.50000000E-01  8.50000000E-01  8.50000000E-01  8.50000000E-01
  8.50000000E-01  8.50000000E-01  8.50000000E-01  8.50000000E-01  8.50000000E-01
  8.50000000E-01  8.50000000E-01  8.50000000E-01  8.50000000E-01  8.50000000E-01
  8.50000000E-01  8.50000000E-01  8.50000000E-01  8.50000000E-01  8.50000000E-01
  8.50000000E-01  8.50000000E-01  8.50000000E-01  8.50000000E-01  8.50000000E-01
  8.50000000E-01  8.50000000E-01  8.50000000E-01  8.50000000E-01  8.50000000E-01
  8.50000000E-01  8.50000000E-01  8.50000000E-01  8.50000000E-01  8.50000000E-01
  8.50000000E-01  8.50000000E-01  8.50000000E-01  8.50000000E-01  8.50000000E-01
  8.50000000E-01  8.50000000E-01  8.50000000E-01  8.50000000E-01  8.50000000E-01
  8.50000000E-01  8.50000000E-01  8.50000000E-01  8.50000000E-01  8.50000000E-01
  8.50000000E-01  8.50000000E-01  8.50000000E-01  8.50000000E-01  8.50000000E-01
  8.50000000E-01  8.50000000E-01  8.50000000E-01  8.50000000E-01  8.50000000E-01
  8.50000000E-01  8.50000000E-01  8.50000000E-01  8.50000000E-01  8.50000000E-01
  8.50000000E-01  8.50000000E-01  8.50000000E-01  8.50000000E-01  8.50000000E-01
  8.50000000E-01  8.50000000E-01  8.50000000E-01  8.50000000E-01  8.50000000E-01
  8.50000000E-01  8.50000000E-01  8.50000000E-01  8.50000000E-01  8.50000000E-01
  8.50000000E-01  8.50000000E-01  8.50000000E-01  8.50000000E-01  8.50000000E-01
  8.50000000E-01  8.50000000E-01  8.50000000E-01  8.50000000E-01  8.50000000E-01
  8.50000000E-01  8.50000000E-01  8.50000000E-01  8.50000000E-01  8.50000000E-01
  8.50000000E-01  8.50000000E-01  8.50000000E-01  8.50000000E-01  8.50000000E-01
  8.50000000E-01  8.50000000E-01  8.50000000E-01  8.50000000E-01  8.50000000E-01
  8.50000000E-01  8.50000000E-01  8.50000000E-01  8.50000000E-01  8.50000000E-01
  8.50000000E-01  8.50000000E-01  8.50000000E-01  8.50000000E-01  8.50000000E-01
  8.50000000E-01  8.50000000E-01  8.50000000E-01  8.50000000E-01  8.50000000E-01
  8.50000000E-01  8.50000000E-01  8.50000000E-01  8.50000000E-01  8.50000000E-01
  8.50000000E-01  8.50000000E-01  8.50000000E-01  8.50000000E-01  8.50000000E-01
  8.50000000E-01  8.50000000E-01  8.50000000E-01  8.50000000E-01  8.50000000E-01
  8.50000000E-01  8.50000000E-01  8.50000000E-01  8.50000000E-01  8.50000000E-01
  8.50000000E-01  8.50000000E-01  8.50000000E-01  8.50000000E-01  8.50000000E-01
  8.50000000E-01  8.50000000E-01  8.50000000E-01  8.50000000E-01  8.50000000E-01
  8.50000000E-01  8.50000000E-01  8.50000000E-01  8.50000000E-01  8.50000000E-01
  8.50000000E-01  8.50000000E-01  8.50000000E-01  8.50000000E-01  8.50000000E-01
  8.50000000E-01  8.50000000E-01  8.50000000E-01  8.50000000E-01  8.50000000E-01
  8.50000000E-01  8.50000000E-01  8.50000000E-01  8.50000000E-01  8.50000000E-01
  8.50000000E-01  8.50000000E-01  8.50000000E-01  8.50000000E-01  8.50000000E-01
  8.50000000E-01  8.50000000E-01  8.50000000E-01  8.50000000E-01  8.50000000E-01
  8.50000000E-01  8.50000000E-01  8.50000000E-01  8.50000000E-01  8.50000000E-01
  8.50000000E-01  8.50000000E-01  8.50000000E-01  8.50000000E-01  8.50000000E-01
  8.50000000E-01  8.50000000E-01  8.50000000E-01  8.50000000E-01  8.50000000E-01
  8.50000000E-01  8.50000000E-01  8.50000000E-01  8.50000000E-01  8.50000000E-01
  8.50000000E-01  8.50000000E-01  8.50000000E-01  8.50000000E-01  8.50000000E-01
  8.50000000E-01  8.50000000E-01  8.50000000E-01  8.50000000E-01  8.50000000E-01
  8.50000000E-01  8.50000000E-01  8.50000000E-01  8.50000000E-01  8.50000000E-01
  8.50000000E-01  8.50000000E-01  8.50000000E-01  8.50000000E-01  8.50000000E-01
  8.50000000E-01  8.50000000E-01  8.50000000E-01  8.50000000E-01  8.50000000E-01
  8.50000000E-01  8.50000000E-01  8.50000000E-01  8.50000000E-01  8.50000000E-01
  8.50000000E-01  8.50000000E-01  8.50000000E-01  8.50000000E-01  8.50000000E-01
  8.50000000E-01  8.50000000E-01  8.50000000E-01  8.50000000E-01  8.50000000E-01
  8.50000000E-01  8.50000000E-01  8.50000000E-01  8.50000000E-01  8.50000000E-01
  8.50000000E-01  8.50000000E-01  8.50000000E-01  8.50000000E-01  8.50000000E-01
  8.50000000E-01  8.50000000E-01  8.50000000E-01  8.50000000E-01  8.50000000E-01
  8.50000000E-01  8.50000000E-01  8.50000000E-01  8.50000000E-01  8.50000000E-01
  8.50000000E-01  8.50000000E-01  8.50000000E-01  8.50000000E-01  8.50000000E-01
  8.50000000E-01  8.50000000E-01  8.50000000E-01  8.50000000E-01  8.50000000E-01
  8.50000000E-01  8.50000000E-01  8.50000000E-01  8.50000000E-01  8.50000000E-01
  8.50000000E-01  8.50000000E-01  8.50000000E-01  8.50000000E-01  8.50000000E-01
  8.50000000E-01  8.50000000E-01  8.50000000E-01  8.50000000E-01  8.50000000E-01
  8.50000000E-01  8.50000000E-01  8.50000000E-01  8.50000000E-01  8.50000000E-01
  8.50000000E-01  8.50000000E-01  8.50000000E-01  8.50000000E-01  8.50000000E-01
  8.50000000E-01  8.50000000E-01  8.50000000E-01  8.50000000E-01  8.50000000E-01
  8.50000000E-01  8.50000000E-01  8.50000000E-01  8.50000000E-01  8.50000000E-01
  8.50000000E-01  8.50000000E-01  8.50000000E-01  8.50000000E-01  8.50000000E-01
  8.50000000E-01  8.50000000E-01  8.50000000E-01  8.50000000E-01  8.50000000E-01
  8.50000000E-01  8.50000000E-01  8.50000000E-01  8.50000000E-01  8.50000000E-01
  8.50000000E-01  8.50000000E-01  8.50000000E-01  8.50000000E-01  8.50000000E-01
  8.50000000E-01  8.50000000E-01  8.50000000E-01  8.50000000E-01  8.50000000E-01
  8.50000000E-01  8.50000000E-01  8.50000000E-01  8.50000000E-01  8.50000000E-01
  8.50000000E-01  8.50000000E-01  8.50000000E-01  8.50000000E-01  8.50000000E-01
  8.50000000E-01  8.50000000E-01  8.50000000E-01  8.50000000E-01  8.50000000E-01
  8.50000000E-01  8.50000000E-01  8.50000000E-01  8.50000000E-01  8.50000000E-01
  8.50000000E-01  8.50000000E-01  8.50000000E-01  8.50000000E-01  8.50000000E-01
  8.50000000E-01  8.50000000E-01  8.50000000E-01  8.50000000E-01  8.50000000E-01
  8.50000000E-01  8.50000000E-01  8.50000000E-01  8.50000000E-01  8.50000000E-01
  8.50000000E-01  8.50000000E-01  8.50000000E-01  8.50000000E-01  8.50000000E-01
  8.50000000E-01  8.50000000E-01  8.50000000E-01  8.50000000E-01  8.50000000E-01
  8.50000000E-01  8.50000000E-01  8.50000000E-01  8.50000000E-01  8.50000000E-01
  8.50000000E-01  8.50000000E-01  8.50000000E-01  8.50000000E-01  8.50000000E-01
  8.50000000E-01  8.50000000E-01  8.50000000E-01  8.50000000E-01  8.50000000E-01
  8.50000000E-01  8.50000000E-01  8.50000000E-01  8.50000000E-01  8.50000000E-01
  8.50000000E-01  8.50000000E-01  8.50000000E-01  8.50000000E-01  8.50000000E-01
  8.50000000E-01  8.50000000E-01  8.50000000E-01  8.50000000E-01  8.50000000E-01
  8.50000000E-01  8.50000000E-01  8.50000000E-01  8.50000000E-01  8.50000000E-01
  8.50000000E-01  8.50000000E-01  8.50000000E-01  8.50000000E-01  8.50000000E-01
  8.50000000E-01  8.50000000E-01  8.50000000E-01  8.50000000E-01  8.50000000E-01
  8.50000000E-01  8.50000000E-01  8.50000000E-01  8.50000000E-01  8.50000000E-01
  8.50000000E-01  8.50000000E-01  8.50000000E-01  8.50000000E-01  8.50000000E-01
  8.50000000E-01  8.50000000E-01  8.50000000E-01  8.50000000E-01  8.50000000E-01
  8.50000000E-01  8.50000000E-01  8.50000000E-01  8.50000000E-01  8.50000000E-01
  8.50000000E-01  8.50000000E-01  8.50000000E-01  8.50000000E-01  8.50000000E-01
  8.50000000E-01  8.50000000E-01  8.50000000E-01  8.50000000E-01  8.50000000E-01
  8.50000000E-01  8.50000000E-01  8.50000000E-01  8.50000000E-01  8.50000000E-01
  8.50000000E-01  8.50000000E-01  8.50000000E-01  8.50000000E-01  8.50000000E-01
  8.50000000E-01  8.50000000E-01  8.50000000E-01  8.50000000E-01  8.50000000E-01
  8.50000000E-01  8.50000000E-01  8.50000000E-01  8.50000000E-01  8.50000000E-01
  8.50000000E-01  8.50000000E-01  8.50000000E-01  8.50000000E-01  8.50000000E-01
  8.50000000E-01  8.50000000E-01  8.50000000E-01  8.50000000E-01  8.50000000E-01
  8.50000000E-01  8.50000000E-01  8.50000000E-01  8.50000000E-01  8.50000000E-01
  8.50000000E-01  8.50000000E-01  8.50000000E-01  8.50000000E-01  8.50000000E-01
  8.50000000E-01  8.50000000E-01  8.50000000E-01  8.50000000E-01  8.50000000E-01
  8.50000000E-01  8.50000000E-01  8.50000000E-01  8.50000000E-01  8.50000000E-01
  8.50000000E-01  8.50000000E-01  8.50000000E-01  8.50000000E-01  8.50000000E-01
  8.50000000E-01  8.50000000E-01  8.50000000E-01  8.50000000E-01  8.50000000E-01
  8.50000000E-01  8.50000000E-01  8.50000000E-01  8.50000000E-01  8.50000000E-01
  8.50000000E-01  8.50000000E-01  8.50000000E-01  8.50000000E-01  8.50000000E-01
  8.50000000E-01  8.50000000E-01  8.50000000E-01  8.50000000E-01  8.50000000E-01
  8.50000000E-01  8.50000000E-01  8.50000000E-01  8.50000000E-01  8.50000000E-01
  8.50000000E-01  8.50000000E-01  8.50000000E-01  8.50000000E-01  8.50000000E-01
  8.50000000E-01  8.50000000E-01  8.50000000E-01  8.50000000E-01  8.50000000E-01
  8.50000000E-01  8.50000000E-01  8.50000000E-01  8.50000000E-01  8.50000000E-01
  8.50000000E-01  8.50000000E-01  8.50000000E-01  8.50000000E-01  8.50000000E-01
  8.50000000E-01  8.50000000E-01  8.50000000E-01  8.50000000E-01  8.50000000E-01
  8.50000000E-01  8.50000000E-01  8.50000000E-01  8.50000000E-01  8.50000000E-01
  8.50000000E-01  8.50000000E-01  8.50000000E-01  8.50000000E-01  8.50000000E-01
  8.50000000E-01  8.50000000E-01  8.50000000E-01  8.50000000E-01  8.50000000E-01
  8.50000000E-01  8.50000000E-01  8.50000000E-01  8.50000000E-01  8.50000000E-01
  8.50000000E-01  8.50000000E-01  8.50000000E-01  8.50000000E-01  8.50000000E-01
  8.50000000E-01  8.50000000E-01  8.50000000E-01  8.50000000E-01  8.50000000E-01
  8.50000000E-01  8.50000000E-01  8.50000000E-01  8.50000000E-01  8.50000000E-01
  8.50000000E-01  8.50000000E-01  8.50000000E-01  8.50000000E-01  8.50000000E-01
  8.50000000E-01  8.50000000E-01  8.50000000E-01  8.50000000E-01  8.50000000E-01
  8.50000000E-01  8.50000000E-01  8.50000000E-01  8.50000000E-01  8.50000000E-01
  8.50000000E-01  8.50000000E-01  8.50000000E-01  8.50000000E-01  8.50000000E-01
  8.50000000E-01  8.50000000E-01  8.50000000E-01  8.50000000E-01  8.50000000E-01
  8.50000000E-01  8.50000000E-01  8.50000000E-01  8.50000000E-01  8.50000000E-01
  8.50000000E-01  8.50000000E-01  8.50000000E-01  8.50000000E-01  8.50000000E-01
  8.50000000E-01  8.50000000E-01  8.50000000E-01  8.50000000E-01  8.50000000E-01
  8.50000000E-01  8.50000000E-01  8.50000000E-01  8.50000000E-01  8.50000000E-01
  8.50000000E-01  8.50000000E-01  8.50000000E-01  8.50000000E-01  8.50000000E-01
  8.50000000E-01  8.50000000E-01  8.50000000E-01  8.50000000E-01  8.50000000E-01
  8.50000000E-01  8.50000000E-01  8.50000000E-01  8.50000000E-01  8.50000000E-01
  8.50000000E-01  8.50000000E-01  8.50000000E-01  8.50000000E-01  8.50000000E-01
  8.50000000E-01  8.50000000E-01  8.50000000E-01  8.50000000E-01  8.50000000E-01
  8.50000000E-01  8.50000000E-01  8.50000000E-01  8.50000000E-01  8.50000000E-01
  8.50000000E-01  8.50000000E-01  8.50000000E-01  8.50000000E-01  8.50000000E-01
  8.50000000E-01  8.50000000E-01  8.50000000E-01  8.50000000E-01  8.50000000E-01
  8.50000000E-01  8.50000000E-01  8.50000000E-01  8.50000000E-01  8.50000000E-01
  8.50000000E-01  8.50000000E-01  8.50000000E-01  8.50000000E-01  8.50000000E-01
  8.50000000E-01  8.50000000E-01  8.50000000E-01  8.50000000E-01  8.50000000E-01
  8.50000000E-01  8.50000000E-01  8.50000000E-01  8.50000000E-01  8.50000000E-01
  8.50000000E-01  8.50000000E-01  8.50000000E-01  8.50000000E-01  8.50000000E-01
  8.50000000E-01  8.50000000E-01  8.50000000E-01  8.50000000E-01  8.50000000E-01
  8.50000000E-01  8.50000000E-01  8.50000000E-01  8.50000000E-01  8.50000000E-01
  8.50000000E-01  8.50000000E-01  8.50000000E-01  8.50000000E-01  8.50000000E-01
  8.50000000E-01  8.50000000E-01  8.50000000E-01  8.50000000E-01  8.50000000E-01
  8.50000000E-01  8.50000000E-01  8.50000000E-01  8.50000000E-01  8.50000000E-01
  8.50000000E-01  8.50000000E-01  8.50000000E-01  8.50000000E-01  8.50000000E-01
  8.50000000E-01  8.50000000E-01  8.50000000E-01  8.50000000E-01  8.50000000E-01
  8.50000000E-01  8.50000000E-01  8.50000000E-01  8.50000000E-01  8.50000000E-01
  8.50000000E-01  8.50000000E-01  8.50000000E-01  8.50000000E-01  8.50000000E-01
  8.50000000E-01  8.50000000E-01  8.50000000E-01  8.50000000E-01  8.50000000E-01
  8.50000000E-01  8.50000000E-01  8.50000000E-01  8.50000000E-01  8.50000000E-01
  8.50000000E-01  8.50000000E-01  8.50000000E-01  8.50000000E-01  8.50000000E-01
  8.50000000E-01  8.50000000E-01  8.50000000E-01  8.50000000E-01  8.50000000E-01
  8.50000000E-01  8.50000000E-01  8.50000000E-01  8.50000000E-01  8.50000000E-01
  8.50000000E-01  8.50000000E-01  8.50000000E-01  8.50000000E-01  8.50000000E-01
  8.50000000E-01  8.50000000E-01  8.50000000E-01  8.50000000E-01  8.50000000E-01
  8.50000000E-01  8.50000000E-01  8.50000000E-01  8.50000000E-01  8.50000000E-01
  8.50000000E-01  8.50000000E-01  8.50000000E-01  8.50000000E-01  8.50000000E-01
  8.50000000E-01  8.50000000E-01  8.50000000E-01  8.50000000E-01  8.50000000E-01
  8.50000000E-01  8.50000000E-01  8.50000000E-01  8.50000000E-01  8.50000000E-01
  8.50000000E-01  8.50000000E-01  8.50000000E-01  8.50000000E-01  8.50000000E-01
  8.50000000E-01  8.50000000E-01  8.50000000E-01  8.50000000E-01  8.50000000E-01
  8.50000000E-01  8.50000000E-01  8.50000000E-01  8.50000000E-01  8.50000000E-01
  8.50000000E-01  8.50000000E-01  8.50000000E-01  8.50000000E-01  8.50000000E-01
  8.50000000E-01  8.50000000E-01  8.50000000E-01  8.50000000E-01  8.50000000E-01
  8.50000000E-01  8.50000000E-01  8.50000000E-01  8.50000000E-01  8.50000000E-01
  8.50000000E-01  8.50000000E-01  8.50000000E-01  8.50000000E-01  8.50000000E-01
  8.50000000E-01  8.50000000E-01  8.50000000E-01  8.50000000E-01  8.50000000E-01
  8.50000000E-01  8.50000000E-01  8.50000000E-01  8.50000000E-01  8.50000000E-01
  8.50000000E-01  8.50000000E-01  8.50000000E-01  8.50000000E-01  8.50000000E-01
  8.50000000E-01  8.50000000E-01  8.50000000E-01  8.50000000E-01  8.50000000E-01
  8.50000000E-01  8.50000000E-01  8.50000000E-01  8.50000000E-01  8.50000000E-01
  8.50000000E-01  8.50000000E-01  8.50000000E-01  8.50000000E-01  8.50000000E-01
  8.50000000E-01  8.50000000E-01  8.50000000E-01  8.50000000E-01  8.50000000E-01
  8.50000000E-01  8.50000000E-01  8.50000000E-01  8.50000000E-01  8.50000000E-01
  8.50000000E-01  8.50000000E-01  8.50000000E-01  8.50000000E-01  8.50000000E-01
  8.50000000E-01  8.50000000E-01  8.50000000E-01  8.50000000E-01  8.50000000E-01
  8.50000000E-01  8.50000000E-01  8.50000000E-01  8.50000000E-01  8.50000000E-01
  8.50000000E-01  8.50000000E-01  8.50000000E-01  8.50000000E-01  8.50000000E-01
  8.50000000E-01  8.50000000E-01  8.50000000E-01  8.50000000E-01  8.50000000E-01
  8.50000000E-01  8.50000000E-01  8.50000000E-01  8.50000000E-01  8.50000000E-01
  8.50000000E-01  8.50000000E-01  8.50000000E-01  8.50000000E-01  8.50000000E-01
  8.50000000E-01  8.50000000E-01  8.50000000E-01  8.50000000E-01  8.50000000E-01
  8.50000000E-01  8.50000000E-01  8.50000000E-01  8.50000000E-01  8.50000000E-01
  8.50000000E-01  8.50000000E-01  8.50000000E-01  8.50000000E-01  8.50000000E-01
  8.50000000E-01  8.50000000E-01  8.50000000E-01  8.50000000E-01  8.50000000E-01
  8.50000000E-01  8.50000000E-01  8.50000000E-01  8.50000000E-01  8.50000000E-01
  8.50000000E-01  8.50000000E-01  8.50000000E-01  8.50000000E-01  8.50000000E-01
  8.50000000E-01  8.50000000E-01  8.50000000E-01  8.50000000E-01  8.50000000E-01
  8.50000000E-01  8.50000000E-01  8.50000000E-01  8.50000000E-01  8.50000000E-01
  8.50000000E-01  8.50000000E-01  8.50000000E-01  8.50000000E-01  8.50000000E-01
  8.50000000E-01  8.50000000E-01  8.50000000E-01  8.50000000E-01  8.50000000E-01
  8.50000000E-01  8.50000000E-01  8.50000000E-01  8.50000000E-01  8.50000000E-01
  8.50000000E-01  8.50000000E-01  8.50000000E-01  8.50000000E-01  8.50000000E-01
  8.50000000E-01  8.50000000E-01  8.50000000E-01  8.50000000E-01  8.50000000E-01
  8.50000000E-01  8.50000000E-01  8.50000000E-01  8.50000000E-01  8.50000000E-01
  8.50000000E-01  8.50000000E-01  8.50000000E-01  8.50000000E-01  8.50000000E-01
  8.50000000E-01  8.50000000E-01  8.50000000E-01  8.50000000E-01  8.50000000E-01
  8.50000000E-01  8.50000000E-01  8.50000000E-01  8.50000000E-01  8.50000000E-01
  8.50000000E-01  8.50000000E-01  8.50000000E-01  8.50000000E-01  8.50000000E-01
  8.50000000E-01  8.50000000E-01  8.50000000E-01  8.50000000E-01  8.50000000E-01
  8.50000000E-01  8.50000000E-01  8.50000000E-01  8.50000000E-01  8.50000000E-01
  8.50000000E-01  8.50000000E-01  8.50000000E-01  8.50000000E-01  8.50000000E-01
  8.50000000E-01  8.50000000E-01  8.50000000E-01  8.50000000E-01  8.50000000E-01
  8.50000000E-01  8.50000000E-01  8.50000000E-01  8.50000000E-01  8.50000000E-01
  8.50000000E-01  8.50000000E-01  8.50000000E-01  8.50000000E-01  8.50000000E-01
  8.50000000E-01  8.50000000E-01  8.50000000E-01  8.50000000E-01  8.50000000E-01
  8.50000000E-01  8.50000000E-01  8.50000000E-01  8.50000000E-01  8.50000000E-01
  8.50000000E-01  8.50000000E-01  8.50000000E-01  8.50000000E-01  8.50000000E-01
  8.50000000E-01  8.50000000E-01  8.50000000E-01  8.50000000E-01  8.50000000E-01
  8.50000000E-01  8.50000000E-01  8.50000000E-01  8.50000000E-01  8.50000000E-01
  8.50000000E-01  8.50000000E-01  8.50000000E-01  8.50000000E-01  8.50000000E-01
  8.50000000E-01  8.50000000E-01  8.50000000E-01  8.50000000E-01  8.50000000E-01
  8.50000000E-01  8.50000000E-01  8.50000000E-01  8.50000000E-01  8.50000000E-01
  8.50000000E-01  8.50000000E-01  8.50000000E-01  8.50000000E-01  8.50000000E-01
  8.50000000E-01  8.50000000E-01  8.50000000E-01  8.50000000E-01  8.50000000E-01
  8.50000000E-01  8.50000000E-01  8.50000000E-01  8.50000000E-01  8.50000000E-01
  8.50000000E-01  8.50000000E-01  8.50000000E-01  8.50000000E-01  8.50000000E-01
  8.50000000E-01  8.50000000E-01  8.50000000E-01  8.50000000E-01  8.50000000E-01
  8.50000000E-01  8.50000000E-01  8.50000000E-01  8.50000000E-01  8.50000000E-01
  8.50000000E-01  8.50000000E-01  8.50000000E-01  8.50000000E-01  8.50000000E-01
  8.50000000E-01  8.50000000E-01  8.50000000E-01  8.50000000E-01  8.50000000E-01
  8.50000000E-01  8.50000000E-01  8.50000000E-01  8.50000000E-01  8.50000000E-01
  8.50000000E-01  8.50000000E-01  8.50000000E-01  8.50000000E-01  8.50000000E-01
  8.50000000E-01  8.50000000E-01  8.50000000E-01  8.50000000E-01  8.50000000E-01
  8.50000000E-01  8.50000000E-01  8.50000000E-01  8.50000000E-01  8.50000000E-01
  8.50000000E-01  8.50000000E-01  8.50000000E-01  8.50000000E-01  8.50000000E-01
  8.50000000E-01  8.50000000E-01  8.50000000E-01  8.50000000E-01  8.50000000E-01
  8.50000000E-01  8.50000000E-01  8.50000000E-01  8.50000000E-01  8.50000000E-01
  8.50000000E-01  8.50000000E-01  8.50000000E-01  8.50000000E-01  8.50000000E-01
  8.50000000E-01  8.50000000E-01  8.50000000E-01  8.50000000E-01  8.50000000E-01
  8.50000000E-01  8.50000000E-01  8.50000000E-01  8.50000000E-01  8.50000000E-01
  8.50000000E-01  8.50000000E-01  8.50000000E-01  8.50000000E-01  8.50000000E-01
  8.50000000E-01  8.50000000E-01  8.50000000E-01  8.50000000E-01  8.50000000E-01
  8.50000000E-01  8.50000000E-01  8.50000000E-01  8.50000000E-01  8.50000000E-01
  8.50000000E-01  8.50000000E-01  8.50000000E-01  8.50000000E-01  8.50000000E-01
  8.50000000E-01  8.50000000E-01  8.50000000E-01  8.50000000E-01  8.50000000E-01
  8.50000000E-01  8.50000000E-01  8.50000000E-01  8.50000000E-01  8.50000000E-01
  8.50000000E-01  8.50000000E-01  8.50000000E-01  8.50000000E-01  8.50000000E-01
  8.50000000E-01  8.50000000E-01  8.50000000E-01  8.50000000E-01  8.50000000E-01
  8.50000000E-01  8.50000000E-01  8.50000000E-01  8.50000000E-01  8.50000000E-01
  8.50000000E-01  8.50000000E-01  8.50000000E-01  8.50000000E-01  8.50000000E-01
  8.50000000E-01  8.50000000E-01  8.50000000E-01  8.50000000E-01  8.50000000E-01
  8.50000000E-01  8.50000000E-01  8.50000000E-01  8.50000000E-01  8.50000000E-01
  8.50000000E-01  8.50000000E-01  8.50000000E-01  8.50000000E-01  8.50000000E-01
  8.50000000E-01  8.50000000E-01  8.50000000E-01  8.50000000E-01  8.50000000E-01
  8.50000000E-01  8.50000000E-01  8.50000000E-01  8.50000000E-01  8.50000000E-01
  8.50000000E-01  8.50000000E-01  8.50000000E-01  8.50000000E-01  8.50000000E-01
  8.50000000E-01  8.50000000E-01  8.50000000E-01  8.50000000E-01  8.50000000E-01
  8.50000000E-01  8.50000000E-01  8.50000000E-01  8.50000000E-01  8.50000000E-01
  8.50000000E-01  8.50000000E-01  8.50000000E-01  8.50000000E-01  8.50000000E-01
  8.50000000E-01  8.50000000E-01  8.50000000E-01  8.50000000E-01  8.50000000E-01
  8.50000000E-01  8.50000000E-01  8.50000000E-01  8.50000000E-01  8.50000000E-01
  8.50000000E-01  8.50000000E-01  8.50000000E-01  8.50000000E-01  8.50000000E-01
  8.50000000E-01  8.50000000E-01  8.50000000E-01  8.50000000E-01  8.50000000E-01
  8.50000000E-01  8.50000000E-01  8.50000000E-01  8.50000000E-01  8.50000000E-01
  8.50000000E-01  8.50000000E-01  8.50000000E-01  8.50000000E-01  8.50000000E-01
  8.50000000E-01  8.50000000E-01  8.50000000E-01  8.50000000E-01  8.50000000E-01
  8.50000000E-01  8.50000000E-01  8.50000000E-01  8.50000000E-01  8.50000000E-01
  8.50000000E-01  8.50000000E-01  8.50000000E-01  8.50000000E-01  8.50000000E-01
  8.50000000E-01  8.50000000E-01  8.50000000E-01  8.50000000E-01  8.50000000E-01
  8.50000000E-01  8.50000000E-01  8.50000000E-01  8.50000000E-01  8.50000000E-01
  8.50000000E-01  8.50000000E-01  8.50000000E-01  8.50000000E-01  8.50000000E-01
  8.50000000E-01  8.50000000E-01  8.50000000E-01  8.50000000E-01  8.50000000E-01
  8.50000000E-01  8.50000000E-01  8.50000000E-01  8.50000000E-01  8.50000000E-01
  8.50000000E-01  8.50000000E-01  8.50000000E-01  8.50000000E-01  8.50000000E-01
  8.50000000E-01  8.50000000E-01  8.50000000E-01  8.50000000E-01  8.50000000E-01
  8.50000000E-01  8.50000000E-01  8.50000000E-01  8.50000000E-01  8.50000000E-01
  8.50000000E-01  8.50000000E-01  8.50000000E-01  8.50000000E-01  8.50000000E-01
  8.50000000E-01  8.50000000E-01  8.50000000E-01  8.50000000E-01  8.50000000E-01
  8.50000000E-01  8.50000000E-01  8.50000000E-01  8.50000000E-01  8.50000000E-01
  8.50000000E-01  8.50000000E-01  8.50000000E-01  8.50000000E-01  8.50000000E-01
  8.50000000E-01  8.50000000E-01  8.50000000E-01  8.50000000E-01  8.50000000E-01
  8.50000000E-01  8.50000000E-01  8.50000000E-01  8.50000000E-01  8.50000000E-01
  8.50000000E-01  8.50000000E-01  8.50000000E-01  8.50000000E-01  8.50000000E-01
  8.50000000E-01  8.50000000E-01  8.50000000E-01  8.50000000E-01  8.50000000E-01
  8.50000000E-01  8.50000000E-01  8.50000000E-01  8.50000000E-01  8.50000000E-01
  8.50000000E-01  8.50000000E-01  8.50000000E-01  8.50000000E-01  8.50000000E-01
  8.50000000E-01  8.50000000E-01  8.50000000E-01  8.50000000E-01  8.50000000E-01
  8.50000000E-01  8.50000000E-01  8.50000000E-01  8.50000000E-01  8.50000000E-01
  8.50000000E-01  8.50000000E-01  8.50000000E-01  8.50000000E-01  8.50000000E-01
  8.50000000E-01  8.50000000E-01  8.50000000E-01  8.50000000E-01  8.50000000E-01
  8.50000000E-01  8.50000000E-01  8.50000000E-01  8.50000000E-01  8.50000000E-01
  8.50000000E-01  8.50000000E-01  8.50000000E-01  8.50000000E-01  8.50000000E-01
  8.50000000E-01  8.50000000E-01  8.50000000E-01  8.50000000E-01  8.50000000E-01
  8.50000000E-01  8.50000000E-01  8.50000000E-01  8.50000000E-01  8.50000000E-01
  8.50000000E-01  8.50000000E-01  8.50000000E-01  8.50000000E-01  8.50000000E-01
  8.50000000E-01  8.50000000E-01  8.50000000E-01  8.50000000E-01  8.50000000E-01
  8.50000000E-01  8.50000000E-01  8.50000000E-01  8.50000000E-01  8.50000000E-01
  8.50000000E-01  8.50000000E-01  8.50000000E-01  8.50000000E-01  8.50000000E-01
  8.50000000E-01  8.50000000E-01  8.50000000E-01  8.50000000E-01  8.50000000E-01
  8.50000000E-01  8.50000000E-01  8.50000000E-01  8.50000000E-01  8.50000000E-01
  8.50000000E-01  8.50000000E-01  8.50000000E-01  8.50000000E-01  8.50000000E-01
  8.50000000E-01  8.50000000E-01  8.50000000E-01  8.50000000E-01  8.50000000E-01
  8.50000000E-01  8.50000000E-01  8.50000000E-01  8.50000000E-01  8.50000000E-01
  8.50000000E-01  8.50000000E-01  8.50000000E-01  8.50000000E-01  8.50000000E-01
  8.50000000E-01  8.50000000E-01  8.50000000E-01  8.50000000E-01  8.50000000E-01
  8.50000000E-01  8.50000000E-01  8.50000000E-01  8.50000000E-01  8.50000000E-01
  8.50000000E-01  8.50000000E-01  8.50000000E-01  8.50000000E-01  8.50000000E-01
  8.50000000E-01  8.50000000E-01  8.50000000E-01  8.50000000E-01  8.50000000E-01
  8.50000000E-01  8.50000000E-01  8.50000000E-01  8.50000000E-01  8.50000000E-01
  8.50000000E-01  8.50000000E-01  8.50000000E-01  8.50000000E-01  8.50000000E-01
  8.50000000E-01  8.50000000E-01  8.50000000E-01  8.50000000E-01  8.50000000E-01
  8.50000000E-01  8.50000000E-01  8.50000000E-01  8.50000000E-01  8.50000000E-01
  8.50000000E-01  8.50000000E-01  8.50000000E-01  8.50000000E-01  8.50000000E-01
  8.50000000E-01  8.50000000E-01  8.50000000E-01  8.50000000E-01  8.50000000E-01
  8.50000000E-01  8.50000000E-01  8.50000000E-01  8.50000000E-01  8.50000000E-01
  8.50000000E-01  8.50000000E-01  8.50000000E-01  8.50000000E-01  8.50000000E-01
  8.50000000E-01  8.50000000E-01  8.50000000E-01  8.50000000E-01  8.50000000E-01
  8.50000000E-01  8.50000000E-01  8.50000000E-01  8.50000000E-01  8.50000000E-01
  8.50000000E-01  8.50000000E-01  8.50000000E-01  8.50000000E-01  8.50000000E-01
  8.50000000E-01  8.50000000E-01  8.50000000E-01  8.50000000E-01  8.50000000E-01
  8.50000000E-01  8.50000000E-01  8.50000000E-01  8.50000000E-01  8.50000000E-01
  8.50000000E-01  8.50000000E-01  8.50000000E-01  8.50000000E-01  8.50000000E-01
  8.50000000E-01  8.50000000E-01  8.50000000E-01  8.50000000E-01  8.50000000E-01
  8.50000000E-01  8.50000000E-01  8.50000000E-01  8.50000000E-01  8.50000000E-01
  8.50000000E-01  8.50000000E-01  8.50000000E-01  8.50000000E-01  8.50000000E-01
  8.50000000E-01  8.50000000E-01  8.50000000E-01  8.50000000E-01  8.50000000E-01
  8.50000000E-01  8.50000000E-01  8.50000000E-01  8.50000000E-01  8.50000000E-01
  8.50000000E-01  8.50000000E-01  8.50000000E-01  8.50000000E-01  8.50000000E-01
  8.50000000E-01  8.50000000E-01  8.50000000E-01  8.50000000E-01  8.50000000E-01
  8.50000000E-01  8.50000000E-01  8.50000000E-01  8.50000000E-01  8.50000000E-01
  8.50000000E-01  8.50000000E-01  8.50000000E-01  8.50000000E-01  8.50000000E-01
  8.50000000E-01  8.50000000E-01  8.50000000E-01  8.50000000E-01  8.50000000E-01
  8.50000000E-01  8.50000000E-01  8.50000000E-01  8.50000000E-01  8.50000000E-01
  8.50000000E-01  8.50000000E-01  8.50000000E-01  8.50000000E-01  8.50000000E-01
  8.50000000E-01  8.50000000E-01  8.50000000E-01  8.50000000E-01  8.50000000E-01
  8.50000000E-01  8.50000000E-01  8.50000000E-01  8.50000000E-01  8.50000000E-01
  8.50000000E-01  8.50000000E-01  8.50000000E-01  8.50000000E-01  8.50000000E-01
  8.50000000E-01  8.50000000E-01  8.50000000E-01  8.50000000E-01  8.50000000E-01
  8.50000000E-01  8.50000000E-01  8.50000000E-01  8.50000000E-01  8.50000000E-01
  8.50000000E-01  8.50000000E-01  8.50000000E-01  8.50000000E-01  8.50000000E-01
  8.50000000E-01  8.50000000E-01  8.50000000E-01  8.50000000E-01  8.50000000E-01
  8.50000000E-01  8.50000000E-01  8.50000000E-01  8.50000000E-01  8.50000000E-01
  8.50000000E-01  8.50000000E-01  8.50000000E-01  8.50000000E-01  8.50000000E-01
  8.50000000E-01  8.50000000E-01  8.50000000E-01  8.50000000E-01  8.50000000E-01
  8.50000000E-01  8.50000000E-01  8.50000000E-01  8.50000000E-01  8.50000000E-01
  8.50000000E-01  8.50000000E-01  8.50000000E-01  8.50000000E-01  8.50000000E-01
  8.50000000E-01  8.50000000E-01  8.50000000E-01  8.50000000E-01  8.50000000E-01
  8.50000000E-01  8.50000000E-01  8.50000000E-01  8.50000000E-01  8.50000000E-01
  8.50000000E-01  8.50000000E-01  8.50000000E-01  8.50000000E-01  8.50000000E-01
  8.50000000E-01  8.50000000E-01  8.50000000E-01  8.50000000E-01  8.50000000E-01
  8.50000000E-01  8.50000000E-01  8.50000000E-01  8.50000000E-01  8.50000000E-01
  8.50000000E-01  8.50000000E-01  8.50000000E-01  8.50000000E-01  8.50000000E-01
  8.50000000E-01  8.50000000E-01  8.50000000E-01  8.50000000E-01  8.50000000E-01
  8.50000000E-01  8.50000000E-01  8.50000000E-01  8.50000000E-01  8.50000000E-01
  8.50000000E-01  8.50000000E-01  8.50000000E-01  8.50000000E-01  8.50000000E-01
  8.50000000E-01  8.50000000E-01  8.50000000E-01  8.50000000E-01  8.50000000E-01
  8.50000000E-01  8.50000000E-01  8.50000000E-01  8.50000000E-01  8.50000000E-01
  8.50000000E-01  8.50000000E-01  8.50000000E-01  8.50000000E-01  8.50000000E-01
  8.50000000E-01  8.50000000E-01  8.50000000E-01  8.50000000E-01  8.50000000E-01
  8.50000000E-01  8.50000000E-01  8.50000000E-01  8.50000000E-01  8.50000000E-01
  8.50000000E-01  8.50000000E-01  8.50000000E-01  8.50000000E-01  8.50000000E-01
  8.50000000E-01  8.50000000E-01  8.50000000E-01  8.50000000E-01  8.50000000E-01
  8.50000000E-01  8.50000000E-01  8.50000000E-01  8.50000000E-01  8.50000000E-01
  8.50000000E-01  8.50000000E-01  8.50000000E-01  8.50000000E-01  8.50000000E-01
  8.50000000E-01  8.50000000E-01  8.50000000E-01  8.50000000E-01  8.50000000E-01
  8.50000000E-01  8.50000000E-01  8.50000000E-01  8.50000000E-01  8.50000000E-01
  8.50000000E-01  8.50000000E-01  8.50000000E-01  8.50000000E-01  8.50000000E-01
  8.50000000E-01  8.50000000E-01  8.50000000E-01  8.50000000E-01  8.50000000E-01
  8.50000000E-01  8.50000000E-01  8.50000000E-01  8.50000000E-01  8.50000000E-01
  8.50000000E-01  8.50000000E-01  8.50000000E-01  8.50000000E-01  8.50000000E-01
  8.50000000E-01  8.50000000E-01  8.50000000E-01  8.50000000E-01  8.50000000E-01
  8.50000000E-01  8.50000000E-01  8.50000000E-01  8.50000000E-01  8.50000000E-01
  8.50000000E-01  8.50000000E-01  8.50000000E-01  8.50000000E-01  8.50000000E-01
  8.50000000E-01  8.50000000E-01  8.50000000E-01  8.50000000E-01  8.50000000E-01
  8.50000000E-01  8.50000000E-01  8.50000000E-01  8.50000000E-01  8.50000000E-01
  8.50000000E-01  8.50000000E-01  8.50000000E-01  8.50000000E-01  8.50000000E-01
  8.50000000E-01  8.50000000E-01  8.50000000E-01  8.50000000E-01  8.50000000E-01
  8.50000000E-01  8.50000000E-01  8.50000000E-01  8.50000000E-01  8.50000000E-01
  8.50000000E-01  8.50000000E-01  8.50000000E-01  8.50000000E-01  8.50000000E-01
  8.50000000E-01  8.50000000E-01  8.50000000E-01  8.50000000E-01  8.50000000E-01
  8.50000000E-01  8.50000000E-01  8.50000000E-01  8.50000000E-01  8.50000000E-01
  8.50000000E-01  8.50000000E-01  8.50000000E-01  8.50000000E-01  8.50000000E-01
  8.50000000E-01  8.50000000E-01  8.50000000E-01  8.50000000E-01  8.50000000E-01
  8.50000000E-01  8.50000000E-01  8.50000000E-01  8.50000000E-01  8.50000000E-01
  8.50000000E-01  8.50000000E-01  8.50000000E-01  8.50000000E-01  8.50000000E-01
  8.50000000E-01  8.50000000E-01  8.50000000E-01  8.50000000E-01  8.50000000E-01
  8.50000000E-01  8.50000000E-01  8.50000000E-01  8.50000000E-01  8.50000000E-01
  8.50000000E-01  8.50000000E-01  8.50000000E-01  8.50000000E-01  8.50000000E-01
  8.50000000E-01  8.50000000E-01  8.50000000E-01  8.50000000E-01  8.50000000E-01
  8.50000000E-01  8.50000000E-01  8.50000000E-01  8.50000000E-01  8.50000000E-01
  8.50000000E-01  8.50000000E-01  8.50000000E-01  8.50000000E-01  8.50000000E-01
  8.50000000E-01  8.50000000E-01  8.50000000E-01  8.50000000E-01  8.50000000E-01
  8.50000000E-01  8.50000000E-01  8.50000000E-01  8.50000000E-01  8.50000000E-01
  8.50000000E-01  8.50000000E-01  8.50000000E-01  8.50000000E-01  8.50000000E-01
  8.50000000E-01  8.50000000E-01  8.50000000E-01  8.50000000E-01  8.50000000E-01
  8.50000000E-01  8.50000000E-01  8.50000000E-01  8.50000000E-01  8.50000000E-01
  8.50000000E-01  8.50000000E-01  8.50000000E-01  8.50000000E-01  8.50000000E-01
  8.50000000E-01  8.50000000E-01  8.50000000E-01  8.50000000E-01  8.50000000E-01
  8.50000000E-01  8.50000000E-01  8.50000000E-01  8.50000000E-01  8.50000000E-01
  8.50000000E-01  8.50000000E-01  8.50000000E-01  8.50000000E-01  8.50000000E-01
  8.50000000E-01  8.50000000E-01  8.50000000E-01  8.50000000E-01  8.50000000E-01
  8.50000000E-01  8.50000000E-01  8.50000000E-01  8.50000000E-01  8.50000000E-01
  8.50000000E-01  8.50000000E-01  8.50000000E-01  8.50000000E-01  8.50000000E-01
  8.50000000E-01  8.50000000E-01  8.50000000E-01  8.50000000E-01  8.50000000E-01
  8.50000000E-01  8.50000000E-01  8.50000000E-01  8.50000000E-01  8.50000000E-01
  8.50000000E-01  8.50000000E-01  8.50000000E-01  8.50000000E-01  8.50000000E-01
  8.50000000E-01  8.50000000E-01  8.50000000E-01  8.50000000E-01  8.50000000E-01
  8.50000000E-01  8.50000000E-01  8.50000000E-01  8.50000000E-01  8.50000000E-01
  8.50000000E-01  8.50000000E-01  8.50000000E-01  8.50000000E-01  8.50000000E-01
  8.50000000E-01  8.50000000E-01  8.50000000E-01  8.50000000E-01  8.50000000E-01
  8.50000000E-01  8.50000000E-01  8.50000000E-01  8.50000000E-01  8.50000000E-01
  8.50000000E-01  8.50000000E-01  8.50000000E-01  8.50000000E-01  8.50000000E-01
  8.50000000E-01  8.50000000E-01  8.50000000E-01  8.50000000E-01  8.50000000E-01
  8.50000000E-01  8.50000000E-01  8.50000000E-01  8.50000000E-01  8.50000000E-01
  8.50000000E-01  8.50000000E-01  8.50000000E-01  8.50000000E-01  8.50000000E-01
  8.50000000E-01  8.50000000E-01  8.50000000E-01  8.50000000E-01  8.50000000E-01
  8.50000000E-01  8.50000000E-01  8.50000000E-01  8.50000000E-01  8.50000000E-01
  8.50000000E-01  8.50000000E-01  8.50000000E-01  8.50000000E-01  8.50000000E-01
  8.50000000E-01  8.50000000E-01  8.50000000E-01  8.50000000E-01  8.50000000E-01
  8.50000000E-01  8.50000000E-01  8.50000000E-01  8.50000000E-01  8.50000000E-01
  8.50000000E-01  8.50000000E-01  8.50000000E-01  8.50000000E-01  8.50000000E-01
  8.50000000E-01  8.50000000E-01  8.50000000E-01  8.50000000E-01  8.50000000E-01
  8.50000000E-01  8.50000000E-01  8.50000000E-01  8.50000000E-01  8.50000000E-01
  8.50000000E-01  8.50000000E-01  8.50000000E-01  8.50000000E-01  8.50000000E-01
  8.50000000E-01  8.50000000E-01  8.50000000E-01  8.50000000E-01  8.50000000E-01
  8.50000000E-01  8.50000000E-01  8.50000000E-01  8.50000000E-01  8.50000000E-01
  8.50000000E-01  8.50000000E-01  8.50000000E-01  8.50000000E-01  8.50000000E-01
  8.50000000E-01  8.50000000E-01  8.50000000E-01  8.50000000E-01  8.50000000E-01
  8.50000000E-01  8.50000000E-01  8.50000000E-01  8.50000000E-01  8.50000000E-01
  8.50000000E-01  8.50000000E-01  8.50000000E-01  8.50000000E-01  8.50000000E-01
  8.50000000E-01  8.50000000E-01  8.50000000E-01  8.50000000E-01  8.50000000E-01
  8.50000000E-01  8.50000000E-01  8.50000000E-01  8.50000000E-01  8.50000000E-01
  8.50000000E-01  8.50000000E-01  8.50000000E-01  8.50000000E-01  8.50000000E-01
  8.50000000E-01  8.50000000E-01  8.50000000E-01  8.50000000E-01  8.50000000E-01
  8.50000000E-01  8.50000000E-01  8.50000000E-01  8.50000000E-01  8.50000000E-01
  8.50000000E-01  8.50000000E-01  8.50000000E-01  8.50000000E-01  8.50000000E-01
  8.50000000E-01  8.50000000E-01  8.50000000E-01  8.50000000E-01  8.50000000E-01
  8.50000000E-01  8.50000000E-01  8.50000000E-01  8.50000000E-01  8.50000000E-01
  8.50000000E-01  8.50000000E-01  8.50000000E-01  8.50000000E-01  8.50000000E-01
  8.50000000E-01  8.50000000E-01  8.50000000E-01  8.50000000E-01  8.50000000E-01
  8.50000000E-01  8.50000000E-01  8.50000000E-01  8.50000000E-01  8.50000000E-01
  8.50000000E-01  8.50000000E-01  8.50000000E-01  8.50000000E-01  8.50000000E-01
  8.50000000E-01  8.50000000E-01  8.50000000E-01  8.50000000E-01  8.50000000E-01
  8.50000000E-01  8.50000000E-01  8.50000000E-01  8.50000000E-01  8.50000000E-01
  8.50000000E-01  8.50000000E-01  8.50000000E-01  8.50000000E-01  8.50000000E-01
  8.50000000E-01  8.50000000E-01  8.50000000E-01  8.50000000E-01  8.50000000E-01
  8.50000000E-01  8.50000000E-01  8.50000000E-01  8.50000000E-01  8.50000000E-01
  8.50000000E-01  8.50000000E-01  8.50000000E-01  8.50000000E-01  8.50000000E-01
  8.50000000E-01  8.50000000E-01  8.50000000E-01  8.50000000E-01  8.50000000E-01
  8.50000000E-01  8.50000000E-01  8.50000000E-01  8.50000000E-01  8.50000000E-01
  8.50000000E-01  8.50000000E-01  8.50000000E-01  8.50000000E-01  8.50000000E-01
  8.50000000E-01  8.50000000E-01  8.50000000E-01  8.50000000E-01  8.50000000E-01
  8.50000000E-01  8.50000000E-01  8.50000000E-01  8.50000000E-01  8.50000000E-01
  8.50000000E-01  8.50000000E-01  8.50000000E-01  8.50000000E-01  8.50000000E-01
  8.50000000E-01  8.50000000E-01  8.50000000E-01  8.50000000E-01  8.50000000E-01
  8.50000000E-01  8.50000000E-01  8.50000000E-01  8.50000000E-01  8.50000000E-01
  8.50000000E-01  8.50000000E-01  8.50000000E-01  8.50000000E-01  8.50000000E-01
  8.50000000E-01  8.50000000E-01  8.50000000E-01  8.50000000E-01  8.50000000E-01
  8.50000000E-01  8.50000000E-01  8.50000000E-01  8.50000000E-01  8.50000000E-01
  8.50000000E-01  8.50000000E-01  8.50000000E-01  8.50000000E-01  8.50000000E-01
  8.50000000E-01  8.50000000E-01  8.50000000E-01  8.50000000E-01  8.50000000E-01
  8.50000000E-01  8.50000000E-01  8.50000000E-01  8.50000000E-01  8.50000000E-01
  8.50000000E-01  8.50000000E-01  8.50000000E-01  8.50000000E-01  8.50000000E-01
  8.50000000E-01  8.50000000E-01  8.50000000E-01  8.50000000E-01  8.50000000E-01
  8.50000000E-01  8.50000000E-01  8.50000000E-01  8.50000000E-01  8.50000000E-01
  8.50000000E-01  8.50000000E-01  8.50000000E-01  8.50000000E-01  8.50000000E-01
  8.50000000E-01  8.50000000E-01  8.50000000E-01  8.50000000E-01  8.50000000E-01
  8.50000000E-01  8.50000000E-01  8.50000000E-01  8.50000000E-01  8.50000000E-01
  8.50000000E-01  8.50000000E-01  8.50000000E-01  8.50000000E-01  8.50000000E-01
  8.50000000E-01  8.50000000E-01  8.50000000E-01  8.50000000E-01  8.50000000E-01
  8.50000000E-01  8.50000000E-01  8.50000000E-01  8.50000000E-01  8.50000000E-01
  8.50000000E-01  8.50000000E-01  8.50000000E-01  8.50000000E-01  8.50000000E-01
  8.50000000E-01  8.50000000E-01  8.50000000E-01  8.50000000E-01  8.50000000E-01
  8.50000000E-01  8.50000000E-01  8.50000000E-01  8.50000000E-01  8.50000000E-01
  8.50000000E-01  8.50000000E-01  8.50000000E-01  8.50000000E-01  8.50000000E-01
  8.50000000E-01  8.50000000E-01  8.50000000E-01  8.50000000E-01  8.50000000E-01
  8.50000000E-01  8.50000000E-01  8.50000000E-01  8.50000000E-01  8.50000000E-01
  8.50000000E-01  8.50000000E-01  8.50000000E-01  8.50000000E-01  8.50000000E-01
  8.50000000E-01  8.50000000E-01  8.50000000E-01  8.50000000E-01  8.50000000E-01
  8.50000000E-01  8.50000000E-01  8.50000000E-01  8.50000000E-01  8.50000000E-01
  8.50000000E-01  8.50000000E-01  8.50000000E-01  8.50000000E-01  8.50000000E-01
  8.50000000E-01  8.50000000E-01  8.50000000E-01  8.50000000E-01  8.50000000E-01
  8.50000000E-01  8.50000000E-01  8.50000000E-01  8.50000000E-01  8.50000000E-01
  8.50000000E-01  8.50000000E-01  8.50000000E-01  8.50000000E-01  8.50000000E-01
  8.50000000E-01  8.50000000E-01  8.50000000E-01  8.50000000E-01  8.50000000E-01
  8.50000000E-01  8.50000000E-01  8.50000000E-01  8.50000000E-01  8.50000000E-01
  8.50000000E-01  8.50000000E-01  8.50000000E-01  8.50000000E-01  8.50000000E-01
  8.50000000E-01  8.50000000E-01  8.50000000E-01  8.50000000E-01  8.50000000E-01
  8.50000000E-01  8.50000000E-01  8.50000000E-01  8.50000000E-01  8.50000000E-01
  8.50000000E-01  8.50000000E-01  8.50000000E-01  8.50000000E-01  8.50000000E-01
  8.50000000E-01  8.50000000E-01  8.50000000E-01  8.50000000E-01  8.50000000E-01
  8.50000000E-01  8.50000000E-01  8.50000000E-01  8.50000000E-01  8.50000000E-01
  8.50000000E-01  8.50000000E-01  8.50000000E-01  8.50000000E-01  8.50000000E-01
  8.50000000E-01  8.50000000E-01  8.50000000E-01  8.50000000E-01  8.50000000E-01
  8.50000000E-01  8.50000000E-01  8.50000000E-01  8.50000000E-01  8.50000000E-01
  8.50000000E-01  8.50000000E-01  8.50000000E-01  8.50000000E-01  8.50000000E-01
  8.50000000E-01  8.50000000E-01  8.50000000E-01  8.50000000E-01  8.50000000E-01
  8.50000000E-01  8.50000000E-01  8.50000000E-01  8.50000000E-01  8.50000000E-01
  8.50000000E-01  8.50000000E-01  8.50000000E-01  8.50000000E-01  8.50000000E-01
  8.50000000E-01  8.50000000E-01  8.50000000E-01  8.50000000E-01  8.50000000E-01
  8.50000000E-01  8.50000000E-01  8.50000000E-01  8.50000000E-01  8.50000000E-01
  8.50000000E-01  8.50000000E-01  8.50000000E-01  8.50000000E-01  8.50000000E-01
  8.50000000E-01  8.50000000E-01  8.50000000E-01  8.50000000E-01  8.50000000E-01
  8.50000000E-01  8.50000000E-01  8.50000000E-01  8.50000000E-01  8.50000000E-01
  8.50000000E-01  8.50000000E-01  8.50000000E-01  8.50000000E-01  8.50000000E-01
  8.50000000E-01  8.50000000E-01  8.50000000E-01  8.50000000E-01  8.50000000E-01
  8.50000000E-01  8.50000000E-01  8.50000000E-01  8.50000000E-01  8.50000000E-01
  8.50000000E-01  8.50000000E-01  8.50000000E-01  8.50000000E-01  8.50000000E-01
  8.50000000E-01  8.50000000E-01  8.50000000E-01  8.50000000E-01  8.50000000E-01
  8.50000000E-01  8.50000000E-01  8.50000000E-01  8.50000000E-01  8.50000000E-01
  8.50000000E-01  8.50000000E-01  8.50000000E-01  8.50000000E-01  8.50000000E-01
  8.50000000E-01  8.50000000E-01  8.50000000E-01  8.50000000E-01  8.50000000E-01
  8.50000000E-01  8.50000000E-01  8.50000000E-01  8.50000000E-01  8.50000000E-01
  8.50000000E-01  8.50000000E-01  8.50000000E-01  8.50000000E-01  8.50000000E-01
  8.50000000E-01  8.50000000E-01  8.50000000E-01  8.50000000E-01  8.50000000E-01
  8.50000000E-01  8.50000000E-01  8.50000000E-01  8.50000000E-01  8.50000000E-01
  8.50000000E-01  8.50000000E-01  8.50000000E-01  8.50000000E-01  8.50000000E-01
  8.50000000E-01  8.50000000E-01  8.50000000E-01  8.50000000E-01  8.50000000E-01
  8.50000000E-01  8.50000000E-01  8.50000000E-01  8.50000000E-01  8.50000000E-01
  8.50000000E-01  8.50000000E-01  8.50000000E-01  8.50000000E-01  8.50000000E-01
  8.50000000E-01  8.50000000E-01  8.50000000E-01  8.50000000E-01  8.50000000E-01
  8.50000000E-01  8.50000000E-01  8.50000000E-01  8.50000000E-01  8.50000000E-01
  8.50000000E-01  8.50000000E-01  8.50000000E-01  8.50000000E-01  8.50000000E-01
  8.50000000E-01  8.50000000E-01  8.50000000E-01  8.50000000E-01  8.50000000E-01
  8.50000000E-01  8.50000000E-01  8.50000000E-01  8.50000000E-01  8.50000000E-01
  8.50000000E-01  8.50000000E-01  8.50000000E-01  8.50000000E-01  8.50000000E-01
  8.50000000E-01  8.50000000E-01  8.50000000E-01  8.50000000E-01  8.50000000E-01
  8.50000000E-01  8.50000000E-01  8.50000000E-01  8.50000000E-01  8.50000000E-01
  8.50000000E-01  8.50000000E-01  8.50000000E-01  8.50000000E-01  8.50000000E-01
  8.50000000E-01  8.50000000E-01  8.50000000E-01  8.50000000E-01  8.50000000E-01
  8.50000000E-01  8.50000000E-01  8.50000000E-01  8.50000000E-01  8.50000000E-01
  8.50000000E-01  8.50000000E-01  8.50000000E-01  8.50000000E-01  8.50000000E-01
  8.50000000E-01  8.50000000E-01  8.50000000E-01  8.50000000E-01  8.50000000E-01
  8.50000000E-01  8.50000000E-01  8.50000000E-01  8.50000000E-01  8.50000000E-01
  8.50000000E-01  8.50000000E-01  8.50000000E-01  8.50000000E-01  8.50000000E-01
  8.50000000E-01  8.50000000E-01  8.50000000E-01  8.50000000E-01  8.50000000E-01
  8.50000000E-01  8.50000000E-01  8.50000000E-01  8.50000000E-01  8.50000000E-01
  8.50000000E-01  8.50000000E-01  8.50000000E-01  8.50000000E-01  8.50000000E-01
  8.50000000E-01  8.50000000E-01  8.50000000E-01  8.50000000E-01  8.50000000E-01
  8.50000000E-01  8.50000000E-01  8.50000000E-01  8.50000000E-01  8.50000000E-01
  8.50000000E-01  8.50000000E-01  8.50000000E-01  8.50000000E-01  8.50000000E-01
  8.50000000E-01  8.50000000E-01  8.50000000E-01  8.50000000E-01  8.50000000E-01
  8.50000000E-01  8.50000000E-01  8.50000000E-01  8.50000000E-01  8.50000000E-01
  8.50000000E-01  8.50000000E-01  8.50000000E-01  8.50000000E-01  8.50000000E-01
  8.50000000E-01  8.50000000E-01  8.50000000E-01  8.50000000E-01  8.50000000E-01
  8.50000000E-01  8.50000000E-01  8.50000000E-01  8.50000000E-01  8.50000000E-01
  8.50000000E-01  8.50000000E-01  8.50000000E-01  8.50000000E-01  8.50000000E-01
  8.50000000E-01  8.50000000E-01  8.50000000E-01  8.50000000E-01  8.50000000E-01
  8.50000000E-01  8.50000000E-01  8.50000000E-01  8.50000000E-01  8.50000000E-01
  8.50000000E-01  8.50000000E-01  8.50000000E-01  8.50000000E-01  8.50000000E-01
  8.50000000E-01  8.50000000E-01  8.50000000E-01  8.50000000E-01  8.50000000E-01
  8.50000000E-01  8.50000000E-01  8.50000000E-01  8.50000000E-01  8.50000000E-01
  8.50000000E-01  8.50000000E-01  8.50000000E-01  8.50000000E-01  8.50000000E-01
  8.50000000E-01  8.50000000E-01  8.50000000E-01  8.50000000E-01  8.50000000E-01
  8.50000000E-01  8.50000000E-01  8.50000000E-01  8.50000000E-01  8.50000000E-01
  8.50000000E-01  8.50000000E-01  8.50000000E-01  8.50000000E-01  8.50000000E-01
  8.50000000E-01  8.50000000E-01  8.50000000E-01  8.50000000E-01  8.50000000E-01
  8.50000000E-01  8.50000000E-01  8.50000000E-01  8.50000000E-01  8.50000000E-01
  8.50000000E-01  8.50000000E-01  8.50000000E-01  8.50000000E-01  8.50000000E-01
  8.50000000E-01  8.50000000E-01  8.50000000E-01  8.50000000E-01  8.50000000E-01
  8.50000000E-01  8.50000000E-01  8.50000000E-01  8.50000000E-01  8.50000000E-01
  8.50000000E-01  8.50000000E-01  8.50000000E-01  8.50000000E-01  8.50000000E-01
  8.50000000E-01  8.50000000E-01  8.50000000E-01  8.50000000E-01  8.50000000E-01
  8.50000000E-01  8.50000000E-01  8.50000000E-01  8.50000000E-01  8.50000000E-01
  8.50000000E-01  8.50000000E-01  8.50000000E-01  8.50000000E-01  8.50000000E-01
  8.50000000E-01  8.50000000E-01  8.50000000E-01  8.50000000E-01  8.50000000E-01
  8.50000000E-01  8.50000000E-01  8.50000000E-01  8.50000000E-01  8.50000000E-01
  8.50000000E-01  8.50000000E-01  8.50000000E-01  8.50000000E-01  8.50000000E-01
  8.50000000E-01  8.50000000E-01  8.50000000E-01  8.50000000E-01  8.50000000E-01
  8.50000000E-01  8.50000000E-01  8.50000000E-01  8.50000000E-01  8.50000000E-01
  8.50000000E-01  8.50000000E-01  8.50000000E-01  8.50000000E-01  8.50000000E-01
  8.50000000E-01  8.50000000E-01  8.50000000E-01  8.50000000E-01  8.50000000E-01
  8.50000000E-01  8.50000000E-01  8.50000000E-01  8.50000000E-01  8.50000000E-01
  8.50000000E-01  8.50000000E-01  8.50000000E-01  8.50000000E-01  8.50000000E-01
  8.50000000E-01  8.50000000E-01  8.50000000E-01  8.50000000E-01  8.50000000E-01
  8.50000000E-01  8.50000000E-01  8.50000000E-01  8.50000000E-01  8.50000000E-01
  8.50000000E-01  8.50000000E-01  8.50000000E-01  8.50000000E-01  8.50000000E-01
  8.50000000E-01  8.50000000E-01  8.50000000E-01  8.50000000E-01  8.50000000E-01
  8.50000000E-01  8.50000000E-01  8.50000000E-01  8.50000000E-01  8.50000000E-01
  8.50000000E-01  8.50000000E-01  8.50000000E-01  8.50000000E-01  8.50000000E-01
  8.50000000E-01  8.50000000E-01  8.50000000E-01  8.50000000E-01  8.50000000E-01
  8.50000000E-01  8.50000000E-01  8.50000000E-01  8.50000000E-01  8.50000000E-01
  8.50000000E-01  8.50000000E-01  8.50000000E-01  8.50000000E-01  8.50000000E-01
  8.50000000E-01  8.50000000E-01  8.50000000E-01  8.50000000E-01  8.50000000E-01
  8.50000000E-01  8.50000000E-01  8.50000000E-01  8.50000000E-01  8.50000000E-01
  8.50000000E-01  8.50000000E-01  8.50000000E-01  8.50000000E-01  8.50000000E-01
  8.50000000E-01  8.50000000E-01  8.50000000E-01  8.50000000E-01  8.50000000E-01
  8.50000000E-01  8.50000000E-01  8.50000000E-01  8.50000000E-01  8.50000000E-01
  8.50000000E-01  8.50000000E-01  8.50000000E-01  8.50000000E-01  8.50000000E-01
  8.50000000E-01  8.50000000E-01  8.50000000E-01  8.50000000E-01  8.50000000E-01
  8.50000000E-01  8.50000000E-01  8.50000000E-01  8.50000000E-01  8.50000000E-01
  8.50000000E-01  8.50000000E-01  8.50000000E-01  8.50000000E-01  8.50000000E-01
  8.50000000E-01  8.50000000E-01  8.50000000E-01  8.50000000E-01  8.50000000E-01
  8.50000000E-01  8.50000000E-01  8.50000000E-01  8.50000000E-01  8.50000000E-01
  8.50000000E-01  8.50000000E-01  8.50000000E-01  8.50000000E-01  8.50000000E-01
  8.50000000E-01  8.50000000E-01  8.50000000E-01  8.50000000E-01  8.50000000E-01
  8.50000000E-01  8.50000000E-01  8.50000000E-01  8.50000000E-01  8.50000000E-01
  8.50000000E-01  8.50000000E-01  8.50000000E-01  8.50000000E-01  8.50000000E-01
  8.50000000E-01  8.50000000E-01  8.50000000E-01  8.50000000E-01  8.50000000E-01
  8.50000000E-01  8.50000000E-01  8.50000000E-01  8.50000000E-01  8.50000000E-01
  8.50000000E-01  8.50000000E-01  8.50000000E-01  8.50000000E-01  8.50000000E-01
  8.50000000E-01  8.50000000E-01  8.50000000E-01  8.50000000E-01  8.50000000E-01
  8.50000000E-01  8.50000000E-01  8.50000000E-01  8.50000000E-01  8.50000000E-01
  8.50000000E-01  8.50000000E-01  8.50000000E-01  8.50000000E-01  8.50000000E-01
  8.50000000E-01  8.50000000E-01  8.50000000E-01  8.50000000E-01  8.50000000E-01
  8.50000000E-01  8.50000000E-01  8.50000000E-01  8.50000000E-01  8.50000000E-01
  8.50000000E-01  8.50000000E-01  8.50000000E-01  8.50000000E-01  8.50000000E-01
  8.50000000E-01  8.50000000E-01  8.50000000E-01  8.50000000E-01  8.50000000E-01
  8.50000000E-01  8.50000000E-01  8.50000000E-01  8.50000000E-01  8.50000000E-01
  8.50000000E-01  8.50000000E-01  8.50000000E-01  8.50000000E-01  8.50000000E-01
  8.50000000E-01  8.50000000E-01  8.50000000E-01  8.50000000E-01  8.50000000E-01
  8.50000000E-01  8.50000000E-01  8.50000000E-01  8.50000000E-01  8.50000000E-01
  8.50000000E-01  8.50000000E-01  8.50000000E-01  8.50000000E-01  8.50000000E-01
  8.50000000E-01  8.50000000E-01  8.50000000E-01  8.50000000E-01  8.50000000E-01
  8.50000000E-01  8.50000000E-01  8.50000000E-01  8.50000000E-01  8.50000000E-01
  8.50000000E-01  8.50000000E-01  8.50000000E-01  8.50000000E-01  8.50000000E-01
  8.50000000E-01  8.50000000E-01  8.50000000E-01  8.50000000E-01  8.50000000E-01
  8.50000000E-01  8.50000000E-01  8.50000000E-01  8.50000000E-01  8.50000000E-01
  8.50000000E-01  8.50000000E-01  8.50000000E-01  8.50000000E-01  8.50000000E-01
  8.50000000E-01  8.50000000E-01  8.50000000E-01  8.50000000E-01  8.50000000E-01
  8.50000000E-01  8.50000000E-01  8.50000000E-01  8.50000000E-01  8.50000000E-01
  8.50000000E-01  8.50000000E-01  8.50000000E-01  8.50000000E-01  8.50000000E-01
  8.50000000E-01  8.50000000E-01  8.50000000E-01  8.50000000E-01  8.50000000E-01
  8.50000000E-01  8.50000000E-01  8.50000000E-01  8.50000000E-01  8.50000000E-01
  8.50000000E-01  8.50000000E-01  8.50000000E-01  8.50000000E-01  8.50000000E-01
  8.50000000E-01  8.50000000E-01  8.50000000E-01  8.50000000E-01  8.50000000E-01
  8.50000000E-01  8.50000000E-01  8.50000000E-01  8.50000000E-01  8.50000000E-01
  8.50000000E-01  8.50000000E-01  8.50000000E-01  8.50000000E-01  8.50000000E-01
  8.50000000E-01  8.50000000E-01  8.50000000E-01  8.50000000E-01  8.50000000E-01
  8.50000000E-01  8.50000000E-01  8.50000000E-01  8.50000000E-01  8.50000000E-01
  8.50000000E-01  8.50000000E-01  8.50000000E-01  8.50000000E-01  8.50000000E-01
  8.50000000E-01  8.50000000E-01  8.50000000E-01  8.50000000E-01  8.50000000E-01
  8.50000000E-01  8.50000000E-01  8.50000000E-01  8.50000000E-01  8.50000000E-01
  8.50000000E-01  8.50000000E-01  8.50000000E-01  8.50000000E-01  8.50000000E-01
  8.50000000E-01  8.50000000E-01  8.50000000E-01  8.50000000E-01  8.50000000E-01
  8.50000000E-01  8.50000000E-01  8.50000000E-01  8.50000000E-01  8.50000000E-01
  8.50000000E-01  8.50000000E-01  8.50000000E-01  8.50000000E-01  8.50000000E-01
  8.50000000E-01  8.50000000E-01  8.50000000E-01  8.50000000E-01  8.50000000E-01
  8.50000000E-01  8.50000000E-01  8.50000000E-01  8.50000000E-01  8.50000000E-01
  8.50000000E-01  8.50000000E-01  8.50000000E-01  8.50000000E-01  8.50000000E-01
  8.50000000E-01  8.50000000E-01  8.50000000E-01  8.50000000E-01  8.50000000E-01
  8.50000000E-01  8.50000000E-01  8.50000000E-01  8.50000000E-01  8.50000000E-01
  8.50000000E-01  8.50000000E-01  8.50000000E-01  8.50000000E-01  8.50000000E-01
  8.50000000E-01  8.50000000E-01  8.50000000E-01  8.50000000E-01  8.50000000E-01
  8.50000000E-01  8.50000000E-01  8.50000000E-01  8.50000000E-01  8.50000000E-01
  8.50000000E-01  8.50000000E-01  8.50000000E-01  8.50000000E-01  8.50000000E-01
  8.50000000E-01  8.50000000E-01  8.50000000E-01  8.50000000E-01  8.50000000E-01
  8.50000000E-01  8.50000000E-01  8.50000000E-01  8.50000000E-01  8.50000000E-01
  8.50000000E-01  8.50000000E-01  8.50000000E-01  8.50000000E-01  8.50000000E-01
  8.50000000E-01  8.50000000E-01  8.50000000E-01  8.50000000E-01  8.50000000E-01
  8.50000000E-01  8.50000000E-01  8.50000000E-01  8.50000000E-01  8.50000000E-01
  8.50000000E-01  8.50000000E-01  8.50000000E-01  8.50000000E-01  8.50000000E-01
  8.50000000E-01  8.50000000E-01  8.50000000E-01  8.50000000E-01  8.50000000E-01
  8.50000000E-01  8.50000000E-01  8.50000000E-01  8.50000000E-01  8.50000000E-01
  8.50000000E-01  8.50000000E-01  8.50000000E-01  8.50000000E-01  8.50000000E-01
  8.50000000E-01  8.50000000E-01  8.50000000E-01  8.50000000E-01  8.50000000E-01
  8.50000000E-01  8.50000000E-01  8.50000000E-01  8.50000000E-01  8.50000000E-01
  8.50000000E-01  8.50000000E-01  8.50000000E-01  8.50000000E-01  8.50000000E-01
  8.50000000E-01  8.50000000E-01  8.50000000E-01  8.50000000E-01  8.50000000E-01
  8.50000000E-01  8.50000000E-01  8.50000000E-01  8.50000000E-01  8.50000000E-01
  8.50000000E-01  8.50000000E-01  8.50000000E-01  8.50000000E-01  8.50000000E-01
  8.50000000E-01  8.50000000E-01  8.50000000E-01  8.50000000E-01  8.50000000E-01
  8.50000000E-01  8.50000000E-01  8.50000000E-01  8.50000000E-01  8.50000000E-01
  8.50000000E-01  8.50000000E-01  8.50000000E-01  8.50000000E-01  8.50000000E-01
  8.50000000E-01  8.50000000E-01  8.50000000E-01  8.50000000E-01  8.50000000E-01
  8.50000000E-01  8.50000000E-01  8.50000000E-01  8.50000000E-01  8.50000000E-01
  8.50000000E-01  8.50000000E-01  8.50000000E-01  8.50000000E-01  8.50000000E-01
  8.50000000E-01  8.50000000E-01  8.50000000E-01  8.50000000E-01  8.50000000E-01
  8.50000000E-01  8.50000000E-01  8.50000000E-01  8.50000000E-01  8.50000000E-01
  8.50000000E-01  8.50000000E-01  8.50000000E-01  8.50000000E-01  8.50000000E-01
  8.50000000E-01  8.50000000E-01  8.50000000E-01  8.50000000E-01  8.50000000E-01
  8.50000000E-01  8.50000000E-01  8.50000000E-01  8.50000000E-01  8.50000000E-01
  8.50000000E-01  8.50000000E-01  8.50000000E-01  8.50000000E-01  8.50000000E-01
  8.50000000E-01  8.50000000E-01  8.50000000E-01  8.50000000E-01  8.50000000E-01
  8.50000000E-01  8.50000000E-01  8.50000000E-01  8.50000000E-01  8.50000000E-01
  8.50000000E-01  8.50000000E-01  8.50000000E-01  8.50000000E-01  8.50000000E-01
  8.50000000E-01  8.50000000E-01  8.50000000E-01  8.50000000E-01  8.50000000E-01
  8.50000000E-01  8.50000000E-01  8.50000000E-01  8.50000000E-01  8.50000000E-01
  8.50000000E-01  8.50000000E-01  8.50000000E-01  8.50000000E-01  8.50000000E-01
  8.50000000E-01  8.50000000E-01  8.50000000E-01  8.50000000E-01  8.50000000E-01
  8.50000000E-01  8.50000000E-01  8.50000000E-01  8.50000000E-01  8.50000000E-01
  8.50000000E-01  8.50000000E-01  8.50000000E-01  8.50000000E-01  8.50000000E-01
  8.50000000E-01  8.50000000E-01  8.50000000E-01  8.50000000E-01  8.50000000E-01
  8.50000000E-01  8.50000000E-01  8.50000000E-01  8.50000000E-01  8.50000000E-01
  8.50000000E-01  8.50000000E-01  8.50000000E-01  8.50000000E-01  8.50000000E-01
  8.50000000E-01  8.50000000E-01  8.50000000E-01  8.50000000E-01  8.50000000E-01
  8.50000000E-01  8.50000000E-01  8.50000000E-01  8.50000000E-01  8.50000000E-01
  8.50000000E-01  8.50000000E-01  8.50000000E-01  8.50000000E-01  8.50000000E-01
  8.50000000E-01  8.50000000E-01  8.50000000E-01  8.50000000E-01  8.50000000E-01
  8.50000000E-01  8.50000000E-01  8.50000000E-01  8.50000000E-01  8.50000000E-01
  8.50000000E-01  8.50000000E-01  8.50000000E-01  8.50000000E-01  8.50000000E-01
  8.50000000E-01  8.50000000E-01  8.50000000E-01  8.50000000E-01  8.50000000E-01
  8.50000000E-01  8.50000000E-01  8.50000000E-01  8.50000000E-01  8.50000000E-01
  8.50000000E-01  8.50000000E-01  8.50000000E-01  8.50000000E-01  8.50000000E-01
  8.50000000E-01  8.50000000E-01  8.50000000E-01  8.50000000E-01  8.50000000E-01
  8.50000000E-01  8.50000000E-01  8.50000000E-01  8.50000000E-01  8.50000000E-01
  8.50000000E-01  8.50000000E-01  8.50000000E-01  8.50000000E-01  8.50000000E-01
  8.50000000E-01  8.50000000E-01  8.50000000E-01  8.50000000E-01  8.50000000E-01
  8.50000000E-01  8.50000000E-01  8.50000000E-01  8.50000000E-01  8.50000000E-01
  8.50000000E-01  8.50000000E-01  8.50000000E-01  8.50000000E-01  8.50000000E-01
  8.50000000E-01  8.50000000E-01  8.50000000E-01  8.50000000E-01  8.50000000E-01
  8.50000000E-01  8.50000000E-01  8.50000000E-01  8.50000000E-01  8.50000000E-01
  8.50000000E-01  8.50000000E-01  8.50000000E-01  8.50000000E-01  8.50000000E-01
  8.50000000E-01  8.50000000E-01  8.50000000E-01  8.50000000E-01  8.50000000E-01
  8.50000000E-01  8.50000000E-01  8.50000000E-01  8.50000000E-01  8.50000000E-01
  8.50000000E-01  8.50000000E-01  8.50000000E-01  8.50000000E-01  8.50000000E-01
  8.50000000E-01  8.50000000E-01  8.50000000E-01  8.50000000E-01  8.50000000E-01
  8.50000000E-01  8.50000000E-01  8.50000000E-01  8.50000000E-01  8.50000000E-01
  8.50000000E-01  8.50000000E-01  8.50000000E-01  8.50000000E-01  8.50000000E-01
  8.50000000E-01  8.50000000E-01  8.50000000E-01  8.50000000E-01  8.50000000E-01
  8.50000000E-01  8.50000000E-01  8.50000000E-01  8.50000000E-01  8.50000000E-01
  8.50000000E-01  8.50000000E-01  8.50000000E-01  8.50000000E-01  8.50000000E-01
  8.50000000E-01  8.50000000E-01  8.50000000E-01  8.50000000E-01  8.50000000E-01
  8.50000000E-01  8.50000000E-01  8.50000000E-01  8.50000000E-01  8.50000000E-01
  8.50000000E-01  8.50000000E-01  8.50000000E-01  8.50000000E-01  8.50000000E-01
  8.50000000E-01  8.50000000E-01  8.50000000E-01  8.50000000E-01  8.50000000E-01
  8.50000000E-01  8.50000000E-01  8.50000000E-01  8.50000000E-01  8.50000000E-01
  8.50000000E-01  8.50000000E-01  8.50000000E-01  8.50000000E-01  8.50000000E-01
  8.50000000E-01  8.50000000E-01  8.50000000E-01  8.50000000E-01  8.50000000E-01
  8.50000000E-01  8.50000000E-01  8.50000000E-01  8.50000000E-01  8.50000000E-01
  8.50000000E-01  8.50000000E-01  8.50000000E-01  8.50000000E-01  8.50000000E-01
  8.50000000E-01  8.50000000E-01  8.50000000E-01  8.50000000E-01  8.50000000E-01
  8.50000000E-01  8.50000000E-01  8.50000000E-01  8.50000000E-01  8.50000000E-01
  8.50000000E-01  8.50000000E-01  8.50000000E-01  8.50000000E-01  8.50000000E-01
  8.50000000E-01  8.50000000E-01  8.50000000E-01  8.50000000E-01  8.50000000E-01
  8.50000000E-01  8.50000000E-01  8.50000000E-01  8.50000000E-01  8.50000000E-01
  8.50000000E-01  8.50000000E-01  8.50000000E-01  8.50000000E-01  8.50000000E-01
  8.50000000E-01  8.50000000E-01  8.50000000E-01  8.50000000E-01  8.50000000E-01
  8.50000000E-01  8.50000000E-01  8.50000000E-01  8.50000000E-01  8.50000000E-01
  8.50000000E-01  8.50000000E-01  8.50000000E-01  8.50000000E-01  8.50000000E-01
  8.50000000E-01  8.50000000E-01  8.50000000E-01  8.50000000E-01  8.50000000E-01
  8.50000000E-01  8.50000000E-01  8.50000000E-01  8.50000000E-01  8.50000000E-01
  8.50000000E-01  8.50000000E-01  8.50000000E-01  8.50000000E-01  8.50000000E-01
  8.50000000E-01  8.50000000E-01  8.50000000E-01  8.50000000E-01  8.50000000E-01
  8.50000000E-01  8.50000000E-01  8.50000000E-01  8.50000000E-01  8.50000000E-01
  8.50000000E-01  8.50000000E-01  8.50000000E-01  8.50000000E-01  8.50000000E-01
  8.50000000E-01  8.50000000E-01  8.50000000E-01  8.50000000E-01  8.50000000E-01
  8.50000000E-01  8.50000000E-01  8.50000000E-01  8.50000000E-01  8.50000000E-01
  8.50000000E-01  8.50000000E-01  8.50000000E-01  8.50000000E-01  8.50000000E-01
  8.50000000E-01  8.50000000E-01  8.50000000E-01  8.50000000E-01  8.50000000E-01
  8.50000000E-01  8.50000000E-01  8.50000000E-01  8.50000000E-01  8.50000000E-01
  8.50000000E-01  8.50000000E-01  8.50000000E-01  8.50000000E-01  8.50000000E-01
  8.50000000E-01  8.50000000E-01  8.50000000E-01  8.50000000E-01  8.50000000E-01
  8.50000000E-01  8.50000000E-01  8.50000000E-01  8.50000000E-01  8.50000000E-01
  8.50000000E-01  8.50000000E-01  8.50000000E-01  8.50000000E-01  8.50000000E-01
  8.50000000E-01  8.50000000E-01  8.50000000E-01  8.50000000E-01  8.50000000E-01
  8.50000000E-01  8.50000000E-01  8.50000000E-01  8.50000000E-01  8.50000000E-01
  8.50000000E-01  8.50000000E-01  8.50000000E-01  8.50000000E-01  8.50000000E-01
  8.50000000E-01  8.50000000E-01  8.50000000E-01  8.50000000E-01  8.50000000E-01
  8.50000000E-01  8.50000000E-01  8.50000000E-01  8.50000000E-01  8.50000000E-01
  8.50000000E-01  8.50000000E-01  8.50000000E-01  8.50000000E-01  8.50000000E-01
  8.50000000E-01  8.50000000E-01  8.50000000E-01  8.50000000E-01  8.50000000E-01
  8.50000000E-01  8.50000000E-01  8.50000000E-01  8.50000000E-01  8.50000000E-01
  8.50000000E-01  8.50000000E-01  8.50000000E-01  8.50000000E-01  8.50000000E-01
  8.50000000E-01  8.50000000E-01  8.50000000E-01  8.50000000E-01  8.50000000E-01
  8.50000000E-01  8.50000000E-01  8.50000000E-01  8.50000000E-01  8.50000000E-01
  8.50000000E-01  8.50000000E-01  8.50000000E-01  8.50000000E-01  8.50000000E-01
  8.50000000E-01  8.50000000E-01  8.50000000E-01  8.50000000E-01  8.50000000E-01
  8.50000000E-01  8.50000000E-01  8.50000000E-01  8.50000000E-01  8.50000000E-01
  8.50000000E-01  8.50000000E-01  8.50000000E-01  8.50000000E-01  8.50000000E-01
  8.50000000E-01  8.50000000E-01  8.50000000E-01  8.50000000E-01  8.50000000E-01
  8.50000000E-01  8.50000000E-01  8.50000000E-01  8.50000000E-01  8.50000000E-01
  8.50000000E-01  8.50000000E-01  8.50000000E-01  8.50000000E-01  8.50000000E-01
  8.50000000E-01  8.50000000E-01  8.50000000E-01  8.50000000E-01  8.50000000E-01
  8.50000000E-01  8.50000000E-01  8.50000000E-01  8.50000000E-01  8.50000000E-01
  8.50000000E-01  8.50000000E-01  8.50000000E-01  8.50000000E-01  8.50000000E-01
  8.50000000E-01  8.50000000E-01  8.50000000E-01  8.50000000E-01  8.50000000E-01
  8.50000000E-01  8.50000000E-01  8.50000000E-01  8.50000000E-01  8.50000000E-01
  8.50000000E-01  8.50000000E-01  8.50000000E-01  8.50000000E-01  8.50000000E-01
  8.50000000E-01  8.50000000E-01  8.50000000E-01  8.50000000E-01  8.50000000E-01
  8.50000000E-01  8.50000000E-01  8.50000000E-01  8.50000000E-01  8.50000000E-01
  8.50000000E-01  8.50000000E-01  8.50000000E-01  8.50000000E-01  8.50000000E-01
  8.50000000E-01  8.50000000E-01  8.50000000E-01  8.50000000E-01  8.50000000E-01
  8.50000000E-01  8.50000000E-01  8.50000000E-01  8.50000000E-01  8.50000000E-01
  8.50000000E-01  8.50000000E-01  8.50000000E-01  8.50000000E-01  8.50000000E-01
  8.50000000E-01  8.50000000E-01  8.50000000E-01  8.50000000E-01  8.50000000E-01
  8.50000000E-01  8.50000000E-01  8.50000000E-01  8.50000000E-01  8.50000000E-01
  8.50000000E-01  8.50000000E-01  8.50000000E-01  8.50000000E-01  8.50000000E-01
  8.50000000E-01  8.50000000E-01  8.50000000E-01  8.50000000E-01  8.50000000E-01
  8.50000000E-01  8.50000000E-01  8.50000000E-01  8.50000000E-01  8.50000000E-01
  8.50000000E-01  8.50000000E-01  8.50000000E-01  8.50000000E-01  8.50000000E-01
  8.50000000E-01  8.50000000E-01  8.50000000E-01  8.50000000E-01  8.50000000E-01
  8.50000000E-01  8.50000000E-01  8.50000000E-01  8.50000000E-01  8.50000000E-01
  8.50000000E-01  8.50000000E-01  8.50000000E-01  8.50000000E-01  8.50000000E-01
  8.50000000E-01  8.50000000E-01  8.50000000E-01  8.50000000E-01  8.50000000E-01
  8.50000000E-01  8.50000000E-01  8.50000000E-01  8.50000000E-01  8.50000000E-01
  8.50000000E-01  8.50000000E-01  8.50000000E-01  8.50000000E-01  8.50000000E-01
  8.50000000E-01  8.50000000E-01  8.50000000E-01  8.50000000E-01  8.50000000E-01
  8.50000000E-01  8.50000000E-01  8.50000000E-01  8.50000000E-01  8.50000000E-01
  8.50000000E-01  8.50000000E-01  8.50000000E-01  8.50000000E-01  8.50000000E-01
  8.50000000E-01  8.50000000E-01  8.50000000E-01  8.50000000E-01  8.50000000E-01
  8.50000000E-01  8.50000000E-01  8.50000000E-01  8.50000000E-01  8.50000000E-01
  8.50000000E-01  8.50000000E-01  8.50000000E-01  8.50000000E-01  8.50000000E-01
  8.50000000E-01  8.50000000E-01  8.50000000E-01  8.50000000E-01  8.50000000E-01
  8.50000000E-01  8.50000000E-01  8.50000000E-01  8.50000000E-01  8.50000000E-01
  8.50000000E-01  8.50000000E-01  8.50000000E-01  8.50000000E-01  8.50000000E-01
  8.50000000E-01  8.50000000E-01  8.50000000E-01  8.50000000E-01  8.50000000E-01
  8.50000000E-01  8.50000000E-01  8.50000000E-01  8.50000000E-01  8.50000000E-01
  8.50000000E-01  8.50000000E-01  8.50000000E-01  8.50000000E-01  8.50000000E-01
  8.50000000E-01  8.50000000E-01  8.50000000E-01  8.50000000E-01  8.50000000E-01
  8.50000000E-01  8.50000000E-01  8.50000000E-01  8.50000000E-01  8.50000000E-01
  8.50000000E-01  8.50000000E-01  8.50000000E-01  8.50000000E-01  8.50000000E-01
  8.50000000E-01  8.50000000E-01  8.50000000E-01  8.50000000E-01  8.50000000E-01
  8.50000000E-01  8.50000000E-01  8.50000000E-01  8.50000000E-01  8.50000000E-01
  8.50000000E-01  8.50000000E-01  8.50000000E-01  8.50000000E-01  8.50000000E-01
  8.50000000E-01  8.50000000E-01  8.50000000E-01  8.50000000E-01  8.50000000E-01
  8.50000000E-01  8.50000000E-01  8.50000000E-01  8.50000000E-01  8.50000000E-01
  8.50000000E-01  8.50000000E-01  8.50000000E-01  8.50000000E-01  8.50000000E-01
  8.50000000E-01  8.50000000E-01  8.50000000E-01  8.50000000E-01  8.50000000E-01
  8.50000000E-01  8.50000000E-01  8.50000000E-01  8.50000000E-01  8.50000000E-01
  8.50000000E-01  8.50000000E-01  8.50000000E-01  8.50000000E-01  8.50000000E-01
  8.50000000E-01  8.50000000E-01  8.50000000E-01  8.50000000E-01  8.50000000E-01
  8.50000000E-01  8.50000000E-01  8.50000000E-01  8.50000000E-01  8.50000000E-01
  8.50000000E-01  8.50000000E-01  8.50000000E-01  8.50000000E-01  8.50000000E-01
  8.50000000E-01  8.50000000E-01  8.50000000E-01  8.50000000E-01  8.50000000E-01
  8.50000000E-01  8.50000000E-01  8.50000000E-01  8.50000000E-01  8.50000000E-01
  8.50000000E-01  8.50000000E-01  8.50000000E-01  8.50000000E-01  8.50000000E-01
  8.50000000E-01  8.50000000E-01  8.50000000E-01  8.50000000E-01  8.50000000E-01
  8.50000000E-01  8.50000000E-01  8.50000000E-01  8.50000000E-01  8.50000000E-01
  8.50000000E-01  8.50000000E-01  8.50000000E-01  8.50000000E-01  8.50000000E-01
  8.50000000E-01  8.50000000E-01  8.50000000E-01  8.50000000E-01  8.50000000E-01
  8.50000000E-01  8.50000000E-01  8.50000000E-01  8.50000000E-01  8.50000000E-01
  8.50000000E-01  8.50000000E-01  8.50000000E-01  8.50000000E-01  8.50000000E-01
  8.50000000E-01  8.50000000E-01  8.50000000E-01  8.50000000E-01  8.50000000E-01
  8.50000000E-01  8.50000000E-01  8.50000000E-01  8.50000000E-01  8.50000000E-01
  8.50000000E-01  8.50000000E-01  8.50000000E-01  8.50000000E-01  8.50000000E-01
  8.50000000E-01  8.50000000E-01  8.50000000E-01  8.50000000E-01  8.50000000E-01
  8.50000000E-01  8.50000000E-01  8.50000000E-01  8.50000000E-01  8.50000000E-01
  8.50000000E-01  8.50000000E-01  8.50000000E-01  8.50000000E-01  8.50000000E-01
  8.50000000E-01  8.50000000E-01  8.50000000E-01  8.50000000E-01  8.50000000E-01
  8.50000000E-01  8.50000000E-01  8.50000000E-01  8.50000000E-01  8.50000000E-01
  8.50000000E-01  8.50000000E-01  8.50000000E-01  8.50000000E-01  8.50000000E-01
  8.50000000E-01  8.50000000E-01  8.50000000E-01  8.50000000E-01  8.50000000E-01
  8.50000000E-01  8.50000000E-01  8.50000000E-01  8.50000000E-01  8.50000000E-01
  8.50000000E-01  8.50000000E-01  8.50000000E-01  8.50000000E-01  8.50000000E-01
  8.50000000E-01  8.50000000E-01  8.50000000E-01  8.50000000E-01  8.50000000E-01
  8.50000000E-01  8.50000000E-01  8.50000000E-01  8.50000000E-01  8.50000000E-01
  8.50000000E-01  8.50000000E-01  8.50000000E-01  8.50000000E-01  8.50000000E-01
  8.50000000E-01  8.50000000E-01  8.50000000E-01  8.50000000E-01  8.50000000E-01
  8.50000000E-01  8.50000000E-01  8.50000000E-01  8.50000000E-01  8.50000000E-01
  8.50000000E-01  8.50000000E-01  8.50000000E-01  8.50000000E-01  8.50000000E-01
  8.50000000E-01  8.50000000E-01  8.50000000E-01  8.50000000E-01  8.50000000E-01
  8.50000000E-01  8.50000000E-01  8.50000000E-01  8.50000000E-01  8.50000000E-01
  8.50000000E-01  8.50000000E-01  8.50000000E-01  8.50000000E-01  8.50000000E-01
  8.50000000E-01  8.50000000E-01  8.50000000E-01  8.50000000E-01  8.50000000E-01
  8.50000000E-01  8.50000000E-01  8.50000000E-01  8.50000000E-01  8.50000000E-01
  8.50000000E-01  8.50000000E-01  8.50000000E-01  8.50000000E-01  8.50000000E-01
  8.50000000E-01  8.50000000E-01  8.50000000E-01  8.50000000E-01  8.50000000E-01
  8.50000000E-01  8.50000000E-01  8.50000000E-01  8.50000000E-01  8.50000000E-01
  8.50000000E-01  8.50000000E-01  8.50000000E-01  8.50000000E-01  8.50000000E-01
  8.50000000E-01  8.50000000E-01  8.50000000E-01  8.50000000E-01  8.50000000E-01
  8.50000000E-01  8.50000000E-01  8.50000000E-01  8.50000000E-01  8.50000000E-01
  8.50000000E-01  8.50000000E-01  8.50000000E-01  8.50000000E-01  8.50000000E-01
  8.50000000E-01  8.50000000E-01  8.50000000E-01  8.50000000E-01  8.50000000E-01
  8.50000000E-01  8.50000000E-01  8.50000000E-01  8.50000000E-01  8.50000000E-01
  8.50000000E-01  8.50000000E-01  8.50000000E-01  8.50000000E-01  8.50000000E-01
  8.50000000E-01  8.50000000E-01  8.50000000E-01  8.50000000E-01  8.50000000E-01
  8.50000000E-01  8.50000000E-01  8.50000000E-01  8.50000000E-01  8.50000000E-01
  8.50000000E-01  8.50000000E-01  8.50000000E-01  8.50000000E-01  8.50000000E-01
  8.50000000E-01  8.50000000E-01  8.50000000E-01  8.50000000E-01  8.50000000E-01
  8.50000000E-01  8.50000000E-01  8.50000000E-01  8.50000000E-01  8.50000000E-01
  8.50000000E-01  8.50000000E-01  8.50000000E-01  8.50000000E-01  8.50000000E-01
  8.50000000E-01  8.50000000E-01  8.50000000E-01  8.50000000E-01  8.50000000E-01
  8.50000000E-01  8.50000000E-01  8.50000000E-01  8.50000000E-01  8.50000000E-01
  8.50000000E-01  8.50000000E-01  8.50000000E-01  8.50000000E-01  8.50000000E-01
  8.50000000E-01  8.50000000E-01  8.50000000E-01  8.50000000E-01  8.50000000E-01
  8.50000000E-01  8.50000000E-01  8.50000000E-01  8.50000000E-01  8.50000000E-01
  8.50000000E-01  8.50000000E-01  8.50000000E-01  8.50000000E-01  8.50000000E-01
  8.50000000E-01  8.50000000E-01  8.50000000E-01  8.50000000E-01  8.50000000E-01
  8.50000000E-01  8.50000000E-01  8.50000000E-01  8.50000000E-01  8.50000000E-01
  8.50000000E-01  8.50000000E-01  8.50000000E-01  8.50000000E-01  8.50000000E-01
  8.50000000E-01  8.50000000E-01  8.50000000E-01  8.50000000E-01  8.50000000E-01
  8.50000000E-01  8.50000000E-01  8.50000000E-01  8.50000000E-01  8.50000000E-01
  8.50000000E-01  8.50000000E-01  8.50000000E-01  8.50000000E-01  8.50000000E-01
  8.50000000E-01  8.50000000E-01  8.50000000E-01  8.50000000E-01  8.50000000E-01
  8.50000000E-01  8.50000000E-01  8.50000000E-01  8.50000000E-01  8.50000000E-01
  8.50000000E-01  8.50000000E-01  8.50000000E-01  8.50000000E-01  8.50000000E-01
  8.50000000E-01  8.50000000E-01  8.50000000E-01  8.50000000E-01  8.50000000E-01
  8.50000000E-01  8.50000000E-01  8.50000000E-01  8.50000000E-01  8.50000000E-01
  8.50000000E-01  8.50000000E-01  8.50000000E-01  8.50000000E-01  8.50000000E-01
  8.50000000E-01  8.50000000E-01  8.50000000E-01  8.50000000E-01  8.50000000E-01
  8.50000000E-01  8.50000000E-01  8.50000000E-01  8.50000000E-01  8.50000000E-01
  8.50000000E-01  8.50000000E-01  8.50000000E-01  8.50000000E-01  8.50000000E-01
  8.50000000E-01  8.50000000E-01  8.50000000E-01  8.50000000E-01  8.50000000E-01
  8.50000000E-01  8.50000000E-01  8.50000000E-01  8.50000000E-01  8.50000000E-01
  8.50000000E-01  8.50000000E-01  8.50000000E-01  8.50000000E-01  8.50000000E-01
  8.50000000E-01  8.50000000E-01  8.50000000E-01  8.50000000E-01  8.50000000E-01
  8.50000000E-01  8.50000000E-01  8.50000000E-01  8.50000000E-01  8.50000000E-01
  8.50000000E-01  8.50000000E-01  8.50000000E-01  8.50000000E-01  8.50000000E-01
  8.50000000E-01  8.50000000E-01  8.50000000E-01  8.50000000E-01  8.50000000E-01
  8.50000000E-01  8.50000000E-01  8.50000000E-01  8.50000000E-01  8.50000000E-01
  8.50000000E-01  8.50000000E-01  8.50000000E-01  8.50000000E-01  8.50000000E-01
  8.50000000E-01  8.50000000E-01  8.50000000E-01  8.50000000E-01  8.50000000E-01
  8.50000000E-01  8.50000000E-01  8.50000000E-01  8.50000000E-01  8.50000000E-01
  8.50000000E-01  8.50000000E-01  8.50000000E-01  8.50000000E-01  8.50000000E-01
  8.50000000E-01  8.50000000E-01  8.50000000E-01  8.50000000E-01  8.50000000E-01
  8.50000000E-01  8.50000000E-01  8.50000000E-01  8.50000000E-01  8.50000000E-01
  8.50000000E-01  8.50000000E-01  8.50000000E-01  8.50000000E-01  8.50000000E-01
  8.50000000E-01  8.50000000E-01  8.50000000E-01  8.50000000E-01  8.50000000E-01
  8.50000000E-01  8.50000000E-01  8.50000000E-01  8.50000000E-01  8.50000000E-01
  8.50000000E-01  8.50000000E-01  8.50000000E-01  8.50000000E-01  8.50000000E-01
  8.50000000E-01  8.50000000E-01  8.50000000E-01  8.50000000E-01  8.50000000E-01
  8.50000000E-01  8.50000000E-01  8.50000000E-01  8.50000000E-01  8.50000000E-01
  8.50000000E-01  8.50000000E-01  8.50000000E-01  8.50000000E-01  8.50000000E-01
  8.50000000E-01  8.50000000E-01  8.50000000E-01  8.50000000E-01  8.50000000E-01
  8.50000000E-01  8.50000000E-01  8.50000000E-01  8.50000000E-01  8.50000000E-01
  8.50000000E-01  8.50000000E-01  8.50000000E-01  8.50000000E-01  8.50000000E-01
  8.50000000E-01  8.50000000E-01  8.50000000E-01  8.50000000E-01  8.50000000E-01
  8.50000000E-01  8.50000000E-01  8.50000000E-01  8.50000000E-01  8.50000000E-01
  8.50000000E-01  8.50000000E-01  8.50000000E-01  8.50000000E-01  8.50000000E-01
  8.50000000E-01  8.50000000E-01  8.50000000E-01  8.50000000E-01  8.50000000E-01
  8.50000000E-01  8.50000000E-01  8.50000000E-01  8.50000000E-01  8.50000000E-01
  8.50000000E-01  8.50000000E-01  8.50000000E-01  8.50000000E-01  8.50000000E-01
  8.50000000E-01  8.50000000E-01  8.50000000E-01  8.50000000E-01  8.50000000E-01
  8.50000000E-01  8.50000000E-01  8.50000000E-01  8.50000000E-01  8.50000000E-01
  8.50000000E-01  8.50000000E-01  8.50000000E-01  8.50000000E-01  8.50000000E-01
  8.50000000E-01  8.50000000E-01  8.50000000E-01  8.50000000E-01  8.50000000E-01
  8.50000000E-01  8.50000000E-01  8.50000000E-01  8.50000000E-01  8.50000000E-01
  8.50000000E-01  8.50000000E-01  8.50000000E-01  8.50000000E-01  8.50000000E-01
  8.50000000E-01  8.50000000E-01  8.50000000E-01  8.50000000E-01  8.50000000E-01
  8.50000000E-01  8.50000000E-01  8.50000000E-01  8.50000000E-01  8.50000000E-01
  8.50000000E-01  8.50000000E-01  8.50000000E-01  8.50000000E-01  8.50000000E-01
  8.50000000E-01  8.50000000E-01  8.50000000E-01  8.50000000E-01  8.50000000E-01
  8.50000000E-01  8.50000000E-01  8.50000000E-01  8.50000000E-01  8.50000000E-01
  8.50000000E-01  8.50000000E-01  8.50000000E-01  8.50000000E-01  8.50000000E-01
  8.50000000E-01  8.50000000E-01  8.50000000E-01  8.50000000E-01  8.50000000E-01
  8.50000000E-01  8.50000000E-01  8.50000000E-01  8.50000000E-01  8.50000000E-01
  8.50000000E-01  8.50000000E-01  8.50000000E-01  8.50000000E-01  8.50000000E-01
  8.50000000E-01  8.50000000E-01  8.50000000E-01  8.50000000E-01  8.50000000E-01
  8.50000000E-01  8.50000000E-01  8.50000000E-01  8.50000000E-01  8.50000000E-01
  8.50000000E-01  8.50000000E-01  8.50000000E-01  8.50000000E-01  8.50000000E-01
  8.50000000E-01  8.50000000E-01  8.50000000E-01  8.50000000E-01  8.50000000E-01
  8.50000000E-01  8.50000000E-01  8.50000000E-01  8.50000000E-01  8.50000000E-01
  8.50000000E-01  8.50000000E-01  8.50000000E-01  8.50000000E-01  8.50000000E-01
  8.50000000E-01  8.50000000E-01  8.50000000E-01  8.50000000E-01  8.50000000E-01
  8.50000000E-01  8.50000000E-01  8.50000000E-01  8.50000000E-01  8.50000000E-01
  8.50000000E-01  8.50000000E-01  8.50000000E-01  8.50000000E-01  8.50000000E-01
  8.50000000E-01  8.50000000E-01  8.50000000E-01  8.50000000E-01  8.50000000E-01
  8.50000000E-01  8.50000000E-01  8.50000000E-01  8.50000000E-01  8.50000000E-01
  8.50000000E-01  8.50000000E-01  8.50000000E-01  8.50000000E-01  8.50000000E-01
  8.50000000E-01  8.50000000E-01  8.50000000E-01  8.50000000E-01  8.50000000E-01
  8.50000000E-01  8.50000000E-01  8.50000000E-01  8.50000000E-01  8.50000000E-01
  8.50000000E-01  8.50000000E-01  8.50000000E-01  8.50000000E-01  8.50000000E-01
  8.50000000E-01  8.50000000E-01  8.50000000E-01  8.50000000E-01  8.50000000E-01
  8.50000000E-01  8.50000000E-01  8.50000000E-01  8.50000000E-01  8.50000000E-01
  8.50000000E-01  8.50000000E-01  8.50000000E-01  8.50000000E-01  8.50000000E-01
  8.50000000E-01  8.50000000E-01  8.50000000E-01  8.50000000E-01  8.50000000E-01
  8.50000000E-01  8.50000000E-01  8.50000000E-01  8.50000000E-01  8.50000000E-01
  8.50000000E-01  8.50000000E-01  8.50000000E-01  8.50000000E-01  8.50000000E-01
  8.50000000E-01  8.50000000E-01  8.50000000E-01  8.50000000E-01  8.50000000E-01
  8.50000000E-01  8.50000000E-01  8.50000000E-01  8.50000000E-01  8.50000000E-01
  8.50000000E-01  8.50000000E-01  8.50000000E-01  8.50000000E-01  8.50000000E-01
  8.50000000E-01  8.50000000E-01  8.50000000E-01  8.50000000E-01  8.50000000E-01
  8.50000000E-01  8.50000000E-01  8.50000000E-01  8.50000000E-01  8.50000000E-01
  8.50000000E-01  8.50000000E-01  8.50000000E-01  8.50000000E-01  8.50000000E-01
  8.50000000E-01  8.50000000E-01  8.50000000E-01  8.50000000E-01  8.50000000E-01
  8.50000000E-01  8.50000000E-01  8.50000000E-01  8.50000000E-01  8.50000000E-01
  8.50000000E-01  8.50000000E-01  8.50000000E-01  8.50000000E-01  8.50000000E-01
  8.50000000E-01  8.50000000E-01  8.50000000E-01  8.50000000E-01  8.50000000E-01
  8.50000000E-01  8.50000000E-01  8.50000000E-01  8.50000000E-01  8.50000000E-01
  8.50000000E-01  8.50000000E-01  8.50000000E-01  8.50000000E-01  8.50000000E-01
  8.50000000E-01  8.50000000E-01  8.50000000E-01  8.50000000E-01  8.50000000E-01
  8.50000000E-01  8.50000000E-01  8.50000000E-01  8.50000000E-01  8.50000000E-01
  8.50000000E-01  8.50000000E-01  8.50000000E-01  8.50000000E-01  8.50000000E-01
  8.50000000E-01  8.50000000E-01  8.50000000E-01  8.50000000E-01  8.50000000E-01
  8.50000000E-01  8.50000000E-01  8.50000000E-01  8.50000000E-01  8.50000000E-01
  8.50000000E-01  8.50000000E-01  8.50000000E-01  8.50000000E-01  8.50000000E-01
  8.50000000E-01  8.50000000E-01  8.50000000E-01  8.50000000E-01  8.50000000E-01
  8.50000000E-01  8.50000000E-01  8.50000000E-01  8.50000000E-01  8.50000000E-01
  8.50000000E-01  8.50000000E-01  8.50000000E-01  8.50000000E-01  8.50000000E-01
  8.50000000E-01  8.50000000E-01  8.50000000E-01  8.50000000E-01  8.50000000E-01
  8.50000000E-01  8.50000000E-01  8.50000000E-01  8.50000000E-01  8.50000000E-01
  8.50000000E-01  8.50000000E-01  8.50000000E-01  8.50000000E-01  8.50000000E-01
  8.50000000E-01  8.50000000E-01  8.50000000E-01  8.50000000E-01  8.50000000E-01
  8.50000000E-01  8.50000000E-01  8.50000000E-01  8.50000000E-01  8.50000000E-01
  8.50000000E-01  8.50000000E-01  8.50000000E-01  8.50000000E-01  8.50000000E-01
  8.50000000E-01  8.50000000E-01  8.50000000E-01  8.50000000E-01  8.50000000E-01
  8.50000000E-01  8.50000000E-01  8.50000000E-01  8.50000000E-01  8.50000000E-01
  8.50000000E-01  8.50000000E-01  8.50000000E-01  8.50000000E-01  8.50000000E-01
  8.50000000E-01  8.50000000E-01  8.50000000E-01  8.50000000E-01  8.50000000E-01
  8.50000000E-01  8.50000000E-01  8.50000000E-01  8.50000000E-01  8.50000000E-01
  8.50000000E-01  8.50000000E-01  8.50000000E-01  8.50000000E-01  8.50000000E-01
  8.50000000E-01  8.50000000E-01  8.50000000E-01  8.50000000E-01  8.50000000E-01
  8.50000000E-01  8.50000000E-01  8.50000000E-01  8.50000000E-01  8.50000000E-01
  8.50000000E-01  8.50000000E-01  8.50000000E-01  8.50000000E-01  8.50000000E-01
  8.50000000E-01  8.50000000E-01  8.50000000E-01  8.50000000E-01  8.50000000E-01
  8.50000000E-01  8.50000000E-01  8.50000000E-01  8.50000000E-01  8.50000000E-01
  8.50000000E-01  8.50000000E-01  8.50000000E-01  8.50000000E-01  8.50000000E-01
  8.50000000E-01  8.50000000E-01  8.50000000E-01  8.50000000E-01  8.50000000E-01
  8.50000000E-01  8.50000000E-01  8.50000000E-01  8.50000000E-01  8.50000000E-01
  8.50000000E-01  8.50000000E-01  8.50000000E-01  8.50000000E-01  8.50000000E-01
  8.50000000E-01  8.50000000E-01  8.50000000E-01  8.50000000E-01  8.50000000E-01
  8.50000000E-01  8.50000000E-01  8.50000000E-01  8.50000000E-01  8.50000000E-01
  8.50000000E-01  8.50000000E-01  8.50000000E-01  8.50000000E-01  8.50000000E-01
  8.50000000E-01  8.50000000E-01  8.50000000E-01  8.50000000E-01  8.50000000E-01
  8.50000000E-01  8.50000000E-01  8.50000000E-01  8.50000000E-01  8.50000000E-01
  8.50000000E-01  8.50000000E-01  8.50000000E-01  8.50000000E-01  8.50000000E-01
  8.50000000E-01  8.50000000E-01  8.50000000E-01  8.50000000E-01  8.50000000E-01
  8.50000000E-01  8.50000000E-01  8.50000000E-01  8.50000000E-01  8.50000000E-01
  8.50000000E-01  8.50000000E-01  8.50000000E-01  8.50000000E-01  8.50000000E-01
  8.50000000E-01  8.50000000E-01  8.50000000E-01  8.50000000E-01  8.50000000E-01
  8.50000000E-01  8.50000000E-01  8.50000000E-01  8.50000000E-01  8.50000000E-01
  8.50000000E-01  8.50000000E-01  8.50000000E-01  8.50000000E-01  8.50000000E-01
  8.50000000E-01  8.50000000E-01  8.50000000E-01  8.50000000E-01  8.50000000E-01
  8.50000000E-01  8.50000000E-01  8.50000000E-01  8.50000000E-01  8.50000000E-01
  8.50000000E-01  8.50000000E-01  8.50000000E-01  8.50000000E-01  8.50000000E-01
  8.50000000E-01  8.50000000E-01  8.50000000E-01  8.50000000E-01  8.50000000E-01
  8.50000000E-01  8.50000000E-01  8.50000000E-01  8.50000000E-01  8.50000000E-01
  8.50000000E-01  8.50000000E-01  8.50000000E-01  8.50000000E-01  8.50000000E-01
  8.50000000E-01  8.50000000E-01  8.50000000E-01  8.50000000E-01  8.50000000E-01
  8.50000000E-01  8.50000000E-01  8.50000000E-01  8.50000000E-01  8.50000000E-01
  8.50000000E-01  8.50000000E-01  8.50000000E-01  8.50000000E-01  8.50000000E-01
  8.50000000E-01  8.50000000E-01  8.50000000E-01  8.50000000E-01  8.50000000E-01
  8.50000000E-01  8.50000000E-01  8.50000000E-01  8.50000000E-01  8.50000000E-01
  8.50000000E-01  8.50000000E-01  8.50000000E-01  8.50000000E-01  8.50000000E-01
  8.50000000E-01  8.50000000E-01  8.50000000E-01  8.50000000E-01  8.50000000E-01
  8.50000000E-01  8.50000000E-01  8.50000000E-01  8.50000000E-01  8.50000000E-01
  8.50000000E-01  8.50000000E-01  8.50000000E-01  8.50000000E-01  8.50000000E-01
  8.50000000E-01  8.50000000E-01  8.50000000E-01  8.50000000E-01  8.50000000E-01
  8.50000000E-01  8.50000000E-01  8.50000000E-01  8.50000000E-01  8.50000000E-01
  8.50000000E-01  8.50000000E-01  8.50000000E-01  8.50000000E-01  8.50000000E-01
  8.50000000E-01  8.50000000E-01  8.50000000E-01  8.50000000E-01  8.50000000E-01
  8.50000000E-01  8.50000000E-01  8.50000000E-01  8.50000000E-01  8.50000000E-01
  8.50000000E-01  8.50000000E-01  8.50000000E-01  8.50000000E-01  8.50000000E-01
  8.50000000E-01  8.50000000E-01  8.50000000E-01  8.50000000E-01  8.50000000E-01
  8.50000000E-01  8.50000000E-01  8.50000000E-01  8.50000000E-01  8.50000000E-01
  8.50000000E-01  8.50000000E-01  8.50000000E-01  8.50000000E-01  8.50000000E-01
  8.50000000E-01  8.50000000E-01  8.50000000E-01  8.50000000E-01  8.50000000E-01
  8.50000000E-01  8.50000000E-01  8.50000000E-01  8.50000000E-01  8.50000000E-01
  8.50000000E-01  8.50000000E-01  8.50000000E-01  8.50000000E-01  8.50000000E-01
  8.50000000E-01  8.50000000E-01  8.50000000E-01  8.50000000E-01  8.50000000E-01
  8.50000000E-01  8.50000000E-01  8.50000000E-01  8.50000000E-01  8.50000000E-01
  8.50000000E-01  8.50000000E-01  8.50000000E-01  8.50000000E-01  8.50000000E-01
  8.50000000E-01  8.50000000E-01  8.50000000E-01  8.50000000E-01  8.50000000E-01
  8.50000000E-01  8.50000000E-01  8.50000000E-01  8.50000000E-01  8.50000000E-01
  8.50000000E-01  8.50000000E-01  8.50000000E-01  8.50000000E-01  8.50000000E-01
  8.50000000E-01  8.50000000E-01  8.50000000E-01  8.50000000E-01  8.50000000E-01
  8.50000000E-01  8.50000000E-01  8.50000000E-01  8.50000000E-01  8.50000000E-01
  8.50000000E-01  8.50000000E-01  8.50000000E-01  8.50000000E-01  8.50000000E-01
  8.50000000E-01  8.50000000E-01  8.50000000E-01  8.50000000E-01  8.50000000E-01
  8.50000000E-01  8.50000000E-01  8.50000000E-01  8.50000000E-01  8.50000000E-01
  8.50000000E-01  8.50000000E-01  8.50000000E-01  8.50000000E-01  8.50000000E-01
  8.50000000E-01  8.50000000E-01  8.50000000E-01  8.50000000E-01  8.50000000E-01
  8.50000000E-01  8.50000000E-01  8.50000000E-01  8.50000000E-01  8.50000000E-01
  8.50000000E-01  8.50000000E-01  8.50000000E-01  8.50000000E-01  8.50000000E-01
  8.50000000E-01  8.50000000E-01  8.50000000E-01  8.50000000E-01  8.50000000E-01
  8.50000000E-01  8.50000000E-01  8.50000000E-01  8.50000000E-01  8.50000000E-01
  8.50000000E-01  8.50000000E-01  8.50000000E-01  8.50000000E-01  8.50000000E-01
  8.50000000E-01  8.50000000E-01  8.50000000E-01  8.50000000E-01  8.50000000E-01
  8.50000000E-01  8.50000000E-01  8.50000000E-01  8.50000000E-01  8.50000000E-01
  8.50000000E-01  8.50000000E-01  8.50000000E-01  8.50000000E-01  8.50000000E-01
  8.50000000E-01  8.50000000E-01  8.50000000E-01  8.50000000E-01  8.50000000E-01
  8.50000000E-01  8.50000000E-01  8.50000000E-01  8.50000000E-01  8.50000000E-01
  8.50000000E-01  8.50000000E-01  8.50000000E-01  8.50000000E-01  8.50000000E-01
  8.50000000E-01  8.50000000E-01  8.50000000E-01  8.50000000E-01  8.50000000E-01
  8.50000000E-01  8.50000000E-01  8.50000000E-01  8.50000000E-01  8.50000000E-01
  8.50000000E-01  8.50000000E-01  8.50000000E-01  8.50000000E-01  8.50000000E-01
  8.50000000E-01  8.50000000E-01  8.50000000E-01  8.50000000E-01  8.50000000E-01
  8.50000000E-01  8.50000000E-01  8.50000000E-01  8.50000000E-01  8.50000000E-01
  8.50000000E-01  8.50000000E-01  8.50000000E-01  8.50000000E-01  8.50000000E-01
  8.50000000E-01  8.50000000E-01  8.50000000E-01  8.50000000E-01  8.50000000E-01
  8.50000000E-01  8.50000000E-01  8.50000000E-01  8.50000000E-01  8.50000000E-01
  8.50000000E-01  8.50000000E-01  8.50000000E-01  8.50000000E-01  8.50000000E-01
  8.50000000E-01  8.50000000E-01  8.50000000E-01  8.50000000E-01  8.50000000E-01
  8.50000000E-01  8.50000000E-01  8.50000000E-01  8.50000000E-01  8.50000000E-01
  8.50000000E-01  8.50000000E-01  8.50000000E-01  8.50000000E-01  8.50000000E-01
  8.50000000E-01  8.50000000E-01  8.50000000E-01  8.50000000E-01  8.50000000E-01
  8.50000000E-01  8.50000000E-01  8.50000000E-01  8.50000000E-01  8.50000000E-01
  8.50000000E-01  8.50000000E-01  8.50000000E-01  8.50000000E-01  8.50000000E-01
  8.50000000E-01  8.50000000E-01  8.50000000E-01  8.50000000E-01  8.50000000E-01
  8.50000000E-01  8.50000000E-01  8.50000000E-01  8.50000000E-01  8.50000000E-01
  8.50000000E-01  8.50000000E-01  8.50000000E-01  8.50000000E-01  8.50000000E-01
  8.50000000E-01  8.50000000E-01  8.50000000E-01  8.50000000E-01  8.50000000E-01
  8.50000000E-01  8.50000000E-01  8.50000000E-01  8.50000000E-01  8.50000000E-01
  8.50000000E-01  8.50000000E-01  8.50000000E-01  8.50000000E-01  8.50000000E-01
  8.50000000E-01  8.50000000E-01  8.50000000E-01  8.50000000E-01  8.50000000E-01
  8.50000000E-01  8.50000000E-01  8.50000000E-01  8.50000000E-01  8.50000000E-01
  8.50000000E-01  8.50000000E-01  8.50000000E-01  8.50000000E-01  8.50000000E-01
  8.50000000E-01  8.50000000E-01  8.50000000E-01  8.50000000E-01  8.50000000E-01
  8.50000000E-01  8.50000000E-01  8.50000000E-01  8.50000000E-01  8.50000000E-01
  8.50000000E-01  8.50000000E-01  8.50000000E-01  8.50000000E-01  8.50000000E-01
  8.50000000E-01  8.50000000E-01  8.50000000E-01  8.50000000E-01  8.50000000E-01
  8.50000000E-01  8.50000000E-01  8.50000000E-01  8.50000000E-01  8.50000000E-01
  8.50000000E-01  8.50000000E-01  8.50000000E-01  8.50000000E-01  8.50000000E-01
  8.50000000E-01  8.50000000E-01  8.50000000E-01  8.50000000E-01  8.50000000E-01
  8.50000000E-01  8.50000000E-01  8.50000000E-01  8.50000000E-01  8.50000000E-01
  8.50000000E-01  8.50000000E-01  8.50000000E-01  8.50000000E-01  8.50000000E-01
  8.50000000E-01  8.50000000E-01  8.50000000E-01  8.50000000E-01  8.50000000E-01
  8.50000000E-01  8.50000000E-01  8.50000000E-01  8.50000000E-01  8.50000000E-01
  8.50000000E-01  8.50000000E-01  8.50000000E-01  8.50000000E-01  8.50000000E-01
  8.50000000E-01  8.50000000E-01  8.50000000E-01  8.50000000E-01  8.50000000E-01
  8.50000000E-01  8.50000000E-01  8.50000000E-01  8.50000000E-01  8.50000000E-01
  8.50000000E-01  8.50000000E-01  8.50000000E-01  8.50000000E-01  8.50000000E-01
  8.50000000E-01  8.50000000E-01  8.50000000E-01  8.50000000E-01  8.50000000E-01
  8.50000000E-01  8.50000000E-01  8.50000000E-01  8.50000000E-01  8.50000000E-01
  8.50000000E-01  8.50000000E-01  8.50000000E-01  8.50000000E-01  8.50000000E-01
  8.50000000E-01  8.50000000E-01  8.50000000E-01  8.50000000E-01  8.50000000E-01
  8.50000000E-01  8.50000000E-01  8.50000000E-01  8.50000000E-01  8.50000000E-01
  8.50000000E-01  8.50000000E-01  8.50000000E-01  8.50000000E-01  8.50000000E-01
  8.50000000E-01  8.50000000E-01  8.50000000E-01  8.50000000E-01  8.50000000E-01
  8.50000000E-01  8.50000000E-01  8.50000000E-01  8.50000000E-01  8.50000000E-01
  8.50000000E-01  8.50000000E-01  8.50000000E-01  8.50000000E-01  8.50000000E-01
  8.50000000E-01  8.50000000E-01  8.50000000E-01  8.50000000E-01  8.50000000E-01
  8.50000000E-01  8.50000000E-01  8.50000000E-01  8.50000000E-01  8.50000000E-01
  8.50000000E-01  8.50000000E-01  8.50000000E-01  8.50000000E-01  8.50000000E-01
  8.50000000E-01  8.50000000E-01  8.50000000E-01  8.50000000E-01  8.50000000E-01
  8.50000000E-01  8.50000000E-01  8.50000000E-01  8.50000000E-01  8.50000000E-01
  8.50000000E-01  8.50000000E-01  8.50000000E-01  8.50000000E-01  8.50000000E-01
  8.50000000E-01  8.50000000E-01  8.50000000E-01  8.50000000E-01  8.50000000E-01
  8.50000000E-01  8.50000000E-01  8.50000000E-01  8.50000000E-01  8.50000000E-01
  8.50000000E-01  8.50000000E-01  8.50000000E-01  8.50000000E-01  8.50000000E-01
  8.50000000E-01  8.50000000E-01  8.50000000E-01  8.50000000E-01  8.50000000E-01
  8.50000000E-01  8.50000000E-01  8.50000000E-01  8.50000000E-01  8.50000000E-01
  8.50000000E-01  8.50000000E-01  8.50000000E-01  8.50000000E-01  8.50000000E-01
  8.50000000E-01  8.50000000E-01  8.50000000E-01  8.50000000E-01  8.50000000E-01
  8.50000000E-01  8.50000000E-01  8.50000000E-01  8.50000000E-01  8.50000000E-01
  8.50000000E-01  8.50000000E-01  8.50000000E-01  8.50000000E-01  8.50000000E-01
  8.50000000E-01  8.50000000E-01  8.50000000E-01  8.50000000E-01  8.50000000E-01
  8.50000000E-01  8.50000000E-01  8.50000000E-01  8.50000000E-01  8.50000000E-01
  8.50000000E-01  8.50000000E-01  8.50000000E-01  8.50000000E-01  8.50000000E-01
  8.50000000E-01  8.50000000E-01  8.50000000E-01  8.50000000E-01  8.50000000E-01
  8.50000000E-01  8.50000000E-01  8.50000000E-01  8.50000000E-01  8.50000000E-01
  8.50000000E-01  8.50000000E-01  8.50000000E-01  8.50000000E-01  8.50000000E-01
  8.50000000E-01  8.50000000E-01  8.50000000E-01  8.50000000E-01  8.50000000E-01
  8.50000000E-01  8.50000000E-01  8.50000000E-01  8.50000000E-01  8.50000000E-01
  8.50000000E-01  8.50000000E-01  8.50000000E-01  8.50000000E-01  8.50000000E-01
  8.50000000E-01  8.50000000E-01  8.50000000E-01  8.50000000E-01  8.50000000E-01
  8.50000000E-01  8.50000000E-01  8.50000000E-01  8.50000000E-01  8.50000000E-01
  8.50000000E-01  8.50000000E-01  8.50000000E-01  8.50000000E-01  8.50000000E-01
  8.50000000E-01  8.50000000E-01  8.50000000E-01  8.50000000E-01  8.50000000E-01
  8.50000000E-01  8.50000000E-01  8.50000000E-01  8.50000000E-01  8.50000000E-01
  8.50000000E-01  8.50000000E-01  8.50000000E-01  8.50000000E-01  8.50000000E-01
  8.50000000E-01  8.50000000E-01  8.50000000E-01  8.50000000E-01  8.50000000E-01
  8.50000000E-01  8.50000000E-01  8.50000000E-01  8.50000000E-01  8.50000000E-01
  8.50000000E-01  8.50000000E-01  8.50000000E-01  8.50000000E-01  8.50000000E-01
  8.50000000E-01  8.50000000E-01  8.50000000E-01  8.50000000E-01  8.50000000E-01
  8.50000000E-01  8.50000000E-01  8.50000000E-01  8.50000000E-01  8.50000000E-01
  8.50000000E-01  8.50000000E-01  8.50000000E-01  8.50000000E-01  8.50000000E-01
  8.50000000E-01  8.50000000E-01  8.50000000E-01  8.50000000E-01  8.50000000E-01
  8.50000000E-01  8.50000000E-01  8.50000000E-01  8.50000000E-01  8.50000000E-01
  8.50000000E-01  8.50000000E-01  8.50000000E-01  8.50000000E-01  8.50000000E-01
  8.50000000E-01  8.50000000E-01  8.50000000E-01  8.50000000E-01  8.50000000E-01
  8.50000000E-01  8.50000000E-01  8.50000000E-01  8.50000000E-01  8.50000000E-01
  8.50000000E-01  8.50000000E-01  8.50000000E-01  8.50000000E-01  8.50000000E-01
  8.50000000E-01  8.50000000E-01  8.50000000E-01  8.50000000E-01  8.50000000E-01
  8.50000000E-01  8.50000000E-01  8.50000000E-01  8.50000000E-01  8.50000000E-01
  8.50000000E-01  8.50000000E-01  8.50000000E-01  8.50000000E-01  8.50000000E-01
  8.50000000E-01  8.50000000E-01  8.50000000E-01  8.50000000E-01  8.50000000E-01
  8.50000000E-01  8.50000000E-01  8.50000000E-01  8.50000000E-01  8.50000000E-01
  8.50000000E-01  8.50000000E-01  8.50000000E-01  8.50000000E-01  8.50000000E-01
  8.50000000E-01  8.50000000E-01  8.50000000E-01  8.50000000E-01  8.50000000E-01
  8.50000000E-01  8.50000000E-01  8.50000000E-01  8.50000000E-01  8.50000000E-01
  8.50000000E-01  8.50000000E-01  8.50000000E-01  8.50000000E-01  8.50000000E-01
  8.50000000E-01  8.50000000E-01  8.50000000E-01  8.50000000E-01  8.50000000E-01
  8.50000000E-01  8.50000000E-01  8.50000000E-01  8.50000000E-01  8.50000000E-01
  8.50000000E-01  8.50000000E-01  8.50000000E-01  8.50000000E-01  8.50000000E-01
  8.50000000E-01  8.50000000E-01  8.50000000E-01  8.50000000E-01  8.50000000E-01
  8.50000000E-01  8.50000000E-01  8.50000000E-01  8.50000000E-01  8.50000000E-01
  8.50000000E-01  8.50000000E-01  8.50000000E-01  8.50000000E-01  8.50000000E-01
  8.50000000E-01  8.50000000E-01  8.50000000E-01  8.50000000E-01  8.50000000E-01
  8.50000000E-01  8.50000000E-01  8.50000000E-01  8.50000000E-01  8.50000000E-01
  8.50000000E-01  8.50000000E-01  8.50000000E-01  8.50000000E-01  8.50000000E-01
  8.50000000E-01  8.50000000E-01  8.50000000E-01  8.50000000E-01  8.50000000E-01
  8.50000000E-01  8.50000000E-01  8.50000000E-01  8.50000000E-01  8.50000000E-01
  8.50000000E-01  8.50000000E-01  8.50000000E-01  8.50000000E-01  8.50000000E-01
  8.50000000E-01  8.50000000E-01  8.50000000E-01  8.50000000E-01  8.50000000E-01
  8.50000000E-01  8.50000000E-01  8.50000000E-01  8.50000000E-01  8.50000000E-01
  8.50000000E-01  8.50000000E-01  8.50000000E-01  8.50000000E-01  8.50000000E-01
  8.50000000E-01  8.50000000E-01  8.50000000E-01  8.50000000E-01  8.50000000E-01
  8.50000000E-01  8.50000000E-01  8.50000000E-01  8.50000000E-01  8.50000000E-01
  8.50000000E-01  8.50000000E-01  8.50000000E-01  8.50000000E-01  8.50000000E-01
  8.50000000E-01  8.50000000E-01  8.50000000E-01  8.50000000E-01  8.50000000E-01
  8.50000000E-01  8.50000000E-01  8.50000000E-01  8.50000000E-01  8.50000000E-01
  8.50000000E-01  8.50000000E-01  8.50000000E-01  8.50000000E-01  8.50000000E-01
  8.50000000E-01  8.50000000E-01  8.50000000E-01  8.50000000E-01  8.50000000E-01
  8.50000000E-01  8.50000000E-01  8.50000000E-01  8.50000000E-01  8.50000000E-01
  8.50000000E-01  8.50000000E-01  8.50000000E-01  8.50000000E-01  8.50000000E-01
  8.50000000E-01  8.50000000E-01  8.50000000E-01  8.50000000E-01  8.50000000E-01
  8.50000000E-01  8.50000000E-01  8.50000000E-01  8.50000000E-01  8.50000000E-01
  8.50000000E-01  8.50000000E-01  8.50000000E-01  8.50000000E-01  8.50000000E-01
  8.50000000E-01  8.50000000E-01  8.50000000E-01  8.50000000E-01  8.50000000E-01
  8.50000000E-01  8.50000000E-01  8.50000000E-01  8.50000000E-01  8.50000000E-01
  8.50000000E-01  8.50000000E-01  8.50000000E-01  8.50000000E-01  8.50000000E-01
  8.50000000E-01  8.50000000E-01  8.50000000E-01  8.50000000E-01  8.50000000E-01
  8.50000000E-01  8.50000000E-01  8.50000000E-01  8.50000000E-01  8.50000000E-01
  8.50000000E-01  8.50000000E-01  8.50000000E-01  8.50000000E-01  8.50000000E-01
  8.50000000E-01  8.50000000E-01  8.50000000E-01  8.50000000E-01  8.50000000E-01
  8.50000000E-01  8.50000000E-01  8.50000000E-01  8.50000000E-01  8.50000000E-01
  8.50000000E-01  8.50000000E-01  8.50000000E-01  8.50000000E-01  8.50000000E-01
  8.50000000E-01  8.50000000E-01  8.50000000E-01  8.50000000E-01  8.50000000E-01
  8.50000000E-01  8.50000000E-01  8.50000000E-01  8.50000000E-01  8.50000000E-01
  8.50000000E-01  8.50000000E-01  8.50000000E-01  8.50000000E-01  8.50000000E-01
  8.50000000E-01  8.50000000E-01  8.50000000E-01  8.50000000E-01  8.50000000E-01
  8.50000000E-01  8.50000000E-01  8.50000000E-01  8.50000000E-01  8.50000000E-01
  8.50000000E-01  8.50000000E-01  8.50000000E-01  8.50000000E-01  8.50000000E-01
  8.50000000E-01  8.50000000E-01  8.50000000E-01  8.50000000E-01  8.50000000E-01
  8.50000000E-01  8.50000000E-01  8.50000000E-01  8.50000000E-01  8.50000000E-01
  8.50000000E-01  8.50000000E-01  8.50000000E-01  8.50000000E-01  8.50000000E-01
  8.50000000E-01  8.50000000E-01  8.50000000E-01  8.50000000E-01  8.50000000E-01
  8.50000000E-01  8.50000000E-01  8.50000000E-01  8.50000000E-01  8.50000000E-01
  8.50000000E-01  8.50000000E-01  8.50000000E-01  8.50000000E-01  8.50000000E-01
  8.50000000E-01  8.50000000E-01  8.50000000E-01  8.50000000E-01  8.50000000E-01
  8.50000000E-01  8.50000000E-01  8.50000000E-01  8.50000000E-01  8.50000000E-01
  8.50000000E-01  8.50000000E-01  8.50000000E-01  8.50000000E-01  8.50000000E-01
  8.50000000E-01  8.50000000E-01  8.50000000E-01  8.50000000E-01  8.50000000E-01
  8.50000000E-01  8.50000000E-01  8.50000000E-01  8.50000000E-01  8.50000000E-01
  8.50000000E-01  8.50000000E-01  8.50000000E-01  8.50000000E-01  8.50000000E-01
  8.50000000E-01  8.50000000E-01  8.50000000E-01  8.50000000E-01  8.50000000E-01
  8.50000000E-01  8.50000000E-01  8.50000000E-01  8.50000000E-01  8.50000000E-01
  8.50000000E-01  8.50000000E-01  8.50000000E-01  8.50000000E-01  8.50000000E-01
  8.50000000E-01  8.50000000E-01  8.50000000E-01  8.50000000E-01  8.50000000E-01
  8.50000000E-01  8.50000000E-01  8.50000000E-01  8.50000000E-01  8.50000000E-01
  8.50000000E-01  8.50000000E-01  8.50000000E-01  8.50000000E-01  8.50000000E-01
  8.50000000E-01  8.50000000E-01  8.50000000E-01  8.50000000E-01  8.50000000E-01
  8.50000000E-01  8.50000000E-01  8.50000000E-01  8.50000000E-01  8.50000000E-01
  8.50000000E-01  8.50000000E-01  8.50000000E-01  8.50000000E-01  8.50000000E-01
  8.50000000E-01  8.50000000E-01  8.50000000E-01  8.50000000E-01  8.50000000E-01
  8.50000000E-01  8.50000000E-01  8.50000000E-01  8.50000000E-01  8.50000000E-01
  8.50000000E-01  8.50000000E-01  8.50000000E-01  8.50000000E-01  8.50000000E-01
  8.50000000E-01  8.50000000E-01  8.50000000E-01  8.50000000E-01  8.50000000E-01
  8.50000000E-01  8.50000000E-01  8.50000000E-01  8.50000000E-01  8.50000000E-01
  8.50000000E-01  8.50000000E-01  8.50000000E-01  8.50000000E-01  8.50000000E-01
  8.50000000E-01  8.50000000E-01  8.50000000E-01  8.50000000E-01  8.50000000E-01
  8.50000000E-01  8.50000000E-01  8.50000000E-01  8.50000000E-01  8.50000000E-01
  8.50000000E-01  8.50000000E-01  8.50000000E-01  8.50000000E-01  8.50000000E-01
  8.50000000E-01  8.50000000E-01  8.50000000E-01  8.50000000E-01  8.50000000E-01
  8.50000000E-01  8.50000000E-01  8.50000000E-01  8.50000000E-01  8.50000000E-01
  8.50000000E-01  8.50000000E-01  8.50000000E-01  8.50000000E-01  8.50000000E-01
  8.50000000E-01  8.50000000E-01  8.50000000E-01  8.50000000E-01  8.50000000E-01
  8.50000000E-01  8.50000000E-01  8.50000000E-01  8.50000000E-01  8.50000000E-01
  8.50000000E-01  8.50000000E-01  8.50000000E-01  8.50000000E-01  8.50000000E-01
  8.50000000E-01  8.50000000E-01  8.50000000E-01  8.50000000E-01  8.50000000E-01
  8.50000000E-01  8.50000000E-01  8.50000000E-01  8.50000000E-01  8.50000000E-01
  8.50000000E-01  8.50000000E-01  8.50000000E-01  8.50000000E-01  8.50000000E-01
  8.50000000E-01  8.50000000E-01  8.50000000E-01  8.50000000E-01  8.50000000E-01
  8.50000000E-01  8.50000000E-01  8.50000000E-01  8.50000000E-01  8.50000000E-01
  8.50000000E-01  8.50000000E-01  8.50000000E-01  8.50000000E-01  8.50000000E-01
  8.50000000E-01  8.50000000E-01  8.50000000E-01  8.50000000E-01  8.50000000E-01
  8.50000000E-01  8.50000000E-01  8.50000000E-01  8.50000000E-01  8.50000000E-01
  8.50000000E-01  8.50000000E-01  8.50000000E-01  8.50000000E-01  8.50000000E-01
  8.50000000E-01  8.50000000E-01  8.50000000E-01  8.50000000E-01  8.50000000E-01
  8.50000000E-01  8.50000000E-01  8.50000000E-01  8.50000000E-01  8.50000000E-01
  8.50000000E-01  8.50000000E-01  8.50000000E-01  8.50000000E-01  8.50000000E-01
  8.50000000E-01  8.50000000E-01  8.50000000E-01  8.50000000E-01  8.50000000E-01
  8.50000000E-01  8.50000000E-01  8.50000000E-01  8.50000000E-01  8.50000000E-01
  8.50000000E-01  8.50000000E-01  8.50000000E-01  8.50000000E-01  8.50000000E-01
  8.50000000E-01  8.50000000E-01  8.50000000E-01  8.50000000E-01  8.50000000E-01
  8.50000000E-01  8.50000000E-01  8.50000000E-01  8.50000000E-01  8.50000000E-01
  8.50000000E-01  8.50000000E-01  8.50000000E-01  8.50000000E-01  8.50000000E-01
  8.50000000E-01  8.50000000E-01  8.50000000E-01  8.50000000E-01  8.50000000E-01
  8.50000000E-01  8.50000000E-01  8.50000000E-01  8.50000000E-01  8.50000000E-01
  8.50000000E-01  8.50000000E-01  8.50000000E-01  8.50000000E-01  8.50000000E-01
  8.50000000E-01  8.50000000E-01  8.50000000E-01  8.50000000E-01  8.50000000E-01
  8.50000000E-01  8.50000000E-01  8.50000000E-01  8.50000000E-01  8.50000000E-01
  8.50000000E-01  8.50000000E-01  8.50000000E-01  8.50000000E-01  8.50000000E-01
  8.50000000E-01  8.50000000E-01  8.50000000E-01  8.50000000E-01  8.50000000E-01
  8.50000000E-01  8.50000000E-01  8.50000000E-01  8.50000000E-01  8.50000000E-01
  8.50000000E-01  8.50000000E-01  8.50000000E-01  8.50000000E-01  8.50000000E-01
  8.50000000E-01  8.50000000E-01  8.50000000E-01  8.50000000E-01  8.50000000E-01
  8.50000000E-01  8.50000000E-01  8.50000000E-01  8.50000000E-01  8.50000000E-01
  8.50000000E-01  8.50000000E-01  8.50000000E-01  8.50000000E-01  8.50000000E-01
  8.50000000E-01  8.50000000E-01  8.50000000E-01  8.50000000E-01  8.50000000E-01
  8.50000000E-01  8.50000000E-01  8.50000000E-01  8.50000000E-01  8.50000000E-01
  8.50000000E-01  8.50000000E-01  8.50000000E-01  8.50000000E-01  8.50000000E-01
  8.50000000E-01  8.50000000E-01  8.50000000E-01  8.50000000E-01  8.50000000E-01
  8.50000000E-01  8.50000000E-01  8.50000000E-01  8.50000000E-01  8.50000000E-01
  8.50000000E-01  8.50000000E-01  8.50000000E-01  8.50000000E-01  8.50000000E-01
  8.50000000E-01  8.50000000E-01  8.50000000E-01  8.50000000E-01  8.50000000E-01
  8.50000000E-01  8.50000000E-01  8.50000000E-01  8.50000000E-01  8.50000000E-01
  8.50000000E-01  8.50000000E-01  8.50000000E-01  8.50000000E-01  8.50000000E-01
  8.50000000E-01  8.50000000E-01  8.50000000E-01  8.50000000E-01  8.50000000E-01
  8.50000000E-01  8.50000000E-01  8.50000000E-01  8.50000000E-01  8.50000000E-01
  8.50000000E-01  8.50000000E-01  8.50000000E-01  8.50000000E-01  8.50000000E-01
  8.50000000E-01  8.50000000E-01  8.50000000E-01  8.50000000E-01  8.50000000E-01
  8.50000000E-01  8.50000000E-01  8.50000000E-01  8.50000000E-01  8.50000000E-01
  8.50000000E-01  8.50000000E-01  8.50000000E-01  8.50000000E-01  8.50000000E-01
  8.50000000E-01  8.50000000E-01  8.50000000E-01  8.50000000E-01  8.50000000E-01
  8.50000000E-01  8.50000000E-01  8.50000000E-01  8.50000000E-01  8.50000000E-01
  8.50000000E-01  8.50000000E-01  8.50000000E-01  8.50000000E-01  8.50000000E-01
  8.50000000E-01  8.50000000E-01  8.50000000E-01  8.50000000E-01  8.50000000E-01
  8.50000000E-01  8.50000000E-01  8.50000000E-01  8.50000000E-01  8.50000000E-01
  8.50000000E-01  8.50000000E-01  8.50000000E-01  8.50000000E-01  8.50000000E-01
  8.50000000E-01  8.50000000E-01  8.50000000E-01  8.50000000E-01  8.50000000E-01
  8.50000000E-01  8.50000000E-01  8.50000000E-01  8.50000000E-01  8.50000000E-01
  8.50000000E-01  8.50000000E-01  8.50000000E-01  8.50000000E-01  8.50000000E-01
  8.50000000E-01  8.50000000E-01  8.50000000E-01  8.50000000E-01  8.50000000E-01
  8.50000000E-01  8.50000000E-01  8.50000000E-01  8.50000000E-01  8.50000000E-01
  8.50000000E-01  8.50000000E-01  8.50000000E-01  8.50000000E-01  8.50000000E-01
  8.50000000E-01  8.50000000E-01  8.50000000E-01  8.50000000E-01  8.50000000E-01
  8.50000000E-01  8.50000000E-01  8.50000000E-01  8.50000000E-01  8.50000000E-01
  8.50000000E-01  8.50000000E-01  8.50000000E-01  8.50000000E-01  8.50000000E-01
  8.50000000E-01  8.50000000E-01  8.50000000E-01  8.50000000E-01  8.50000000E-01
  8.50000000E-01  8.50000000E-01  8.50000000E-01  8.50000000E-01  8.50000000E-01
  8.50000000E-01  8.50000000E-01  8.50000000E-01  8.50000000E-01  8.50000000E-01
  8.50000000E-01  8.50000000E-01  8.50000000E-01  8.50000000E-01  8.50000000E-01
  8.50000000E-01  8.50000000E-01  8.50000000E-01  8.50000000E-01  8.50000000E-01
  8.50000000E-01  8.50000000E-01  8.50000000E-01  8.50000000E-01  8.50000000E-01
  8.50000000E-01  8.50000000E-01  8.50000000E-01  8.50000000E-01  8.50000000E-01
  8.50000000E-01  8.50000000E-01  8.50000000E-01  8.50000000E-01  8.50000000E-01
  8.50000000E-01  8.50000000E-01  8.50000000E-01  8.50000000E-01  8.50000000E-01
  8.50000000E-01  8.50000000E-01  8.50000000E-01  8.50000000E-01  8.50000000E-01
  8.50000000E-01  8.50000000E-01  8.50000000E-01  8.50000000E-01  8.50000000E-01
  8.50000000E-01  8.50000000E-01  8.50000000E-01  8.50000000E-01  8.50000000E-01
  8.50000000E-01  8.50000000E-01  8.50000000E-01  8.50000000E-01  8.50000000E-01
  8.50000000E-01  8.50000000E-01  8.50000000E-01  8.50000000E-01  8.50000000E-01
  8.50000000E-01  8.50000000E-01  8.50000000E-01  8.50000000E-01  8.50000000E-01
  8.50000000E-01  8.50000000E-01  8.50000000E-01  8.50000000E-01  8.50000000E-01
  8.50000000E-01  8.50000000E-01  8.50000000E-01  8.50000000E-01  8.50000000E-01
  8.50000000E-01  8.50000000E-01  8.50000000E-01  8.50000000E-01  8.50000000E-01
  8.50000000E-01  8.50000000E-01  8.50000000E-01  8.50000000E-01  8.50000000E-01
  8.50000000E-01  8.50000000E-01  8.50000000E-01  8.50000000E-01  8.50000000E-01
  8.50000000E-01  8.50000000E-01  8.50000000E-01  8.50000000E-01  8.50000000E-01
  8.50000000E-01  8.50000000E-01  8.50000000E-01  8.50000000E-01  8.50000000E-01
  8.50000000E-01  8.50000000E-01  8.50000000E-01  8.50000000E-01  8.50000000E-01
  8.50000000E-01  8.50000000E-01  8.50000000E-01  8.50000000E-01  8.50000000E-01
  8.50000000E-01  8.50000000E-01  8.50000000E-01  8.50000000E-01  8.50000000E-01
  8.50000000E-01  8.50000000E-01  8.50000000E-01  8.50000000E-01  8.50000000E-01
  8.50000000E-01  8.50000000E-01  8.50000000E-01  8.50000000E-01  8.50000000E-01
  8.50000000E-01  8.50000000E-01  8.50000000E-01  8.50000000E-01  8.50000000E-01
  8.50000000E-01  8.50000000E-01  8.50000000E-01  8.50000000E-01  8.50000000E-01
  8.50000000E-01  8.50000000E-01  8.50000000E-01  8.50000000E-01  8.50000000E-01
  8.50000000E-01  8.50000000E-01  8.50000000E-01  8.50000000E-01  8.50000000E-01
  8.50000000E-01  8.50000000E-01  8.50000000E-01  8.50000000E-01  8.50000000E-01
  8.50000000E-01  8.50000000E-01  8.50000000E-01  8.50000000E-01  8.50000000E-01
  8.50000000E-01  8.50000000E-01  8.50000000E-01  8.50000000E-01  8.50000000E-01
  8.50000000E-01  8.50000000E-01  8.50000000E-01  8.50000000E-01  8.50000000E-01
  8.50000000E-01  8.50000000E-01  8.50000000E-01  8.50000000E-01  8.50000000E-01
  8.50000000E-01  8.50000000E-01  8.50000000E-01  8.50000000E-01  8.50000000E-01
  8.50000000E-01  8.50000000E-01  8.50000000E-01  8.50000000E-01  8.50000000E-01
  8.50000000E-01  8.50000000E-01  8.50000000E-01  8.50000000E-01  8.50000000E-01
  8.50000000E-01  8.50000000E-01  8.50000000E-01  8.50000000E-01  8.50000000E-01
  8.50000000E-01  8.50000000E-01  8.50000000E-01  8.50000000E-01  8.50000000E-01
  8.50000000E-01  8.50000000E-01  8.50000000E-01  8.50000000E-01  8.50000000E-01
  8.50000000E-01  8.50000000E-01  8.50000000E-01  8.50000000E-01  8.50000000E-01
  8.50000000E-01  8.50000000E-01  8.50000000E-01  8.50000000E-01  8.50000000E-01
  8.50000000E-01  8.50000000E-01  8.50000000E-01  8.50000000E-01  8.50000000E-01
  8.50000000E-01  8.50000000E-01  8.50000000E-01  8.50000000E-01  8.50000000E-01
  8.50000000E-01  8.50000000E-01  8.50000000E-01  8.50000000E-01  8.50000000E-01
  8.50000000E-01  8.50000000E-01  8.50000000E-01  8.50000000E-01  8.50000000E-01
  8.50000000E-01  8.50000000E-01  8.50000000E-01  8.50000000E-01  8.50000000E-01
  8.50000000E-01  8.50000000E-01  8.50000000E-01  8.50000000E-01  8.50000000E-01
  8.50000000E-01  8.50000000E-01  8.50000000E-01  8.50000000E-01  8.50000000E-01
  8.50000000E-01  8.50000000E-01  8.50000000E-01  8.50000000E-01  8.50000000E-01
  8.50000000E-01  8.50000000E-01  8.50000000E-01  8.50000000E-01  8.50000000E-01
  8.50000000E-01  8.50000000E-01  8.50000000E-01  8.50000000E-01  8.50000000E-01
  8.50000000E-01  8.50000000E-01  8.50000000E-01  8.50000000E-01  8.50000000E-01
  8.50000000E-01  8.50000000E-01  8.50000000E-01  8.50000000E-01  8.50000000E-01
  8.50000000E-01  8.50000000E-01  8.50000000E-01  8.50000000E-01  8.50000000E-01
  8.50000000E-01  8.50000000E-01  8.50000000E-01  8.50000000E-01  8.50000000E-01
  8.50000000E-01  8.50000000E-01  8.50000000E-01  8.50000000E-01  8.50000000E-01
  8.50000000E-01  8.50000000E-01  8.50000000E-01  8.50000000E-01  8.50000000E-01
  8.50000000E-01  8.50000000E-01  8.50000000E-01  8.50000000E-01  8.50000000E-01
  8.50000000E-01  8.50000000E-01  8.50000000E-01  8.50000000E-01  8.50000000E-01
  8.50000000E-01  8.50000000E-01  8.50000000E-01  8.50000000E-01  8.50000000E-01
  8.50000000E-01  8.50000000E-01  8.50000000E-01  8.50000000E-01  8.50000000E-01
  8.50000000E-01  8.50000000E-01  8.50000000E-01  8.50000000E-01  8.50000000E-01
  8.50000000E-01  8.50000000E-01  8.50000000E-01  8.50000000E-01  8.50000000E-01
  8.50000000E-01  8.50000000E-01  8.50000000E-01  8.50000000E-01  8.50000000E-01
  8.50000000E-01  8.50000000E-01  8.50000000E-01  8.50000000E-01  8.50000000E-01
  8.50000000E-01  8.50000000E-01  8.50000000E-01  8.50000000E-01  8.50000000E-01
  8.50000000E-01  8.50000000E-01  8.50000000E-01  8.50000000E-01  8.50000000E-01
  8.50000000E-01  8.50000000E-01  8.50000000E-01  8.50000000E-01  8.50000000E-01
  8.50000000E-01  8.50000000E-01  8.50000000E-01  8.50000000E-01  8.50000000E-01
  8.50000000E-01  8.50000000E-01  8.50000000E-01  8.50000000E-01  8.50000000E-01
  8.50000000E-01  8.50000000E-01  8.50000000E-01  8.50000000E-01  8.50000000E-01
  8.50000000E-01  8.50000000E-01  8.50000000E-01  8.50000000E-01  8.50000000E-01
  8.50000000E-01  8.50000000E-01  8.50000000E-01  8.50000000E-01  8.50000000E-01
  8.50000000E-01  8.50000000E-01  8.50000000E-01  8.50000000E-01  8.50000000E-01
  8.50000000E-01  8.50000000E-01  8.50000000E-01  8.50000000E-01  8.50000000E-01
  8.50000000E-01  8.50000000E-01  8.50000000E-01  8.50000000E-01  8.50000000E-01
  8.50000000E-01  8.50000000E-01  8.50000000E-01  8.50000000E-01  8.50000000E-01
  8.50000000E-01  8.50000000E-01  8.50000000E-01  8.50000000E-01  8.50000000E-01
  8.50000000E-01  8.50000000E-01  8.50000000E-01  8.50000000E-01  8.50000000E-01
  8.50000000E-01  8.50000000E-01  8.50000000E-01  8.50000000E-01  8.50000000E-01
  8.50000000E-01  8.50000000E-01  8.50000000E-01  8.50000000E-01  8.50000000E-01
  8.50000000E-01  8.50000000E-01  8.50000000E-01  8.50000000E-01  8.50000000E-01
  8.50000000E-01  8.50000000E-01  8.50000000E-01  8.50000000E-01  8.50000000E-01
  8.50000000E-01  8.50000000E-01  8.50000000E-01  8.50000000E-01  8.50000000E-01
  8.50000000E-01  8.50000000E-01  8.50000000E-01  8.50000000E-01  8.50000000E-01
  8.50000000E-01  8.50000000E-01  8.50000000E-01  8.50000000E-01  8.50000000E-01
  8.50000000E-01  8.50000000E-01  8.50000000E-01  8.50000000E-01  8.50000000E-01
  8.50000000E-01  8.50000000E-01  8.50000000E-01  8.50000000E-01  8.50000000E-01
  8.50000000E-01  8.50000000E-01  8.50000000E-01  8.50000000E-01  8.50000000E-01
  8.50000000E-01  8.50000000E-01  8.50000000E-01  8.50000000E-01  8.50000000E-01
  8.50000000E-01  8.50000000E-01  8.50000000E-01  8.50000000E-01  8.50000000E-01
  8.50000000E-01  8.50000000E-01  8.50000000E-01  8.50000000E-01  8.50000000E-01
  8.50000000E-01  8.50000000E-01  8.50000000E-01  8.50000000E-01  8.50000000E-01
  8.50000000E-01  8.50000000E-01  8.50000000E-01  8.50000000E-01  8.50000000E-01
  8.50000000E-01  8.50000000E-01  8.50000000E-01  8.50000000E-01  8.50000000E-01
  8.50000000E-01  8.50000000E-01  8.50000000E-01  8.50000000E-01  8.50000000E-01
  8.50000000E-01  8.50000000E-01  8.50000000E-01  8.50000000E-01  8.50000000E-01
  8.50000000E-01  8.50000000E-01  8.50000000E-01  8.50000000E-01  8.50000000E-01
  8.50000000E-01  8.50000000E-01  8.50000000E-01  8.50000000E-01  8.50000000E-01
  8.50000000E-01  8.50000000E-01  8.50000000E-01  8.50000000E-01  8.50000000E-01
  8.50000000E-01  8.50000000E-01  8.50000000E-01  8.50000000E-01  8.50000000E-01
  8.50000000E-01  8.50000000E-01  8.50000000E-01  8.50000000E-01  8.50000000E-01
  8.50000000E-01  8.50000000E-01  8.50000000E-01  8.50000000E-01  8.50000000E-01
  8.50000000E-01  8.50000000E-01  8.50000000E-01  8.50000000E-01  8.50000000E-01
  8.50000000E-01  8.50000000E-01  8.50000000E-01  8.50000000E-01  8.50000000E-01
  8.50000000E-01  8.50000000E-01  8.50000000E-01  8.50000000E-01  8.50000000E-01
  8.50000000E-01  8.50000000E-01  8.50000000E-01  8.50000000E-01  8.50000000E-01
  8.50000000E-01  8.50000000E-01  8.50000000E-01  8.50000000E-01  8.50000000E-01
  8.50000000E-01  8.50000000E-01  8.50000000E-01  8.50000000E-01  8.50000000E-01
  8.50000000E-01  8.50000000E-01  8.50000000E-01  8.50000000E-01  8.50000000E-01
  8.50000000E-01  8.50000000E-01  8.50000000E-01  8.50000000E-01  8.50000000E-01
  8.50000000E-01  8.50000000E-01  8.50000000E-01  8.50000000E-01  8.50000000E-01
  8.50000000E-01  8.50000000E-01  8.50000000E-01  8.50000000E-01  8.50000000E-01
  8.50000000E-01  8.50000000E-01  8.50000000E-01  8.50000000E-01  8.50000000E-01
  8.50000000E-01  8.50000000E-01  8.50000000E-01  8.50000000E-01  8.50000000E-01
  8.50000000E-01  8.50000000E-01  8.50000000E-01  8.50000000E-01  8.50000000E-01
  8.50000000E-01  8.50000000E-01  8.50000000E-01  8.50000000E-01  8.50000000E-01
  8.50000000E-01  8.50000000E-01  8.50000000E-01  8.50000000E-01  8.50000000E-01
  8.50000000E-01  8.50000000E-01  8.50000000E-01  8.50000000E-01  8.50000000E-01
  8.50000000E-01  8.50000000E-01  8.50000000E-01  8.50000000E-01  8.50000000E-01
  8.50000000E-01  8.50000000E-01  8.50000000E-01  8.50000000E-01  8.50000000E-01
  8.50000000E-01  8.50000000E-01  8.50000000E-01  8.50000000E-01  8.50000000E-01
  8.50000000E-01  8.50000000E-01  8.50000000E-01  8.50000000E-01  8.50000000E-01
  8.50000000E-01  8.50000000E-01  8.50000000E-01  8.50000000E-01  8.50000000E-01
  8.50000000E-01  8.50000000E-01  8.50000000E-01  8.50000000E-01  8.50000000E-01
  8.50000000E-01  8.50000000E-01  8.50000000E-01  8.50000000E-01  8.50000000E-01
  8.50000000E-01  8.50000000E-01  8.50000000E-01  8.50000000E-01  8.50000000E-01
  8.50000000E-01  8.50000000E-01  8.50000000E-01  8.50000000E-01  8.50000000E-01
  8.50000000E-01  8.50000000E-01  8.50000000E-01  8.50000000E-01  8.50000000E-01
  8.50000000E-01  8.50000000E-01  8.50000000E-01  8.50000000E-01  8.50000000E-01
  8.50000000E-01  8.50000000E-01  8.50000000E-01  8.50000000E-01  8.50000000E-01
  8.50000000E-01  8.50000000E-01  8.50000000E-01  8.50000000E-01  8.50000000E-01
  8.50000000E-01  8.50000000E-01  8.50000000E-01  8.50000000E-01  8.50000000E-01
  8.50000000E-01  8.50000000E-01  8.50000000E-01  8.50000000E-01  8.50000000E-01
  8.50000000E-01  8.50000000E-01  8.50000000E-01  8.50000000E-01  8.50000000E-01
  8.50000000E-01  8.50000000E-01  8.50000000E-01  8.50000000E-01  8.50000000E-01
  8.50000000E-01  8.50000000E-01  8.50000000E-01  8.50000000E-01  8.50000000E-01
  8.50000000E-01  8.50000000E-01  8.50000000E-01  8.50000000E-01  8.50000000E-01
  8.50000000E-01  8.50000000E-01  8.50000000E-01  8.50000000E-01  8.50000000E-01
  8.50000000E-01  8.50000000E-01  8.50000000E-01  8.50000000E-01  8.50000000E-01
  8.50000000E-01  8.50000000E-01  8.50000000E-01  8.50000000E-01  8.50000000E-01
  8.50000000E-01  8.50000000E-01  8.50000000E-01  8.50000000E-01  8.50000000E-01
  8.50000000E-01  8.50000000E-01  8.50000000E-01  8.50000000E-01  8.50000000E-01
  8.50000000E-01  8.50000000E-01  8.50000000E-01  8.50000000E-01  8.50000000E-01
  8.50000000E-01  8.50000000E-01  8.50000000E-01  8.50000000E-01  8.50000000E-01
  8.50000000E-01  8.50000000E-01  8.50000000E-01  8.50000000E-01  8.50000000E-01
  8.50000000E-01  8.50000000E-01  8.50000000E-01  8.50000000E-01  8.50000000E-01
  8.50000000E-01  8.50000000E-01  8.50000000E-01  8.50000000E-01  8.50000000E-01
  8.50000000E-01  8.50000000E-01  8.50000000E-01  8.50000000E-01  8.50000000E-01
  8.50000000E-01  8.50000000E-01  8.50000000E-01  8.50000000E-01  8.50000000E-01
  8.50000000E-01  8.50000000E-01  8.50000000E-01  8.50000000E-01  8.50000000E-01
  8.50000000E-01  8.50000000E-01  8.50000000E-01  8.50000000E-01  8.50000000E-01
  8.50000000E-01  8.50000000E-01  8.50000000E-01  8.50000000E-01  8.50000000E-01
  8.50000000E-01  8.50000000E-01  8.50000000E-01  8.50000000E-01  8.50000000E-01
  8.50000000E-01  8.50000000E-01  8.50000000E-01  8.50000000E-01  8.50000000E-01
  8.50000000E-01  8.50000000E-01  8.50000000E-01  8.50000000E-01  8.50000000E-01
  8.50000000E-01  8.50000000E-01  8.50000000E-01  8.50000000E-01  8.50000000E-01
  8.50000000E-01  8.50000000E-01  8.50000000E-01  8.50000000E-01  8.50000000E-01
  8.50000000E-01  8.50000000E-01  8.50000000E-01  8.50000000E-01  8.50000000E-01
  8.50000000E-01  8.50000000E-01  8.50000000E-01  8.50000000E-01  8.50000000E-01
  8.50000000E-01  8.50000000E-01  8.50000000E-01  8.50000000E-01  8.50000000E-01
  8.50000000E-01  8.50000000E-01  8.50000000E-01  8.50000000E-01  8.50000000E-01
  8.50000000E-01  8.50000000E-01  8.50000000E-01  8.50000000E-01  8.50000000E-01
  8.50000000E-01  8.50000000E-01  8.50000000E-01  8.50000000E-01  8.50000000E-01
  8.50000000E-01  8.50000000E-01  8.50000000E-01  8.50000000E-01  8.50000000E-01
  8.50000000E-01  8.50000000E-01  8.50000000E-01  8.50000000E-01  8.50000000E-01
  8.50000000E-01  8.50000000E-01  8.50000000E-01  8.50000000E-01  8.50000000E-01
  8.50000000E-01  8.50000000E-01  8.50000000E-01  8.50000000E-01  8.50000000E-01
  8.50000000E-01  8.50000000E-01  8.50000000E-01  8.50000000E-01  8.50000000E-01
  8.50000000E-01  8.50000000E-01  8.50000000E-01  8.50000000E-01  8.50000000E-01
  8.50000000E-01  8.50000000E-01  8.50000000E-01  8.50000000E-01  8.50000000E-01
  8.50000000E-01  8.50000000E-01  8.50000000E-01  8.50000000E-01  8.50000000E-01
  8.50000000E-01  8.50000000E-01  8.50000000E-01  8.50000000E-01  8.50000000E-01
  8.50000000E-01  8.50000000E-01  8.50000000E-01  8.50000000E-01  8.50000000E-01
  8.50000000E-01  8.50000000E-01  8.50000000E-01  8.50000000E-01  8.50000000E-01
  8.50000000E-01  8.50000000E-01  8.50000000E-01  8.50000000E-01  8.50000000E-01
  8.50000000E-01  8.50000000E-01  8.50000000E-01  8.50000000E-01  8.50000000E-01
  8.50000000E-01  8.50000000E-01  8.50000000E-01  8.50000000E-01  8.50000000E-01
  8.50000000E-01  8.50000000E-01  8.50000000E-01  8.50000000E-01  8.50000000E-01
  8.50000000E-01  8.50000000E-01  8.50000000E-01  8.50000000E-01  8.50000000E-01
  8.50000000E-01  8.50000000E-01  8.50000000E-01  8.50000000E-01  8.50000000E-01
  8.50000000E-01  8.50000000E-01  8.50000000E-01  8.50000000E-01  8.50000000E-01
  8.50000000E-01  8.50000000E-01  8.50000000E-01  8.50000000E-01  8.50000000E-01
  8.50000000E-01  8.50000000E-01  8.50000000E-01  8.50000000E-01  8.50000000E-01
  8.50000000E-01  8.50000000E-01  8.50000000E-01  8.50000000E-01  8.50000000E-01
  8.50000000E-01  8.50000000E-01  8.50000000E-01  8.50000000E-01  8.50000000E-01
  8.50000000E-01  8.50000000E-01  8.50000000E-01  8.50000000E-01  8.50000000E-01
  8.50000000E-01  8.50000000E-01  8.50000000E-01  8.50000000E-01  8.50000000E-01
  8.50000000E-01  8.50000000E-01  8.50000000E-01  8.50000000E-01  8.50000000E-01
  8.50000000E-01  8.50000000E-01  8.50000000E-01  8.50000000E-01  8.50000000E-01
  8.50000000E-01  8.50000000E-01  8.50000000E-01  8.50000000E-01  8.50000000E-01
  8.50000000E-01  8.50000000E-01  8.50000000E-01  8.50000000E-01  8.50000000E-01
  8.50000000E-01  8.50000000E-01  8.50000000E-01  8.50000000E-01  8.50000000E-01
  8.50000000E-01  8.50000000E-01  8.50000000E-01  8.50000000E-01  8.50000000E-01
  8.50000000E-01  8.50000000E-01  8.50000000E-01  8.50000000E-01  8.50000000E-01
  8.50000000E-01  8.50000000E-01  8.50000000E-01  8.50000000E-01  8.50000000E-01
  8.50000000E-01  8.50000000E-01  8.50000000E-01  8.50000000E-01  8.50000000E-01
  8.50000000E-01  8.50000000E-01  8.50000000E-01  8.50000000E-01  8.50000000E-01
  8.50000000E-01  8.50000000E-01  8.50000000E-01  8.50000000E-01  8.50000000E-01
  8.50000000E-01  8.50000000E-01  8.50000000E-01  8.50000000E-01  8.50000000E-01
  8.50000000E-01  8.50000000E-01  8.50000000E-01  8.50000000E-01  8.50000000E-01
  8.50000000E-01  8.50000000E-01  8.50000000E-01  8.50000000E-01  8.50000000E-01
  8.50000000E-01  8.50000000E-01  8.50000000E-01  8.50000000E-01  8.50000000E-01
  8.50000000E-01  8.50000000E-01  8.50000000E-01  8.50000000E-01  8.50000000E-01
  8.50000000E-01  8.50000000E-01  8.50000000E-01  8.50000000E-01  8.50000000E-01
  8.50000000E-01  8.50000000E-01  8.50000000E-01  8.50000000E-01  8.50000000E-01
  8.50000000E-01  8.50000000E-01  8.50000000E-01  8.50000000E-01  8.50000000E-01
  8.50000000E-01  8.50000000E-01  8.50000000E-01  8.50000000E-01  8.50000000E-01
  8.50000000E-01  8.50000000E-01  8.50000000E-01  8.50000000E-01  8.50000000E-01
  8.50000000E-01  8.50000000E-01  8.50000000E-01  8.50000000E-01  8.50000000E-01
  8.50000000E-01  8.50000000E-01  8.50000000E-01  8.50000000E-01  8.50000000E-01
  8.50000000E-01  8.50000000E-01  8.50000000E-01  8.50000000E-01  8.50000000E-01
  8.50000000E-01  8.50000000E-01  8.50000000E-01  8.50000000E-01  8.50000000E-01
  8.50000000E-01  8.50000000E-01  8.50000000E-01  8.50000000E-01  8.50000000E-01
  8.50000000E-01  8.50000000E-01  8.50000000E-01  8.50000000E-01  8.50000000E-01
  8.50000000E-01  8.50000000E-01  8.50000000E-01  8.50000000E-01  8.50000000E-01
  8.50000000E-01  8.50000000E-01  8.50000000E-01  8.50000000E-01  8.50000000E-01
  8.50000000E-01  8.50000000E-01  8.50000000E-01  8.50000000E-01  8.50000000E-01
  8.50000000E-01  8.50000000E-01  8.50000000E-01  8.50000000E-01  8.50000000E-01
  8.50000000E-01  8.50000000E-01  8.50000000E-01  8.50000000E-01  8.50000000E-01
  8.50000000E-01  8.50000000E-01  8.50000000E-01  8.50000000E-01  8.50000000E-01
  8.50000000E-01  8.50000000E-01  8.50000000E-01  8.50000000E-01  8.50000000E-01
  8.50000000E-01  8.50000000E-01  8.50000000E-01  8.50000000E-01  8.50000000E-01
  8.50000000E-01  8.50000000E-01  8.50000000E-01  8.50000000E-01  8.50000000E-01
  8.50000000E-01  8.50000000E-01  8.50000000E-01  8.50000000E-01  8.50000000E-01
  8.50000000E-01  8.50000000E-01  8.50000000E-01  8.50000000E-01  8.50000000E-01
  8.50000000E-01  8.50000000E-01  8.50000000E-01  8.50000000E-01  8.50000000E-01
  8.50000000E-01  8.50000000E-01  8.50000000E-01  8.50000000E-01  8.50000000E-01
  8.50000000E-01  8.50000000E-01  8.50000000E-01  8.50000000E-01  8.50000000E-01
  8.50000000E-01  8.50000000E-01  8.50000000E-01  8.50000000E-01  8.50000000E-01
  8.50000000E-01  8.50000000E-01  8.50000000E-01  8.50000000E-01  8.50000000E-01
  8.50000000E-01  8.50000000E-01  8.50000000E-01  8.50000000E-01  8.50000000E-01
  8.50000000E-01  8.50000000E-01  8.50000000E-01  8.50000000E-01  8.50000000E-01
  8.50000000E-01  8.50000000E-01  8.50000000E-01  8.50000000E-01  8.50000000E-01
  8.50000000E-01  8.50000000E-01  8.50000000E-01  8.50000000E-01  8.50000000E-01
  8.50000000E-01  8.50000000E-01  8.50000000E-01  8.50000000E-01  8.50000000E-01
  8.50000000E-01  8.50000000E-01  8.50000000E-01  8.50000000E-01  8.50000000E-01
  8.50000000E-01  8.50000000E-01  8.50000000E-01  8.50000000E-01  8.50000000E-01
  8.50000000E-01  8.50000000E-01  8.50000000E-01  8.50000000E-01  8.50000000E-01
  8.50000000E-01  8.50000000E-01  8.50000000E-01  8.50000000E-01  8.50000000E-01
  8.50000000E-01  8.50000000E-01  8.50000000E-01  8.50000000E-01  8.50000000E-01
  8.50000000E-01  8.50000000E-01  8.50000000E-01  8.50000000E-01  8.50000000E-01
  8.50000000E-01  8.50000000E-01  8.50000000E-01  8.50000000E-01  8.50000000E-01
  8.50000000E-01  8.50000000E-01  8.50000000E-01  8.50000000E-01  8.50000000E-01
  8.50000000E-01  8.50000000E-01  8.50000000E-01  8.50000000E-01  8.50000000E-01
  8.50000000E-01  8.50000000E-01  8.50000000E-01  8.50000000E-01  8.50000000E-01
  8.50000000E-01  8.50000000E-01  8.50000000E-01  8.50000000E-01  8.50000000E-01
  8.50000000E-01  8.50000000E-01  8.50000000E-01  8.50000000E-01  8.50000000E-01
  8.50000000E-01  8.50000000E-01  8.50000000E-01  8.50000000E-01  8.50000000E-01
  8.50000000E-01  8.50000000E-01  8.50000000E-01  8.50000000E-01  8.50000000E-01
  8.50000000E-01  8.50000000E-01  8.50000000E-01  8.50000000E-01  8.50000000E-01
  8.50000000E-01  8.50000000E-01  8.50000000E-01  8.50000000E-01  8.50000000E-01
  8.50000000E-01  8.50000000E-01  8.50000000E-01  8.50000000E-01  8.50000000E-01
  8.50000000E-01  8.50000000E-01  8.50000000E-01  8.50000000E-01  8.50000000E-01
  8.50000000E-01  8.50000000E-01  8.50000000E-01  8.50000000E-01  8.50000000E-01
  8.50000000E-01  8.50000000E-01  8.50000000E-01  8.50000000E-01  8.50000000E-01
  8.50000000E-01  8.50000000E-01  8.50000000E-01  8.50000000E-01  8.50000000E-01
  8.50000000E-01  8.50000000E-01  8.50000000E-01  8.50000000E-01  8.50000000E-01
  8.50000000E-01  8.50000000E-01  8.50000000E-01  8.50000000E-01  8.50000000E-01
  8.50000000E-01  8.50000000E-01  8.50000000E-01  8.50000000E-01  8.50000000E-01
  8.50000000E-01  8.50000000E-01  8.50000000E-01  8.50000000E-01  8.50000000E-01
  8.50000000E-01  8.50000000E-01  8.50000000E-01  8.50000000E-01  8.50000000E-01
  8.50000000E-01  8.50000000E-01  8.50000000E-01  8.50000000E-01  8.50000000E-01
  8.50000000E-01  8.50000000E-01  8.50000000E-01  8.50000000E-01  8.50000000E-01
  8.50000000E-01  8.50000000E-01  8.50000000E-01  8.50000000E-01  8.50000000E-01
  8.50000000E-01  8.50000000E-01  8.50000000E-01  8.50000000E-01  8.50000000E-01
  8.50000000E-01  8.50000000E-01  8.50000000E-01  8.50000000E-01  8.50000000E-01
  8.50000000E-01  8.50000000E-01  8.50000000E-01  8.50000000E-01  8.50000000E-01
  8.50000000E-01  8.50000000E-01  8.50000000E-01  8.50000000E-01  8.50000000E-01
  8.50000000E-01  8.50000000E-01  8.50000000E-01  8.50000000E-01  8.50000000E-01
  8.50000000E-01  8.50000000E-01  8.50000000E-01  8.50000000E-01  8.50000000E-01
  8.50000000E-01  8.50000000E-01  8.50000000E-01  8.50000000E-01  8.50000000E-01
  8.50000000E-01  8.50000000E-01  8.50000000E-01  8.50000000E-01  8.50000000E-01
  8.50000000E-01  8.50000000E-01  8.50000000E-01  8.50000000E-01  8.50000000E-01
  8.50000000E-01  8.50000000E-01  8.50000000E-01  8.50000000E-01  8.50000000E-01
  8.50000000E-01  8.50000000E-01  8.50000000E-01  8.50000000E-01  8.50000000E-01
  8.50000000E-01  8.50000000E-01  8.50000000E-01  8.50000000E-01  8.50000000E-01
  8.50000000E-01  8.50000000E-01  8.50000000E-01  8.50000000E-01  8.50000000E-01
  8.50000000E-01  8.50000000E-01  8.50000000E-01  8.50000000E-01  8.50000000E-01
  8.50000000E-01  8.50000000E-01  8.50000000E-01  8.50000000E-01  8.50000000E-01
  8.50000000E-01  8.50000000E-01  8.50000000E-01  8.50000000E-01  8.50000000E-01
  8.50000000E-01  8.50000000E-01  8.50000000E-01  8.50000000E-01  8.50000000E-01
  8.50000000E-01  8.50000000E-01  8.50000000E-01  8.50000000E-01  8.50000000E-01
  8.50000000E-01  8.50000000E-01  8.50000000E-01  8.50000000E-01  8.50000000E-01
  8.50000000E-01  8.50000000E-01  8.50000000E-01  8.50000000E-01  8.50000000E-01
  8.50000000E-01  8.50000000E-01  8.50000000E-01  8.50000000E-01  8.50000000E-01
  8.50000000E-01  8.50000000E-01  8.50000000E-01  8.50000000E-01  8.50000000E-01
  8.50000000E-01  8.50000000E-01  8.50000000E-01  8.50000000E-01  8.50000000E-01
  8.50000000E-01  8.50000000E-01  8.50000000E-01  8.50000000E-01  8.50000000E-01
  8.50000000E-01  8.50000000E-01  8.50000000E-01  8.50000000E-01  8.50000000E-01
  8.50000000E-01  8.50000000E-01  8.50000000E-01  8.50000000E-01  8.50000000E-01
  8.50000000E-01  8.50000000E-01  8.50000000E-01  8.50000000E-01  8.50000000E-01
  8.50000000E-01  8.50000000E-01  8.50000000E-01  8.50000000E-01  8.50000000E-01
  8.50000000E-01  8.50000000E-01  8.50000000E-01  8.50000000E-01  8.50000000E-01
  8.50000000E-01  8.50000000E-01  8.50000000E-01  8.50000000E-01  8.50000000E-01
  8.50000000E-01  8.50000000E-01  8.50000000E-01  8.50000000E-01  8.50000000E-01
  8.50000000E-01  8.50000000E-01  8.50000000E-01  8.50000000E-01  8.50000000E-01
  8.50000000E-01  8.50000000E-01  8.50000000E-01  8.50000000E-01  8.50000000E-01
  8.50000000E-01  8.50000000E-01  8.50000000E-01  8.50000000E-01  8.50000000E-01
  8.50000000E-01  8.50000000E-01  8.50000000E-01  8.50000000E-01  8.50000000E-01
  8.50000000E-01  8.50000000E-01  8.50000000E-01  8.50000000E-01  8.50000000E-01
  8.50000000E-01  8.50000000E-01  8.50000000E-01  8.50000000E-01  8.50000000E-01
  8.50000000E-01  8.50000000E-01  8.50000000E-01  8.50000000E-01  8.50000000E-01
  8.50000000E-01  8.50000000E-01  8.50000000E-01  8.50000000E-01  8.50000000E-01
  8.50000000E-01  8.50000000E-01  8.50000000E-01  8.50000000E-01  8.50000000E-01
  8.50000000E-01  8.50000000E-01  8.50000000E-01  8.50000000E-01  8.50000000E-01
  8.50000000E-01  8.50000000E-01  8.50000000E-01  8.50000000E-01  8.50000000E-01
  8.50000000E-01  8.50000000E-01  8.50000000E-01  8.50000000E-01  8.50000000E-01
  8.50000000E-01  8.50000000E-01  8.50000000E-01  8.50000000E-01  8.50000000E-01
  8.50000000E-01  8.50000000E-01  8.50000000E-01  8.50000000E-01  8.50000000E-01
  8.50000000E-01  8.50000000E-01  8.50000000E-01  8.50000000E-01  8.50000000E-01
  8.50000000E-01  8.50000000E-01  8.50000000E-01  8.50000000E-01  8.50000000E-01
  8.50000000E-01  8.50000000E-01  8.50000000E-01  8.50000000E-01  8.50000000E-01
  8.50000000E-01  8.50000000E-01  8.50000000E-01  8.50000000E-01  8.50000000E-01
  8.50000000E-01  8.50000000E-01  8.50000000E-01  8.50000000E-01  8.50000000E-01
  8.50000000E-01  8.50000000E-01  8.50000000E-01  8.50000000E-01  8.50000000E-01
  8.50000000E-01  8.50000000E-01  8.50000000E-01  8.50000000E-01  8.50000000E-01
  8.50000000E-01  8.50000000E-01  8.50000000E-01  8.50000000E-01  8.50000000E-01
  8.50000000E-01  8.50000000E-01  8.50000000E-01  8.50000000E-01  8.50000000E-01
  8.50000000E-01  8.50000000E-01  8.50000000E-01  8.50000000E-01  8.50000000E-01
  8.50000000E-01  8.50000000E-01  8.50000000E-01  8.50000000E-01  8.50000000E-01
  8.50000000E-01  8.50000000E-01  8.50000000E-01  8.50000000E-01  8.50000000E-01
  8.50000000E-01  8.50000000E-01  8.50000000E-01  8.50000000E-01  8.50000000E-01
  8.50000000E-01  8.50000000E-01  8.50000000E-01  8.50000000E-01  8.50000000E-01
  8.50000000E-01  8.50000000E-01  8.50000000E-01  8.50000000E-01  8.50000000E-01
  8.50000000E-01  8.50000000E-01  8.50000000E-01  8.50000000E-01  8.50000000E-01
  8.50000000E-01  8.50000000E-01  8.50000000E-01  8.50000000E-01  8.50000000E-01
  8.50000000E-01  8.50000000E-01  8.50000000E-01  8.50000000E-01  8.50000000E-01
  8.50000000E-01  8.50000000E-01  8.50000000E-01  8.50000000E-01  8.50000000E-01
  8.50000000E-01  8.50000000E-01  8.50000000E-01  8.50000000E-01  8.50000000E-01
  8.50000000E-01  8.50000000E-01  8.50000000E-01  8.50000000E-01  8.50000000E-01
  8.50000000E-01  8.50000000E-01  8.50000000E-01  8.50000000E-01  8.50000000E-01
  8.50000000E-01  8.50000000E-01  8.50000000E-01  8.50000000E-01  8.50000000E-01
  8.50000000E-01  8.50000000E-01  8.50000000E-01  8.50000000E-01  8.50000000E-01
  8.50000000E-01  8.50000000E-01  8.50000000E-01  8.50000000E-01  8.50000000E-01
  8.50000000E-01  8.50000000E-01  8.50000000E-01  8.50000000E-01  8.50000000E-01
  8.50000000E-01  8.50000000E-01  8.50000000E-01  8.50000000E-01  8.50000000E-01
  8.50000000E-01  8.50000000E-01  8.50000000E-01  8.50000000E-01  8.50000000E-01
  8.50000000E-01  8.50000000E-01  8.50000000E-01  8.50000000E-01  8.50000000E-01
  8.50000000E-01  8.50000000E-01  8.50000000E-01  8.50000000E-01  8.50000000E-01
  8.50000000E-01  8.50000000E-01  8.50000000E-01  8.50000000E-01  8.50000000E-01
  8.50000000E-01  8.50000000E-01  8.50000000E-01  8.50000000E-01  8.50000000E-01
  8.50000000E-01  8.50000000E-01  8.50000000E-01  8.50000000E-01  8.50000000E-01
  8.50000000E-01  8.50000000E-01  8.50000000E-01  8.50000000E-01  8.50000000E-01
  8.50000000E-01  8.50000000E-01  8.50000000E-01  8.50000000E-01  8.50000000E-01
  8.50000000E-01  8.50000000E-01  8.50000000E-01  8.50000000E-01  8.50000000E-01
  8.50000000E-01  8.50000000E-01  8.50000000E-01  8.50000000E-01  8.50000000E-01
  8.50000000E-01  8.50000000E-01  8.50000000E-01  8.50000000E-01  8.50000000E-01
  8.50000000E-01  8.50000000E-01  8.50000000E-01  8.50000000E-01  8.50000000E-01
  8.50000000E-01  8.50000000E-01  8.50000000E-01  8.50000000E-01  8.50000000E-01
  8.50000000E-01  8.50000000E-01  8.50000000E-01  8.50000000E-01  8.50000000E-01
  8.50000000E-01  8.50000000E-01  8.50000000E-01  8.50000000E-01  8.50000000E-01
  8.50000000E-01  8.50000000E-01  8.50000000E-01  8.50000000E-01  8.50000000E-01
  8.50000000E-01  8.50000000E-01  8.50000000E-01  8.50000000E-01  8.50000000E-01
  8.50000000E-01  8.50000000E-01  8.50000000E-01  8.50000000E-01  8.50000000E-01
  8.50000000E-01  8.50000000E-01  8.50000000E-01  8.50000000E-01  8.50000000E-01
  8.50000000E-01  8.50000000E-01  8.50000000E-01  8.50000000E-01  8.50000000E-01
  8.50000000E-01  8.50000000E-01  8.50000000E-01  8.50000000E-01  8.50000000E-01
  8.50000000E-01  8.50000000E-01  8.50000000E-01  8.50000000E-01  8.50000000E-01
  8.50000000E-01  8.50000000E-01  8.50000000E-01  8.50000000E-01  8.50000000E-01
  8.50000000E-01  8.50000000E-01  8.50000000E-01  8.50000000E-01  8.50000000E-01
  8.50000000E-01  8.50000000E-01  8.50000000E-01  8.50000000E-01  8.50000000E-01
  8.50000000E-01  8.50000000E-01  8.50000000E-01  8.50000000E-01  8.50000000E-01
  8.50000000E-01  8.50000000E-01  8.50000000E-01  8.50000000E-01  8.50000000E-01
  8.50000000E-01  8.50000000E-01  8.50000000E-01  8.50000000E-01  8.50000000E-01
  8.50000000E-01  8.50000000E-01  8.50000000E-01  8.50000000E-01  8.50000000E-01
  8.50000000E-01  8.50000000E-01  8.50000000E-01  8.50000000E-01  8.50000000E-01
  8.50000000E-01  8.50000000E-01  8.50000000E-01  8.50000000E-01  8.50000000E-01
  8.50000000E-01  8.50000000E-01  8.50000000E-01  8.50000000E-01  8.50000000E-01
  8.50000000E-01  8.50000000E-01  8.50000000E-01  8.50000000E-01  8.50000000E-01
  8.50000000E-01  8.50000000E-01  8.50000000E-01  8.50000000E-01  8.50000000E-01
  8.50000000E-01  8.50000000E-01  8.50000000E-01  8.50000000E-01  8.50000000E-01
  8.50000000E-01  8.50000000E-01  8.50000000E-01  8.50000000E-01  8.50000000E-01
  8.50000000E-01  8.50000000E-01  8.50000000E-01  8.50000000E-01  8.50000000E-01
  8.50000000E-01  8.50000000E-01  8.50000000E-01  8.50000000E-01  8.50000000E-01
  8.50000000E-01  8.50000000E-01  8.50000000E-01  8.50000000E-01  8.50000000E-01
  8.50000000E-01  8.50000000E-01  8.50000000E-01  8.50000000E-01  8.50000000E-01
  8.50000000E-01  8.50000000E-01  8.50000000E-01  8.50000000E-01  8.50000000E-01
  8.50000000E-01  8.50000000E-01  8.50000000E-01  8.50000000E-01  8.50000000E-01
  8.50000000E-01  8.50000000E-01  8.50000000E-01  8.50000000E-01  8.50000000E-01
  8.50000000E-01  8.50000000E-01  8.50000000E-01  8.50000000E-01  8.50000000E-01
  8.50000000E-01  8.50000000E-01  8.50000000E-01  8.50000000E-01  8.50000000E-01
  8.50000000E-01  8.50000000E-01  8.50000000E-01  8.50000000E-01  8.50000000E-01
  8.50000000E-01  8.50000000E-01  8.50000000E-01  8.50000000E-01  8.50000000E-01
  8.50000000E-01  8.50000000E-01  8.50000000E-01  8.50000000E-01  8.50000000E-01
  8.50000000E-01  8.50000000E-01  8.50000000E-01  8.50000000E-01  8.50000000E-01
  8.50000000E-01  8.50000000E-01  8.50000000E-01  8.50000000E-01  8.50000000E-01
  8.50000000E-01  8.50000000E-01  8.50000000E-01  8.50000000E-01  8.50000000E-01
  8.50000000E-01  8.50000000E-01  8.50000000E-01  8.50000000E-01  8.50000000E-01
  8.50000000E-01  8.50000000E-01  8.50000000E-01  8.50000000E-01  8.50000000E-01
  8.50000000E-01  8.50000000E-01  8.50000000E-01  8.50000000E-01  8.50000000E-01
  8.50000000E-01  8.50000000E-01  8.50000000E-01  8.50000000E-01  8.50000000E-01
  8.50000000E-01  8.50000000E-01  8.50000000E-01  8.50000000E-01  8.50000000E-01
  8.50000000E-01  8.50000000E-01  8.50000000E-01  8.50000000E-01  8.50000000E-01
  8.50000000E-01  8.50000000E-01  8.50000000E-01  8.50000000E-01  8.50000000E-01
  8.50000000E-01  8.50000000E-01  8.50000000E-01  8.50000000E-01  8.50000000E-01
  8.50000000E-01  8.50000000E-01  8.50000000E-01  8.50000000E-01  8.50000000E-01
  8.50000000E-01  8.50000000E-01  8.50000000E-01  8.50000000E-01  8.50000000E-01
  8.50000000E-01  8.50000000E-01  8.50000000E-01  8.50000000E-01  8.50000000E-01
  8.50000000E-01  8.50000000E-01  8.50000000E-01  8.50000000E-01  8.50000000E-01
  8.50000000E-01  8.50000000E-01  8.50000000E-01  8.50000000E-01  8.50000000E-01
  8.50000000E-01  8.50000000E-01  8.50000000E-01  8.50000000E-01  8.50000000E-01
  8.50000000E-01  8.50000000E-01  8.50000000E-01  8.50000000E-01  8.50000000E-01
  8.50000000E-01  8.50000000E-01  8.50000000E-01  8.50000000E-01  8.50000000E-01
  8.50000000E-01  8.50000000E-01  8.50000000E-01  8.50000000E-01  8.50000000E-01
  8.50000000E-01  8.50000000E-01  8.50000000E-01  8.50000000E-01  8.50000000E-01
  8.50000000E-01  8.50000000E-01  8.50000000E-01  8.50000000E-01  8.50000000E-01
  8.50000000E-01  8.50000000E-01  8.50000000E-01  8.50000000E-01  8.50000000E-01
  8.50000000E-01  8.50000000E-01  8.50000000E-01  8.50000000E-01  8.50000000E-01
  8.50000000E-01  8.50000000E-01  8.50000000E-01  8.50000000E-01  8.50000000E-01
  8.50000000E-01  8.50000000E-01  8.50000000E-01  8.50000000E-01  8.50000000E-01
  8.50000000E-01  8.50000000E-01  8.50000000E-01  8.50000000E-01  8.50000000E-01
  8.50000000E-01  8.50000000E-01  8.50000000E-01  8.50000000E-01  8.50000000E-01
  8.50000000E-01  8.50000000E-01  8.50000000E-01  8.50000000E-01  8.50000000E-01
  8.50000000E-01  8.50000000E-01  8.50000000E-01  8.50000000E-01  8.50000000E-01
  8.50000000E-01  8.50000000E-01  8.50000000E-01  8.50000000E-01  8.50000000E-01
  8.50000000E-01  8.50000000E-01  8.50000000E-01  8.50000000E-01  8.50000000E-01
  8.50000000E-01  8.50000000E-01  8.50000000E-01  8.50000000E-01  8.50000000E-01
  8.50000000E-01  8.50000000E-01  8.50000000E-01  8.50000000E-01  8.50000000E-01
  8.50000000E-01  8.50000000E-01  8.50000000E-01  8.50000000E-01  8.50000000E-01
  8.50000000E-01  8.50000000E-01  8.50000000E-01  8.50000000E-01  8.50000000E-01
  8.50000000E-01  8.50000000E-01  8.50000000E-01  8.50000000E-01  8.50000000E-01
  8.50000000E-01  8.50000000E-01  8.50000000E-01  8.50000000E-01  8.50000000E-01
  8.50000000E-01  8.50000000E-01  8.50000000E-01  8.50000000E-01  8.50000000E-01
  8.50000000E-01  8.50000000E-01  8.50000000E-01  8.50000000E-01  8.50000000E-01
  8.50000000E-01  8.50000000E-01  8.50000000E-01  8.50000000E-01  8.50000000E-01
  8.50000000E-01  8.50000000E-01  8.50000000E-01  8.50000000E-01  8.50000000E-01
  8.50000000E-01  8.50000000E-01  8.50000000E-01  8.50000000E-01  8.50000000E-01
  8.50000000E-01  8.50000000E-01  8.50000000E-01  8.50000000E-01  8.50000000E-01
  8.50000000E-01  8.50000000E-01  8.50000000E-01  8.50000000E-01  8.50000000E-01
  8.50000000E-01  8.50000000E-01  8.50000000E-01  8.50000000E-01  8.50000000E-01
  8.50000000E-01  8.50000000E-01  8.50000000E-01  8.50000000E-01  8.50000000E-01
  8.50000000E-01  8.50000000E-01  8.50000000E-01  8.50000000E-01  8.50000000E-01
  8.50000000E-01  8.50000000E-01  8.50000000E-01  8.50000000E-01  8.50000000E-01
  8.50000000E-01  8.50000000E-01  8.50000000E-01  8.50000000E-01  8.50000000E-01
  8.50000000E-01  8.50000000E-01  8.50000000E-01  8.50000000E-01  8.50000000E-01
  8.50000000E-01  8.50000000E-01  8.50000000E-01  8.50000000E-01  8.50000000E-01
  8.50000000E-01  8.50000000E-01  8.50000000E-01  8.50000000E-01  8.50000000E-01
  8.50000000E-01  8.50000000E-01  8.50000000E-01  8.50000000E-01  8.50000000E-01
  8.50000000E-01  8.50000000E-01  8.50000000E-01  8.50000000E-01  8.50000000E-01
  8.50000000E-01  8.50000000E-01  8.50000000E-01  8.50000000E-01  8.50000000E-01
  8.50000000E-01  8.50000000E-01  8.50000000E-01  8.50000000E-01  8.50000000E-01
  8.50000000E-01  8.50000000E-01  8.50000000E-01  8.50000000E-01  8.50000000E-01
  8.50000000E-01  8.50000000E-01  8.50000000E-01  8.50000000E-01  8.50000000E-01
  8.50000000E-01  8.50000000E-01  8.50000000E-01  8.50000000E-01  8.50000000E-01
  8.50000000E-01  8.50000000E-01  8.50000000E-01  8.50000000E-01  8.50000000E-01
  8.50000000E-01  8.50000000E-01  8.50000000E-01  8.50000000E-01  8.50000000E-01
  8.50000000E-01  8.50000000E-01  8.50000000E-01  8.50000000E-01  8.50000000E-01
  8.50000000E-01  8.50000000E-01  8.50000000E-01  8.50000000E-01  8.50000000E-01
  8.50000000E-01  8.50000000E-01  8.50000000E-01  8.50000000E-01  8.50000000E-01
  8.50000000E-01  8.50000000E-01  8.50000000E-01  8.50000000E-01  8.50000000E-01
  8.50000000E-01  8.50000000E-01  8.50000000E-01  8.50000000E-01  8.50000000E-01
  8.50000000E-01  8.50000000E-01  8.50000000E-01  8.50000000E-01  8.50000000E-01
  8.50000000E-01  8.50000000E-01  8.50000000E-01  8.50000000E-01  8.50000000E-01
  8.50000000E-01  8.50000000E-01  8.50000000E-01  8.50000000E-01  8.50000000E-01
  8.50000000E-01  8.50000000E-01  8.50000000E-01  8.50000000E-01  8.50000000E-01
  8.50000000E-01  8.50000000E-01  8.50000000E-01  8.50000000E-01  8.50000000E-01
  8.50000000E-01  8.50000000E-01  8.50000000E-01  8.50000000E-01  8.50000000E-01
  8.50000000E-01  8.50000000E-01  8.50000000E-01  8.50000000E-01  8.50000000E-01
  8.50000000E-01  8.50000000E-01  8.50000000E-01  8.50000000E-01  8.50000000E-01
  8.50000000E-01  8.50000000E-01  8.50000000E-01  8.50000000E-01  8.50000000E-01
  8.50000000E-01  8.50000000E-01  8.50000000E-01  8.50000000E-01  8.50000000E-01
  8.50000000E-01  8.50000000E-01  8.50000000E-01  8.50000000E-01  8.50000000E-01
  8.50000000E-01  8.50000000E-01  8.50000000E-01  8.50000000E-01  8.50000000E-01
  8.50000000E-01  8.50000000E-01  8.50000000E-01  8.50000000E-01  8.50000000E-01
  8.50000000E-01  8.50000000E-01  8.50000000E-01  8.50000000E-01  8.50000000E-01
  8.50000000E-01  8.50000000E-01  8.50000000E-01  8.50000000E-01  8.50000000E-01
  8.50000000E-01  8.50000000E-01  8.50000000E-01  8.50000000E-01  8.50000000E-01
  8.50000000E-01  8.50000000E-01  8.50000000E-01  8.50000000E-01  8.50000000E-01
  8.50000000E-01  8.50000000E-01  8.50000000E-01  8.50000000E-01  8.50000000E-01
  8.50000000E-01  8.50000000E-01  8.50000000E-01  8.50000000E-01  8.50000000E-01
  8.50000000E-01  8.50000000E-01  8.50000000E-01  8.50000000E-01  8.50000000E-01
  8.50000000E-01  8.50000000E-01  8.50000000E-01  8.50000000E-01  8.50000000E-01
  8.50000000E-01  8.50000000E-01  8.50000000E-01  8.50000000E-01  8.50000000E-01
  8.50000000E-01  8.50000000E-01  8.50000000E-01  8.50000000E-01  8.50000000E-01
  8.50000000E-01  8.50000000E-01  8.50000000E-01  8.50000000E-01  8.50000000E-01
  8.50000000E-01  8.50000000E-01  8.50000000E-01  8.50000000E-01  8.50000000E-01
  8.50000000E-01  8.50000000E-01  8.50000000E-01  8.50000000E-01  8.50000000E-01
  8.50000000E-01  8.50000000E-01  8.50000000E-01  8.50000000E-01  8.50000000E-01
  8.50000000E-01  8.50000000E-01  8.50000000E-01  8.50000000E-01  8.50000000E-01
  8.50000000E-01  8.50000000E-01  8.50000000E-01  8.50000000E-01  8.50000000E-01
  8.50000000E-01  8.50000000E-01  8.50000000E-01  8.50000000E-01  8.50000000E-01
  8.50000000E-01  8.50000000E-01  8.50000000E-01  8.50000000E-01  8.50000000E-01
  8.50000000E-01  8.50000000E-01  8.50000000E-01  8.50000000E-01  8.50000000E-01
  8.50000000E-01  8.50000000E-01  8.50000000E-01  8.50000000E-01  8.50000000E-01
  8.50000000E-01  8.50000000E-01  8.50000000E-01  8.50000000E-01  8.50000000E-01
  8.50000000E-01  8.50000000E-01  8.50000000E-01  8.50000000E-01  8.50000000E-01
  8.50000000E-01  8.50000000E-01  8.50000000E-01  8.50000000E-01  8.50000000E-01
  8.50000000E-01  8.50000000E-01  8.50000000E-01  8.50000000E-01  8.50000000E-01
  8.50000000E-01  8.50000000E-01  8.50000000E-01  8.50000000E-01  8.50000000E-01
  8.50000000E-01  8.50000000E-01  8.50000000E-01  8.50000000E-01  8.50000000E-01
  8.50000000E-01  8.50000000E-01  8.50000000E-01  8.50000000E-01  8.50000000E-01
  8.50000000E-01  8.50000000E-01  8.50000000E-01  8.50000000E-01  8.50000000E-01
  8.50000000E-01  8.50000000E-01  8.50000000E-01  8.50000000E-01  8.50000000E-01
  8.50000000E-01  8.50000000E-01  8.50000000E-01  8.50000000E-01  8.50000000E-01
  8.50000000E-01  8.50000000E-01  8.50000000E-01  8.50000000E-01  8.50000000E-01
  8.50000000E-01  8.50000000E-01  8.50000000E-01  8.50000000E-01  8.50000000E-01
  8.50000000E-01  8.50000000E-01  8.50000000E-01  8.50000000E-01  8.50000000E-01
  8.50000000E-01  8.50000000E-01  8.50000000E-01  8.50000000E-01  8.50000000E-01
  8.50000000E-01  8.50000000E-01  8.50000000E-01  8.50000000E-01  8.50000000E-01
  8.50000000E-01  8.50000000E-01  8.50000000E-01  8.50000000E-01  8.50000000E-01
  8.50000000E-01  8.50000000E-01  8.50000000E-01  8.50000000E-01  8.50000000E-01
  8.50000000E-01  8.50000000E-01  8.50000000E-01  8.50000000E-01  8.50000000E-01
  8.50000000E-01  8.50000000E-01  8.50000000E-01  8.50000000E-01  8.50000000E-01
  8.50000000E-01  8.50000000E-01  8.50000000E-01  8.50000000E-01  8.50000000E-01
  8.50000000E-01  8.50000000E-01  8.50000000E-01  8.50000000E-01  8.50000000E-01
  8.50000000E-01  8.50000000E-01  8.50000000E-01  8.50000000E-01  8.50000000E-01
  8.50000000E-01  8.50000000E-01  8.50000000E-01  8.50000000E-01  8.50000000E-01
  8.50000000E-01  8.50000000E-01  8.50000000E-01  8.50000000E-01  8.50000000E-01
  8.50000000E-01  8.50000000E-01  8.50000000E-01  8.50000000E-01  8.50000000E-01
  8.50000000E-01  8.50000000E-01  8.50000000E-01  8.50000000E-01  8.50000000E-01
  8.50000000E-01  8.50000000E-01  8.50000000E-01  8.50000000E-01  8.50000000E-01
  8.50000000E-01  8.50000000E-01  8.50000000E-01  8.50000000E-01  8.50000000E-01
  8.50000000E-01  8.50000000E-01  8.50000000E-01  8.50000000E-01  8.50000000E-01
  8.50000000E-01  8.50000000E-01  8.50000000E-01  8.50000000E-01  8.50000000E-01
  8.50000000E-01  8.50000000E-01  8.50000000E-01  8.50000000E-01  8.50000000E-01
  8.50000000E-01  8.50000000E-01  8.50000000E-01  8.50000000E-01  8.50000000E-01
  8.50000000E-01  8.50000000E-01  8.50000000E-01  8.50000000E-01  8.50000000E-01
  8.50000000E-01  8.50000000E-01  8.50000000E-01  8.50000000E-01  8.50000000E-01
  8.50000000E-01  8.50000000E-01  8.50000000E-01  8.50000000E-01  8.50000000E-01
  8.50000000E-01  8.50000000E-01  8.50000000E-01  8.50000000E-01  8.50000000E-01
  8.50000000E-01  8.50000000E-01  8.50000000E-01  8.50000000E-01  8.50000000E-01
  8.50000000E-01  8.50000000E-01  8.50000000E-01  8.50000000E-01  8.50000000E-01
  8.50000000E-01  8.50000000E-01  8.50000000E-01  8.50000000E-01  8.50000000E-01
  8.50000000E-01  8.50000000E-01  8.50000000E-01  8.50000000E-01  8.50000000E-01
  8.50000000E-01  8.50000000E-01  8.50000000E-01  8.50000000E-01  8.50000000E-01
  8.50000000E-01  8.50000000E-01  8.50000000E-01  8.50000000E-01  8.50000000E-01
  8.50000000E-01  8.50000000E-01  8.50000000E-01  8.50000000E-01  8.50000000E-01
  8.50000000E-01  8.50000000E-01  8.50000000E-01  8.50000000E-01  8.50000000E-01
  8.50000000E-01  8.50000000E-01  8.50000000E-01  8.50000000E-01  8.50000000E-01
  8.50000000E-01  8.50000000E-01  8.50000000E-01  8.50000000E-01  8.50000000E-01
  8.50000000E-01  8.50000000E-01  8.50000000E-01  8.50000000E-01  8.50000000E-01
  8.50000000E-01  8.50000000E-01  8.50000000E-01  8.50000000E-01  8.50000000E-01
  8.50000000E-01  8.50000000E-01  8.50000000E-01  8.50000000E-01  8.50000000E-01
  8.50000000E-01  8.50000000E-01  8.50000000E-01  8.50000000E-01  8.50000000E-01
  8.50000000E-01  8.50000000E-01  8.50000000E-01  8.50000000E-01  8.50000000E-01
  8.50000000E-01  8.50000000E-01  8.50000000E-01  8.50000000E-01  8.50000000E-01
  8.50000000E-01  8.50000000E-01  8.50000000E-01  8.50000000E-01  8.50000000E-01
  8.50000000E-01  8.50000000E-01  8.50000000E-01  8.50000000E-01  8.50000000E-01
  8.50000000E-01  8.50000000E-01  8.50000000E-01  8.50000000E-01  8.50000000E-01
  8.50000000E-01  8.50000000E-01  8.50000000E-01  8.50000000E-01  8.50000000E-01
  8.50000000E-01  8.50000000E-01  8.50000000E-01  8.50000000E-01  8.50000000E-01
  8.50000000E-01  8.50000000E-01  8.50000000E-01  8.50000000E-01  8.50000000E-01
  8.50000000E-01  8.50000000E-01  8.50000000E-01  8.50000000E-01  8.50000000E-01
  8.50000000E-01  8.50000000E-01  8.50000000E-01  8.50000000E-01  8.50000000E-01
  8.50000000E-01  8.50000000E-01  8.50000000E-01  8.50000000E-01  8.50000000E-01
  8.50000000E-01  8.50000000E-01  8.50000000E-01  8.50000000E-01  8.50000000E-01
  8.50000000E-01  8.50000000E-01  8.50000000E-01  8.50000000E-01  8.50000000E-01
  8.50000000E-01  8.50000000E-01  8.50000000E-01  8.50000000E-01  8.50000000E-01
  8.50000000E-01  8.50000000E-01  8.50000000E-01  8.50000000E-01  8.50000000E-01
  8.50000000E-01  8.50000000E-01  8.50000000E-01  8.50000000E-01  8.50000000E-01
  8.50000000E-01  8.50000000E-01  8.50000000E-01  8.50000000E-01  8.50000000E-01
  8.50000000E-01  8.50000000E-01  8.50000000E-01  8.50000000E-01  8.50000000E-01
  8.50000000E-01  8.50000000E-01  8.50000000E-01  8.50000000E-01  8.50000000E-01
  8.50000000E-01  8.50000000E-01  8.50000000E-01  8.50000000E-01  8.50000000E-01
  8.50000000E-01  8.50000000E-01  8.50000000E-01  8.50000000E-01  8.50000000E-01
  8.50000000E-01  8.50000000E-01  8.50000000E-01  8.50000000E-01  8.50000000E-01
  8.50000000E-01  8.50000000E-01  8.50000000E-01  8.50000000E-01  8.50000000E-01
  8.50000000E-01  8.50000000E-01  8.50000000E-01  8.50000000E-01  8.50000000E-01
  8.50000000E-01  8.50000000E-01  8.50000000E-01  8.50000000E-01  8.50000000E-01
  8.50000000E-01  8.50000000E-01  8.50000000E-01  8.50000000E-01  8.50000000E-01
  8.50000000E-01  8.50000000E-01  8.50000000E-01  8.50000000E-01  8.50000000E-01
  8.50000000E-01  8.50000000E-01  8.50000000E-01  8.50000000E-01  8.50000000E-01
  8.50000000E-01  8.50000000E-01  8.50000000E-01  8.50000000E-01  8.50000000E-01
  8.50000000E-01  8.50000000E-01  8.50000000E-01  8.50000000E-01  8.50000000E-01
  8.50000000E-01  8.50000000E-01  8.50000000E-01  8.50000000E-01  8.50000000E-01
  8.50000000E-01  8.50000000E-01  8.50000000E-01  8.50000000E-01  8.50000000E-01
  8.50000000E-01  8.50000000E-01  8.50000000E-01  8.50000000E-01  8.50000000E-01
  8.50000000E-01  8.50000000E-01  8.50000000E-01  8.50000000E-01  8.50000000E-01
  8.50000000E-01  8.50000000E-01  8.50000000E-01  8.50000000E-01  8.50000000E-01
  8.50000000E-01  8.50000000E-01  8.50000000E-01  8.50000000E-01  8.50000000E-01
  8.50000000E-01  8.50000000E-01  8.50000000E-01  8.50000000E-01  8.50000000E-01
  8.50000000E-01  8.50000000E-01  8.50000000E-01  8.50000000E-01  8.50000000E-01
  8.50000000E-01  8.50000000E-01  8.50000000E-01  8.50000000E-01  8.50000000E-01
  8.50000000E-01  8.50000000E-01  8.50000000E-01  8.50000000E-01  8.50000000E-01
  8.50000000E-01  8.50000000E-01  8.50000000E-01  8.50000000E-01  8.50000000E-01
  8.50000000E-01  8.50000000E-01  8.50000000E-01  8.50000000E-01  8.50000000E-01
  8.50000000E-01  8.50000000E-01  8.50000000E-01  8.50000000E-01  8.50000000E-01
  8.50000000E-01  8.50000000E-01  8.50000000E-01  8.50000000E-01  8.50000000E-01
  8.50000000E-01  8.50000000E-01  8.50000000E-01  8.50000000E-01  8.50000000E-01
  8.50000000E-01  8.50000000E-01  8.50000000E-01  8.50000000E-01  8.50000000E-01
  8.50000000E-01  8.50000000E-01  8.50000000E-01  8.50000000E-01  8.50000000E-01
  8.50000000E-01  8.50000000E-01  8.50000000E-01  8.50000000E-01  8.50000000E-01
  8.50000000E-01  8.50000000E-01  8.50000000E-01  8.50000000E-01  8.50000000E-01
  8.50000000E-01  8.50000000E-01  8.50000000E-01  8.50000000E-01  8.50000000E-01
  8.50000000E-01  8.50000000E-01  8.50000000E-01  8.50000000E-01  8.50000000E-01
  8.50000000E-01  8.50000000E-01  8.50000000E-01  8.50000000E-01  8.50000000E-01
  8.50000000E-01  8.50000000E-01  8.50000000E-01  8.50000000E-01  8.50000000E-01
  8.50000000E-01  8.50000000E-01  8.50000000E-01  8.50000000E-01  8.50000000E-01
  8.50000000E-01  8.50000000E-01  8.50000000E-01  8.50000000E-01  8.50000000E-01
  8.50000000E-01  8.50000000E-01  8.50000000E-01  8.50000000E-01  8.50000000E-01
  8.50000000E-01  8.50000000E-01  8.50000000E-01  8.50000000E-01  8.50000000E-01
  8.50000000E-01  8.50000000E-01  8.50000000E-01  8.50000000E-01  8.50000000E-01
  8.50000000E-01  8.50000000E-01  8.50000000E-01  8.50000000E-01  8.50000000E-01
  8.50000000E-01  8.50000000E-01  8.50000000E-01  8.50000000E-01  8.50000000E-01
  8.50000000E-01  8.50000000E-01  8.50000000E-01  8.50000000E-01  8.50000000E-01
  8.50000000E-01  8.50000000E-01  8.50000000E-01  8.50000000E-01  8.50000000E-01
  8.50000000E-01  8.50000000E-01  8.50000000E-01  8.50000000E-01  8.50000000E-01
  8.50000000E-01  8.50000000E-01  8.50000000E-01  8.50000000E-01  8.50000000E-01
  8.50000000E-01  8.50000000E-01  8.50000000E-01  8.50000000E-01  8.50000000E-01
  8.50000000E-01  8.50000000E-01  8.50000000E-01  8.50000000E-01  8.50000000E-01
  8.50000000E-01  8.50000000E-01  8.50000000E-01  8.50000000E-01  8.50000000E-01
  8.50000000E-01  8.50000000E-01  8.50000000E-01  8.50000000E-01  8.50000000E-01
  8.50000000E-01  8.50000000E-01  8.50000000E-01  8.50000000E-01  8.50000000E-01
  8.50000000E-01  8.50000000E-01  8.50000000E-01  8.50000000E-01  8.50000000E-01
  8.50000000E-01  8.50000000E-01  8.50000000E-01  8.50000000E-01  8.50000000E-01
  8.50000000E-01  8.50000000E-01  8.50000000E-01  8.50000000E-01  8.50000000E-01
  8.50000000E-01  8.50000000E-01  8.50000000E-01  8.50000000E-01  8.50000000E-01
  8.50000000E-01  8.50000000E-01  8.50000000E-01  8.50000000E-01  8.50000000E-01
  8.50000000E-01  8.50000000E-01  8.50000000E-01  8.50000000E-01  8.50000000E-01
  8.50000000E-01  8.50000000E-01  8.50000000E-01  8.50000000E-01  8.50000000E-01
  8.50000000E-01  8.50000000E-01  8.50000000E-01  8.50000000E-01  8.50000000E-01
  8.50000000E-01  8.50000000E-01  8.50000000E-01  8.50000000E-01  8.50000000E-01
  8.50000000E-01  8.50000000E-01  8.50000000E-01  8.50000000E-01  8.50000000E-01
  8.50000000E-01  8.50000000E-01  8.50000000E-01  8.50000000E-01  8.50000000E-01
  8.50000000E-01  8.50000000E-01  8.50000000E-01  8.50000000E-01  8.50000000E-01
  8.50000000E-01  8.50000000E-01  8.50000000E-01  8.50000000E-01  8.50000000E-01
  8.50000000E-01  8.50000000E-01  8.50000000E-01  8.50000000E-01  8.50000000E-01
  8.50000000E-01  8.50000000E-01  8.50000000E-01  8.50000000E-01  8.50000000E-01
  8.50000000E-01  8.50000000E-01  8.50000000E-01  8.50000000E-01  8.50000000E-01
  8.50000000E-01  8.50000000E-01  8.50000000E-01  8.50000000E-01  8.50000000E-01
  8.50000000E-01  8.50000000E-01  8.50000000E-01  8.50000000E-01  8.50000000E-01
  8.50000000E-01  8.50000000E-01  8.50000000E-01  8.50000000E-01  8.50000000E-01
  8.50000000E-01  8.50000000E-01  8.50000000E-01  8.50000000E-01  8.50000000E-01
  8.50000000E-01  8.50000000E-01  8.50000000E-01  8.50000000E-01  8.50000000E-01
  8.50000000E-01  8.50000000E-01  8.50000000E-01  8.50000000E-01  8.50000000E-01
  8.50000000E-01  8.50000000E-01  8.50000000E-01  8.50000000E-01  8.50000000E-01
  8.50000000E-01  8.50000000E-01  8.50000000E-01  8.50000000E-01  8.50000000E-01
  8.50000000E-01  8.50000000E-01  8.50000000E-01  8.50000000E-01  8.50000000E-01
  8.50000000E-01  8.50000000E-01  8.50000000E-01  8.50000000E-01  8.50000000E-01
  8.50000000E-01  8.50000000E-01  8.50000000E-01  8.50000000E-01  8.50000000E-01
  8.50000000E-01  8.50000000E-01  8.50000000E-01  8.50000000E-01  8.50000000E-01
  8.50000000E-01  8.50000000E-01  8.50000000E-01  8.50000000E-01  8.50000000E-01
  8.50000000E-01  8.50000000E-01  8.50000000E-01  8.50000000E-01  8.50000000E-01
  8.50000000E-01  8.50000000E-01  8.50000000E-01  8.50000000E-01  8.50000000E-01
  8.50000000E-01  8.50000000E-01  8.50000000E-01  8.50000000E-01  8.50000000E-01
  8.50000000E-01  8.50000000E-01  8.50000000E-01  8.50000000E-01  8.50000000E-01
  8.50000000E-01  8.50000000E-01  8.50000000E-01  8.50000000E-01  8.50000000E-01
  8.50000000E-01  8.50000000E-01  8.50000000E-01  8.50000000E-01  8.50000000E-01
  8.50000000E-01  8.50000000E-01  8.50000000E-01  8.50000000E-01  8.50000000E-01
  8.50000000E-01  8.50000000E-01  8.50000000E-01  8.50000000E-01  8.50000000E-01
  8.50000000E-01  8.50000000E-01  8.50000000E-01  8.50000000E-01  8.50000000E-01
  8.50000000E-01  8.50000000E-01  8.50000000E-01  8.50000000E-01  8.50000000E-01
  8.50000000E-01  8.50000000E-01  8.50000000E-01  8.50000000E-01  8.50000000E-01
  8.50000000E-01  8.50000000E-01  8.50000000E-01  8.50000000E-01  8.50000000E-01
  8.50000000E-01  8.50000000E-01  8.50000000E-01  8.50000000E-01  8.50000000E-01
  8.50000000E-01  8.50000000E-01  8.50000000E-01  8.50000000E-01  8.50000000E-01
  8.50000000E-01  8.50000000E-01  8.50000000E-01  8.50000000E-01  8.50000000E-01
  8.50000000E-01  8.50000000E-01  8.50000000E-01  8.50000000E-01  8.50000000E-01
  8.50000000E-01  8.50000000E-01  8.50000000E-01  8.50000000E-01  8.50000000E-01
  8.50000000E-01  8.50000000E-01  8.50000000E-01  8.50000000E-01  8.50000000E-01
  8.50000000E-01  8.50000000E-01  8.50000000E-01  8.50000000E-01  8.50000000E-01
  8.50000000E-01  8.50000000E-01  8.50000000E-01  8.50000000E-01  8.50000000E-01
  8.50000000E-01  8.50000000E-01  8.50000000E-01  8.50000000E-01  8.50000000E-01
  8.50000000E-01  8.50000000E-01  8.50000000E-01  8.50000000E-01  8.50000000E-01
  8.50000000E-01  8.50000000E-01  8.50000000E-01  8.50000000E-01  8.50000000E-01
  8.50000000E-01  8.50000000E-01  8.50000000E-01  8.50000000E-01  8.50000000E-01
  8.50000000E-01  8.50000000E-01  8.50000000E-01  8.50000000E-01  8.50000000E-01
  8.50000000E-01  8.50000000E-01  8.50000000E-01  8.50000000E-01  8.50000000E-01
  8.50000000E-01  8.50000000E-01  8.50000000E-01  8.50000000E-01  8.50000000E-01
  8.50000000E-01  8.50000000E-01  8.50000000E-01  8.50000000E-01  8.50000000E-01
  8.50000000E-01  8.50000000E-01  8.50000000E-01  8.50000000E-01  8.50000000E-01
  8.50000000E-01  8.50000000E-01  8.50000000E-01  8.50000000E-01  8.50000000E-01
  8.50000000E-01  8.50000000E-01  8.50000000E-01  8.50000000E-01  8.50000000E-01
  8.50000000E-01  8.50000000E-01  8.50000000E-01  8.50000000E-01  8.50000000E-01
  8.50000000E-01  8.50000000E-01  8.50000000E-01  8.50000000E-01  8.50000000E-01
  8.50000000E-01  8.50000000E-01  8.50000000E-01  8.50000000E-01  8.50000000E-01
  8.50000000E-01  8.50000000E-01  8.50000000E-01  8.50000000E-01  8.50000000E-01
  8.50000000E-01  8.50000000E-01  8.50000000E-01  8.50000000E-01  8.50000000E-01
  8.50000000E-01  8.50000000E-01  8.50000000E-01  8.50000000E-01  8.50000000E-01
  8.50000000E-01  8.50000000E-01  8.50000000E-01  8.50000000E-01  8.50000000E-01
  8.50000000E-01  8.50000000E-01  8.50000000E-01  8.50000000E-01  8.50000000E-01
  8.50000000E-01  8.50000000E-01  8.50000000E-01  8.50000000E-01  8.50000000E-01
  8.50000000E-01  8.50000000E-01  8.50000000E-01  8.50000000E-01  8.50000000E-01
  8.50000000E-01  8.50000000E-01  8.50000000E-01  8.50000000E-01  8.50000000E-01
  8.50000000E-01  8.50000000E-01  8.50000000E-01  8.50000000E-01  8.50000000E-01
  8.50000000E-01  8.50000000E-01  8.50000000E-01  8.50000000E-01  8.50000000E-01
  8.50000000E-01  8.50000000E-01  8.50000000E-01  8.50000000E-01  8.50000000E-01
  8.50000000E-01  8.50000000E-01  8.50000000E-01  8.50000000E-01  8.50000000E-01
  8.50000000E-01  8.50000000E-01  8.50000000E-01  8.50000000E-01  8.50000000E-01
  8.50000000E-01  8.50000000E-01  8.50000000E-01  8.50000000E-01  8.50000000E-01
  8.50000000E-01  8.50000000E-01  8.50000000E-01  8.50000000E-01  8.50000000E-01
  8.50000000E-01  8.50000000E-01  8.50000000E-01  8.50000000E-01  8.50000000E-01
  8.50000000E-01  8.50000000E-01  8.50000000E-01  8.50000000E-01  8.50000000E-01
  8.50000000E-01  8.50000000E-01  8.50000000E-01  8.50000000E-01  8.50000000E-01
  8.50000000E-01  8.50000000E-01  8.50000000E-01  8.50000000E-01  8.50000000E-01
  8.50000000E-01  8.50000000E-01  8.50000000E-01  8.50000000E-01  8.50000000E-01
  8.50000000E-01  8.50000000E-01  8.50000000E-01  8.50000000E-01  8.50000000E-01
  8.50000000E-01  8.50000000E-01  8.50000000E-01  8.50000000E-01  8.50000000E-01
  8.50000000E-01  8.50000000E-01  8.50000000E-01  8.50000000E-01  8.50000000E-01
  8.50000000E-01  8.50000000E-01  8.50000000E-01  8.50000000E-01  8.50000000E-01
  8.50000000E-01  8.50000000E-01  8.50000000E-01  8.50000000E-01  8.50000000E-01
  8.50000000E-01  8.50000000E-01  8.50000000E-01  8.50000000E-01  8.50000000E-01
  8.50000000E-01  8.50000000E-01  8.50000000E-01  8.50000000E-01  8.50000000E-01
  8.50000000E-01  8.50000000E-01  8.50000000E-01  8.50000000E-01  8.50000000E-01
  8.50000000E-01  8.50000000E-01  8.50000000E-01  8.50000000E-01  8.50000000E-01
  8.50000000E-01  8.50000000E-01  8.50000000E-01  8.50000000E-01  8.50000000E-01
  8.50000000E-01  8.50000000E-01  8.50000000E-01  8.50000000E-01  8.50000000E-01
  8.50000000E-01  8.50000000E-01  8.50000000E-01  8.50000000E-01  8.50000000E-01
  8.50000000E-01  8.50000000E-01  8.50000000E-01  8.50000000E-01  8.50000000E-01
  8.50000000E-01  8.50000000E-01  8.50000000E-01  8.50000000E-01  8.50000000E-01
  8.50000000E-01  8.50000000E-01  8.50000000E-01  8.50000000E-01  8.50000000E-01
  8.50000000E-01  8.50000000E-01  8.50000000E-01  8.50000000E-01  8.50000000E-01
  8.50000000E-01  8.50000000E-01  8.50000000E-01  8.50000000E-01  8.50000000E-01
  8.50000000E-01  8.50000000E-01  8.50000000E-01  8.50000000E-01  8.50000000E-01
  8.50000000E-01  8.50000000E-01  8.50000000E-01  8.50000000E-01  8.50000000E-01
  8.50000000E-01  8.50000000E-01  8.50000000E-01  8.50000000E-01  8.50000000E-01
  8.50000000E-01  8.50000000E-01  8.50000000E-01  8.50000000E-01  8.50000000E-01
  8.50000000E-01  8.50000000E-01  8.50000000E-01  8.50000000E-01  8.50000000E-01
  8.50000000E-01  8.50000000E-01  8.50000000E-01  8.50000000E-01  8.50000000E-01
  8.50000000E-01  8.50000000E-01  8.50000000E-01  8.50000000E-01  8.50000000E-01
  8.50000000E-01  8.50000000E-01  8.50000000E-01  8.50000000E-01  8.50000000E-01
  8.50000000E-01  8.50000000E-01  8.50000000E-01  8.50000000E-01  8.50000000E-01
  8.50000000E-01  8.50000000E-01  8.50000000E-01  8.50000000E-01  8.50000000E-01
  8.50000000E-01  8.50000000E-01  8.50000000E-01  8.50000000E-01  8.50000000E-01
  8.50000000E-01  8.50000000E-01  8.50000000E-01  8.50000000E-01  8.50000000E-01
  8.50000000E-01  8.50000000E-01  8.50000000E-01  8.50000000E-01  8.50000000E-01
  8.50000000E-01  8.50000000E-01  8.50000000E-01  8.50000000E-01  8.50000000E-01
  8.50000000E-01  8.50000000E-01  8.50000000E-01  8.50000000E-01  8.50000000E-01
  8.50000000E-01  8.50000000E-01  8.50000000E-01  8.50000000E-01  8.50000000E-01
  8.50000000E-01  8.50000000E-01  8.50000000E-01  8.50000000E-01  8.50000000E-01
  8.50000000E-01  8.50000000E-01  8.50000000E-01  8.50000000E-01  8.50000000E-01
  8.50000000E-01  8.50000000E-01  8.50000000E-01  8.50000000E-01  8.50000000E-01
  8.50000000E-01  8.50000000E-01  8.50000000E-01  8.50000000E-01  8.50000000E-01
  8.50000000E-01  8.50000000E-01  8.50000000E-01  8.50000000E-01  8.50000000E-01
  8.50000000E-01  8.50000000E-01  8.50000000E-01  8.50000000E-01  8.50000000E-01
  8.50000000E-01  8.50000000E-01  8.50000000E-01  8.50000000E-01  8.50000000E-01
  8.50000000E-01  8.50000000E-01  8.50000000E-01  8.50000000E-01  8.50000000E-01
  8.50000000E-01  8.50000000E-01  8.50000000E-01  8.50000000E-01  8.50000000E-01
  8.50000000E-01  8.50000000E-01  8.50000000E-01  8.50000000E-01  8.50000000E-01
  8.50000000E-01  8.50000000E-01  8.50000000E-01  8.50000000E-01  8.50000000E-01
  8.50000000E-01  8.50000000E-01  8.50000000E-01  8.50000000E-01  8.50000000E-01
  8.50000000E-01  8.50000000E-01  8.50000000E-01  8.50000000E-01  8.50000000E-01
  8.50000000E-01  8.50000000E-01  8.50000000E-01  8.50000000E-01  8.50000000E-01
  8.50000000E-01  8.50000000E-01  8.50000000E-01  8.50000000E-01  8.50000000E-01
  8.50000000E-01  8.50000000E-01  8.50000000E-01  8.50000000E-01  8.50000000E-01
  8.50000000E-01  8.50000000E-01  8.50000000E-01  8.50000000E-01  8.50000000E-01
  8.50000000E-01  8.50000000E-01  8.50000000E-01  8.50000000E-01  8.50000000E-01
  8.50000000E-01  8.50000000E-01  8.50000000E-01  8.50000000E-01  8.50000000E-01
  8.50000000E-01  8.50000000E-01  8.50000000E-01  8.50000000E-01  8.50000000E-01
  8.50000000E-01  8.50000000E-01  8.50000000E-01  8.50000000E-01  8.50000000E-01
  8.50000000E-01  8.50000000E-01  8.50000000E-01  8.50000000E-01  8.50000000E-01
  8.50000000E-01  8.50000000E-01  8.50000000E-01  8.50000000E-01  8.50000000E-01
  8.50000000E-01  8.50000000E-01  8.50000000E-01  8.50000000E-01  8.50000000E-01
  8.50000000E-01  8.50000000E-01  8.50000000E-01  8.50000000E-01  8.50000000E-01
  8.50000000E-01  8.50000000E-01  8.50000000E-01  8.50000000E-01  8.50000000E-01
  8.50000000E-01  8.50000000E-01  8.50000000E-01  8.50000000E-01  8.50000000E-01
  8.50000000E-01  8.50000000E-01  8.50000000E-01  8.50000000E-01  8.50000000E-01
  8.50000000E-01  8.50000000E-01  8.50000000E-01  8.50000000E-01  8.50000000E-01
  8.50000000E-01  8.50000000E-01  8.50000000E-01  8.50000000E-01  8.50000000E-01
  8.50000000E-01  8.50000000E-01  8.50000000E-01  8.50000000E-01  8.50000000E-01
  8.50000000E-01  8.50000000E-01  8.50000000E-01  8.50000000E-01  8.50000000E-01
  8.50000000E-01  8.50000000E-01  8.50000000E-01  8.50000000E-01  8.50000000E-01
  8.50000000E-01  8.50000000E-01  8.50000000E-01  8.50000000E-01  8.50000000E-01
  8.50000000E-01  8.50000000E-01  8.50000000E-01  8.50000000E-01  8.50000000E-01
  8.50000000E-01  8.50000000E-01  8.50000000E-01  8.50000000E-01  8.50000000E-01
  8.50000000E-01  8.50000000E-01  8.50000000E-01  8.50000000E-01  8.50000000E-01
  8.50000000E-01  8.50000000E-01  8.50000000E-01  8.50000000E-01  8.50000000E-01
  8.50000000E-01  8.50000000E-01  8.50000000E-01  8.50000000E-01  8.50000000E-01
  8.50000000E-01  8.50000000E-01  8.50000000E-01  8.50000000E-01  8.50000000E-01
  8.50000000E-01  8.50000000E-01  8.50000000E-01  8.50000000E-01  8.50000000E-01
  8.50000000E-01  8.50000000E-01  8.50000000E-01  8.50000000E-01  8.50000000E-01
  8.50000000E-01  8.50000000E-01  8.50000000E-01  8.50000000E-01  8.50000000E-01
  8.50000000E-01  8.50000000E-01  8.50000000E-01  8.50000000E-01  8.50000000E-01
  8.50000000E-01  8.50000000E-01  8.50000000E-01  8.50000000E-01  8.50000000E-01
  8.50000000E-01  8.50000000E-01  8.50000000E-01  8.50000000E-01  8.50000000E-01
  8.50000000E-01  8.50000000E-01  8.50000000E-01  8.50000000E-01  8.50000000E-01
  8.50000000E-01  8.50000000E-01  8.50000000E-01  8.50000000E-01  8.50000000E-01
  8.50000000E-01  8.50000000E-01  8.50000000E-01  8.50000000E-01  8.50000000E-01
  8.50000000E-01  8.50000000E-01  8.50000000E-01  8.50000000E-01  8.50000000E-01
  8.50000000E-01  8.50000000E-01  8.50000000E-01  8.50000000E-01  8.50000000E-01
  8.50000000E-01  8.50000000E-01  8.50000000E-01  8.50000000E-01  8.50000000E-01
  8.50000000E-01  8.50000000E-01  8.50000000E-01  8.50000000E-01  8.50000000E-01
  8.50000000E-01  8.50000000E-01  8.50000000E-01  8.50000000E-01  8.50000000E-01
  8.50000000E-01  8.50000000E-01  8.50000000E-01  8.50000000E-01  8.50000000E-01
  8.50000000E-01  8.50000000E-01  8.50000000E-01  8.50000000E-01  8.50000000E-01
  8.50000000E-01  8.50000000E-01  8.50000000E-01  8.50000000E-01  8.50000000E-01
  8.50000000E-01  8.50000000E-01  8.50000000E-01  8.50000000E-01  8.50000000E-01
  8.50000000E-01  8.50000000E-01  8.50000000E-01  8.50000000E-01  8.50000000E-01
  8.50000000E-01  8.50000000E-01  8.50000000E-01  8.50000000E-01  8.50000000E-01
  8.50000000E-01  8.50000000E-01  8.50000000E-01  8.50000000E-01  8.50000000E-01
  8.50000000E-01  8.50000000E-01  8.50000000E-01  8.50000000E-01  8.50000000E-01
  8.50000000E-01  8.50000000E-01  8.50000000E-01  8.50000000E-01  8.50000000E-01
  8.50000000E-01  8.50000000E-01  8.50000000E-01  8.50000000E-01  8.50000000E-01
  8.50000000E-01  8.50000000E-01  8.50000000E-01  8.50000000E-01  8.50000000E-01
  8.50000000E-01  8.50000000E-01  8.50000000E-01  8.50000000E-01  8.50000000E-01
  8.50000000E-01  8.50000000E-01  8.50000000E-01  8.50000000E-01  8.50000000E-01
  8.50000000E-01  8.50000000E-01  8.50000000E-01  8.50000000E-01  8.50000000E-01
  8.50000000E-01  8.50000000E-01  8.50000000E-01  8.50000000E-01  8.50000000E-01
  8.50000000E-01  8.50000000E-01  8.50000000E-01  8.50000000E-01  8.50000000E-01
  8.50000000E-01  8.50000000E-01  8.50000000E-01  8.50000000E-01  8.50000000E-01
  8.50000000E-01  8.50000000E-01  8.50000000E-01  8.50000000E-01  8.50000000E-01
  8.50000000E-01  8.50000000E-01  8.50000000E-01  8.50000000E-01  8.50000000E-01
  8.50000000E-01  8.50000000E-01  8.50000000E-01  8.50000000E-01  8.50000000E-01
  8.50000000E-01  8.50000000E-01  8.50000000E-01  8.50000000E-01  8.50000000E-01
  8.50000000E-01  8.50000000E-01  8.50000000E-01  8.50000000E-01  8.50000000E-01
  8.50000000E-01  8.50000000E-01  8.50000000E-01  8.50000000E-01  8.50000000E-01
  8.50000000E-01  8.50000000E-01  8.50000000E-01  8.50000000E-01  8.50000000E-01
  8.50000000E-01  8.50000000E-01  8.50000000E-01  8.50000000E-01  8.50000000E-01
  8.50000000E-01  8.50000000E-01  8.50000000E-01  8.50000000E-01  8.50000000E-01
  8.50000000E-01  8.50000000E-01  8.50000000E-01  8.50000000E-01  8.50000000E-01
  8.50000000E-01  8.50000000E-01  8.50000000E-01  8.50000000E-01  8.50000000E-01
  8.50000000E-01  8.50000000E-01  8.50000000E-01  8.50000000E-01  8.50000000E-01
  8.50000000E-01  8.50000000E-01  8.50000000E-01  8.50000000E-01  8.50000000E-01
  8.50000000E-01  8.50000000E-01  8.50000000E-01  8.50000000E-01  8.50000000E-01
  8.50000000E-01  8.50000000E-01  8.50000000E-01  8.50000000E-01  8.50000000E-01
  8.50000000E-01  8.50000000E-01  8.50000000E-01  8.50000000E-01  8.50000000E-01
  8.50000000E-01  8.50000000E-01  8.50000000E-01  8.50000000E-01  8.50000000E-01
  8.50000000E-01  8.50000000E-01  8.50000000E-01  8.50000000E-01  8.50000000E-01
  8.50000000E-01  8.50000000E-01  8.50000000E-01  8.50000000E-01  8.50000000E-01
  8.50000000E-01  8.50000000E-01  8.50000000E-01  8.50000000E-01  8.50000000E-01
  8.50000000E-01  8.50000000E-01  8.50000000E-01  8.50000000E-01  8.50000000E-01
  8.50000000E-01  8.50000000E-01  8.50000000E-01  8.50000000E-01  8.50000000E-01
  8.50000000E-01  8.50000000E-01  8.50000000E-01  8.50000000E-01  8.50000000E-01
  8.50000000E-01  8.50000000E-01  8.50000000E-01  8.50000000E-01  8.50000000E-01
  8.50000000E-01  8.50000000E-01  8.50000000E-01  8.50000000E-01  8.50000000E-01
  8.50000000E-01  8.50000000E-01  8.50000000E-01  8.50000000E-01  8.50000000E-01
  8.50000000E-01  8.50000000E-01  8.50000000E-01  8.50000000E-01  8.50000000E-01
  8.50000000E-01  8.50000000E-01  8.50000000E-01  8.50000000E-01  8.50000000E-01
  8.50000000E-01  8.50000000E-01  8.50000000E-01  8.50000000E-01  8.50000000E-01
  8.50000000E-01  8.50000000E-01  8.50000000E-01  8.50000000E-01  8.50000000E-01
  8.50000000E-01  8.50000000E-01  8.50000000E-01  8.50000000E-01  8.50000000E-01
  8.50000000E-01  8.50000000E-01  8.50000000E-01  8.50000000E-01  8.50000000E-01
  8.50000000E-01  8.50000000E-01  8.50000000E-01  8.50000000E-01  8.50000000E-01
  8.50000000E-01  8.50000000E-01  8.50000000E-01  8.50000000E-01  8.50000000E-01
  8.50000000E-01  8.50000000E-01  8.50000000E-01  8.50000000E-01  8.50000000E-01
  8.50000000E-01  8.50000000E-01  8.50000000E-01  8.50000000E-01  8.50000000E-01
  8.50000000E-01  8.50000000E-01  8.50000000E-01  8.50000000E-01  8.50000000E-01
  8.50000000E-01  8.50000000E-01  8.50000000E-01  8.50000000E-01  8.50000000E-01
  8.50000000E-01  8.50000000E-01  8.50000000E-01  8.50000000E-01  8.50000000E-01
  8.50000000E-01  8.50000000E-01  8.50000000E-01  8.50000000E-01  8.50000000E-01
  8.50000000E-01  8.50000000E-01  8.50000000E-01  8.50000000E-01  8.50000000E-01
  8.50000000E-01  8.50000000E-01  8.50000000E-01  8.50000000E-01  8.50000000E-01
  8.50000000E-01  8.50000000E-01  8.50000000E-01  8.50000000E-01  8.50000000E-01
  8.50000000E-01  8.50000000E-01  8.50000000E-01  8.50000000E-01  8.50000000E-01
  8.50000000E-01  8.50000000E-01  8.50000000E-01  8.50000000E-01  8.50000000E-01
  8.50000000E-01  8.50000000E-01  8.50000000E-01  8.50000000E-01  8.50000000E-01
  8.50000000E-01  8.50000000E-01  8.50000000E-01  8.50000000E-01  8.50000000E-01
  8.50000000E-01  8.50000000E-01  8.50000000E-01  8.50000000E-01  8.50000000E-01
  8.50000000E-01  8.50000000E-01  8.50000000E-01  8.50000000E-01  8.50000000E-01
  8.50000000E-01  8.50000000E-01  8.50000000E-01  8.50000000E-01  8.50000000E-01
  8.50000000E-01  8.50000000E-01  8.50000000E-01  8.50000000E-01  8.50000000E-01
  8.50000000E-01  8.50000000E-01  8.50000000E-01  8.50000000E-01  8.50000000E-01
  8.50000000E-01  8.50000000E-01  8.50000000E-01  8.50000000E-01  8.50000000E-01
  8.50000000E-01  8.50000000E-01  8.50000000E-01  8.50000000E-01  8.50000000E-01
  8.50000000E-01  8.50000000E-01  8.50000000E-01  8.50000000E-01  8.50000000E-01
  8.50000000E-01  8.50000000E-01  8.50000000E-01  8.50000000E-01  8.50000000E-01
  8.50000000E-01  8.50000000E-01  8.50000000E-01  8.50000000E-01  8.50000000E-01
  8.50000000E-01  8.50000000E-01  8.50000000E-01  8.50000000E-01  8.50000000E-01
  8.50000000E-01  8.50000000E-01  8.50000000E-01  8.50000000E-01  8.50000000E-01
  8.50000000E-01  8.50000000E-01  8.50000000E-01  8.50000000E-01  8.50000000E-01
  8.50000000E-01  8.50000000E-01  8.50000000E-01  8.50000000E-01  8.50000000E-01
  8.50000000E-01  8.50000000E-01  8.50000000E-01  8.50000000E-01  8.50000000E-01
  8.50000000E-01  8.50000000E-01  8.50000000E-01  8.50000000E-01  8.50000000E-01
  8.50000000E-01  8.50000000E-01  8.50000000E-01  8.50000000E-01  8.50000000E-01
  8.50000000E-01  8.50000000E-01  8.50000000E-01  8.50000000E-01  8.50000000E-01
  8.50000000E-01  8.50000000E-01  8.50000000E-01  8.50000000E-01  8.50000000E-01
  8.50000000E-01  8.50000000E-01  8.50000000E-01  8.50000000E-01  8.50000000E-01
  8.50000000E-01  8.50000000E-01  8.50000000E-01  8.50000000E-01  8.50000000E-01
  8.50000000E-01  8.50000000E-01  8.50000000E-01  8.50000000E-01  8.50000000E-01
  8.50000000E-01  8.50000000E-01  8.50000000E-01  8.50000000E-01  8.50000000E-01
  8.50000000E-01  8.50000000E-01  8.50000000E-01  8.50000000E-01  8.50000000E-01
  8.50000000E-01  8.50000000E-01  8.50000000E-01  8.50000000E-01  8.50000000E-01
  8.50000000E-01  8.50000000E-01  8.50000000E-01  8.50000000E-01  8.50000000E-01
  8.50000000E-01  8.50000000E-01  8.50000000E-01  8.50000000E-01  8.50000000E-01
  8.50000000E-01  8.50000000E-01  8.50000000E-01  8.50000000E-01  8.50000000E-01
  8.50000000E-01  8.50000000E-01  8.50000000E-01  8.50000000E-01  8.50000000E-01
  8.50000000E-01  8.50000000E-01  8.50000000E-01  8.50000000E-01  8.50000000E-01
  8.50000000E-01  8.50000000E-01  8.50000000E-01  8.50000000E-01  8.50000000E-01
  8.50000000E-01  8.50000000E-01  8.50000000E-01  8.50000000E-01  8.50000000E-01
  8.50000000E-01  8.50000000E-01  8.50000000E-01  8.50000000E-01  8.50000000E-01
  8.50000000E-01  8.50000000E-01  8.50000000E-01  8.50000000E-01  8.50000000E-01
  8.50000000E-01  8.50000000E-01  8.50000000E-01  8.50000000E-01  8.50000000E-01
  8.50000000E-01  8.50000000E-01  8.50000000E-01  8.50000000E-01  8.50000000E-01
  8.50000000E-01  8.50000000E-01  8.50000000E-01  8.50000000E-01  8.50000000E-01
  8.50000000E-01  8.50000000E-01  8.50000000E-01  8.50000000E-01  8.50000000E-01
  8.50000000E-01  8.50000000E-01  8.50000000E-01  8.50000000E-01  8.50000000E-01
  8.50000000E-01  8.50000000E-01  8.50000000E-01  8.50000000E-01  8.50000000E-01
  8.50000000E-01  8.50000000E-01  8.50000000E-01  8.50000000E-01  8.50000000E-01
  8.50000000E-01  8.50000000E-01  8.50000000E-01  8.50000000E-01  8.50000000E-01
  8.50000000E-01  8.50000000E-01  8.50000000E-01  8.50000000E-01  8.50000000E-01
  8.50000000E-01  8.50000000E-01  8.50000000E-01  8.50000000E-01  8.50000000E-01
  8.50000000E-01  8.50000000E-01  8.50000000E-01  8.50000000E-01  8.50000000E-01
  8.50000000E-01  8.50000000E-01  8.50000000E-01  8.50000000E-01  8.50000000E-01
  8.50000000E-01  8.50000000E-01  8.50000000E-01  8.50000000E-01  8.50000000E-01
  8.50000000E-01  8.50000000E-01  8.50000000E-01  8.50000000E-01  8.50000000E-01
  8.50000000E-01  8.50000000E-01  8.50000000E-01  8.50000000E-01  8.50000000E-01
  8.50000000E-01  8.50000000E-01  8.50000000E-01  8.50000000E-01  8.50000000E-01
  8.50000000E-01  8.50000000E-01  8.50000000E-01  8.50000000E-01  8.50000000E-01
  8.50000000E-01  8.50000000E-01  8.50000000E-01  8.50000000E-01  8.50000000E-01
  8.50000000E-01  8.50000000E-01  8.50000000E-01  8.50000000E-01  8.50000000E-01
  8.50000000E-01  8.50000000E-01  8.50000000E-01  8.50000000E-01  8.50000000E-01
  8.50000000E-01  8.50000000E-01  8.50000000E-01  8.50000000E-01  8.50000000E-01
  8.50000000E-01  8.50000000E-01  8.50000000E-01  8.50000000E-01  8.50000000E-01
  8.50000000E-01  8.50000000E-01  8.50000000E-01  8.50000000E-01  8.50000000E-01
  8.50000000E-01  8.50000000E-01  8.50000000E-01  8.50000000E-01  8.50000000E-01
  8.50000000E-01  8.50000000E-01  8.50000000E-01  8.50000000E-01  8.50000000E-01
  8.50000000E-01  8.50000000E-01  8.50000000E-01  8.50000000E-01  8.50000000E-01
  8.50000000E-01  8.50000000E-01  8.50000000E-01  8.50000000E-01  8.50000000E-01
  8.50000000E-01  8.50000000E-01  8.50000000E-01  8.50000000E-01  8.50000000E-01
  8.50000000E-01  8.50000000E-01  8.50000000E-01  8.50000000E-01  8.50000000E-01
  8.50000000E-01  8.50000000E-01  8.50000000E-01  8.50000000E-01  8.50000000E-01
  8.50000000E-01  8.50000000E-01  8.50000000E-01  8.50000000E-01  8.50000000E-01
  8.50000000E-01  8.50000000E-01  8.50000000E-01  8.50000000E-01  8.50000000E-01
  8.50000000E-01  8.50000000E-01  8.50000000E-01  8.50000000E-01  8.50000000E-01
  8.50000000E-01  8.50000000E-01  8.50000000E-01  8.50000000E-01  8.50000000E-01
  8.50000000E-01  8.50000000E-01  8.50000000E-01  8.50000000E-01  8.50000000E-01
  8.50000000E-01  8.50000000E-01  8.50000000E-01  8.50000000E-01  8.50000000E-01
  8.50000000E-01  8.50000000E-01  8.50000000E-01  8.50000000E-01  8.50000000E-01
  8.50000000E-01  8.50000000E-01  8.50000000E-01  8.50000000E-01  8.50000000E-01
  8.50000000E-01  8.50000000E-01  8.50000000E-01  8.50000000E-01  8.50000000E-01
  8.50000000E-01  8.50000000E-01  8.50000000E-01  8.50000000E-01  8.50000000E-01
  8.50000000E-01  8.50000000E-01  8.50000000E-01  8.50000000E-01  8.50000000E-01
  8.50000000E-01  8.50000000E-01  8.50000000E-01  8.50000000E-01  8.50000000E-01
  8.50000000E-01  8.50000000E-01  8.50000000E-01  8.50000000E-01  8.50000000E-01
  8.50000000E-01  8.50000000E-01  8.50000000E-01  8.50000000E-01  8.50000000E-01
  8.50000000E-01  8.50000000E-01  8.50000000E-01  8.50000000E-01  8.50000000E-01
  8.50000000E-01  8.50000000E-01  8.50000000E-01  8.50000000E-01  8.50000000E-01
  8.50000000E-01  8.50000000E-01  8.50000000E-01  8.50000000E-01  8.50000000E-01
  8.50000000E-01  8.50000000E-01  8.50000000E-01  8.50000000E-01  8.50000000E-01
  8.50000000E-01  8.50000000E-01  8.50000000E-01  8.50000000E-01  8.50000000E-01
  8.50000000E-01  8.50000000E-01  8.50000000E-01  8.50000000E-01  8.50000000E-01
  8.50000000E-01  8.50000000E-01  8.50000000E-01  8.50000000E-01  8.50000000E-01
  8.50000000E-01  8.50000000E-01  8.50000000E-01  8.50000000E-01  8.50000000E-01
  8.50000000E-01  8.50000000E-01  8.50000000E-01  8.50000000E-01  8.50000000E-01
  8.50000000E-01  8.50000000E-01  8.50000000E-01  8.50000000E-01  8.50000000E-01
  8.50000000E-01  8.50000000E-01  8.50000000E-01  8.50000000E-01  8.50000000E-01
  8.50000000E-01  8.50000000E-01  8.50000000E-01  8.50000000E-01  8.50000000E-01
  8.50000000E-01  8.50000000E-01  8.50000000E-01  8.50000000E-01  8.50000000E-01
  8.50000000E-01  8.50000000E-01  8.50000000E-01  8.50000000E-01  8.50000000E-01
  8.50000000E-01  8.50000000E-01  8.50000000E-01  8.50000000E-01  8.50000000E-01
  8.50000000E-01  8.50000000E-01  8.50000000E-01  8.50000000E-01  8.50000000E-01
  8.50000000E-01  8.50000000E-01  8.50000000E-01  8.50000000E-01  8.50000000E-01
  8.50000000E-01  8.50000000E-01  8.50000000E-01  8.50000000E-01  8.50000000E-01
  8.50000000E-01  8.50000000E-01  8.50000000E-01  8.50000000E-01  8.50000000E-01
  8.50000000E-01  8.50000000E-01  8.50000000E-01  8.50000000E-01  8.50000000E-01
  8.50000000E-01  8.50000000E-01  8.50000000E-01  8.50000000E-01  8.50000000E-01
  8.50000000E-01  8.50000000E-01  8.50000000E-01  8.50000000E-01  8.50000000E-01
  8.50000000E-01  8.50000000E-01  8.50000000E-01  8.50000000E-01  8.50000000E-01
  8.50000000E-01  8.50000000E-01  8.50000000E-01  8.50000000E-01  8.50000000E-01
  8.50000000E-01  8.50000000E-01  8.50000000E-01  8.50000000E-01  8.50000000E-01
  8.50000000E-01  8.50000000E-01  8.50000000E-01  8.50000000E-01  8.50000000E-01
  8.50000000E-01  8.50000000E-01  8.50000000E-01  8.50000000E-01  8.50000000E-01
  8.50000000E-01  8.50000000E-01  8.50000000E-01  8.50000000E-01  8.50000000E-01
  8.50000000E-01  8.50000000E-01  8.50000000E-01  8.50000000E-01  8.50000000E-01
  8.50000000E-01  8.50000000E-01  8.50000000E-01  8.50000000E-01  8.50000000E-01
  8.50000000E-01  8.50000000E-01  8.50000000E-01  8.50000000E-01  8.50000000E-01
  8.50000000E-01  8.50000000E-01  8.50000000E-01  8.50000000E-01  8.50000000E-01
  8.50000000E-01  8.50000000E-01  8.50000000E-01  8.50000000E-01  8.50000000E-01
  8.50000000E-01  8.50000000E-01  8.50000000E-01  8.50000000E-01  8.50000000E-01
  8.50000000E-01  8.50000000E-01  8.50000000E-01  8.50000000E-01  8.50000000E-01
  8.50000000E-01  8.50000000E-01  8.50000000E-01  8.50000000E-01  8.50000000E-01
  8.50000000E-01  8.50000000E-01  8.50000000E-01  8.50000000E-01  8.50000000E-01
  8.50000000E-01  8.50000000E-01  8.50000000E-01  8.50000000E-01  8.50000000E-01
  8.50000000E-01  8.50000000E-01  8.50000000E-01  8.50000000E-01  8.50000000E-01
  8.50000000E-01  8.50000000E-01  8.50000000E-01  8.50000000E-01  8.50000000E-01
  8.50000000E-01  8.50000000E-01  8.50000000E-01  8.50000000E-01  8.50000000E-01
  8.50000000E-01  8.50000000E-01  8.50000000E-01  8.50000000E-01  8.50000000E-01
  8.50000000E-01  8.50000000E-01  8.50000000E-01  8.50000000E-01  8.50000000E-01
  8.50000000E-01  8.50000000E-01  8.50000000E-01  8.50000000E-01  8.50000000E-01
  8.50000000E-01  8.50000000E-01  8.50000000E-01  8.50000000E-01  8.50000000E-01
  8.50000000E-01  8.50000000E-01  8.50000000E-01  8.50000000E-01  8.50000000E-01
  8.50000000E-01  8.50000000E-01  8.50000000E-01  8.50000000E-01  8.50000000E-01
  8.50000000E-01  8.50000000E-01  8.50000000E-01  8.50000000E-01  8.50000000E-01
  8.50000000E-01  8.50000000E-01  8.50000000E-01  8.50000000E-01  8.50000000E-01
  8.50000000E-01  8.50000000E-01  8.50000000E-01  8.50000000E-01  8.50000000E-01
  8.50000000E-01  8.50000000E-01  8.50000000E-01  8.50000000E-01  8.50000000E-01
  8.50000000E-01  8.50000000E-01  8.50000000E-01  8.50000000E-01  8.50000000E-01
  8.50000000E-01  8.50000000E-01  8.50000000E-01  8.50000000E-01  8.50000000E-01
  8.50000000E-01  8.50000000E-01  8.50000000E-01  8.50000000E-01  8.50000000E-01
  8.50000000E-01  8.50000000E-01  8.50000000E-01  8.50000000E-01  8.50000000E-01
  8.50000000E-01  8.50000000E-01  8.50000000E-01  8.50000000E-01  8.50000000E-01
  8.50000000E-01  8.50000000E-01  8.50000000E-01  8.50000000E-01  8.50000000E-01
  8.50000000E-01  8.50000000E-01  8.50000000E-01  8.50000000E-01  8.50000000E-01
  8.50000000E-01  8.50000000E-01  8.50000000E-01  8.50000000E-01  8.50000000E-01
  8.50000000E-01  8.50000000E-01  8.50000000E-01  8.50000000E-01  8.50000000E-01
  8.50000000E-01  8.50000000E-01  8.50000000E-01  8.50000000E-01  8.50000000E-01
  8.50000000E-01  8.50000000E-01  8.50000000E-01  8.50000000E-01  8.50000000E-01
  8.50000000E-01  8.50000000E-01  8.50000000E-01  8.50000000E-01  8.50000000E-01
  8.50000000E-01  8.50000000E-01  8.50000000E-01  8.50000000E-01  8.50000000E-01
  8.50000000E-01  8.50000000E-01  8.50000000E-01  8.50000000E-01  8.50000000E-01
  8.50000000E-01  8.50000000E-01  8.50000000E-01  8.50000000E-01  8.50000000E-01
  8.50000000E-01  8.50000000E-01  8.50000000E-01  8.50000000E-01  8.50000000E-01
  8.50000000E-01  8.50000000E-01  8.50000000E-01  8.50000000E-01  8.50000000E-01
  8.50000000E-01  8.50000000E-01  8.50000000E-01  8.50000000E-01  8.50000000E-01
  8.50000000E-01  8.50000000E-01  8.50000000E-01  8.50000000E-01  8.50000000E-01
  8.50000000E-01  8.50000000E-01  8.50000000E-01  8.50000000E-01  8.50000000E-01
  8.50000000E-01  8.50000000E-01  8.50000000E-01  8.50000000E-01  8.50000000E-01
  8.50000000E-01  8.50000000E-01  8.50000000E-01  8.50000000E-01  8.50000000E-01
  8.50000000E-01  8.50000000E-01  8.50000000E-01  8.50000000E-01  8.50000000E-01
  8.50000000E-01  8.50000000E-01  8.50000000E-01  8.50000000E-01  8.50000000E-01
  8.50000000E-01  8.50000000E-01  8.50000000E-01  8.50000000E-01  8.50000000E-01
  8.50000000E-01  8.50000000E-01  8.50000000E-01  8.50000000E-01  8.50000000E-01
  8.50000000E-01  8.50000000E-01  8.50000000E-01  8.50000000E-01  8.50000000E-01
  8.50000000E-01  8.50000000E-01  8.50000000E-01  8.50000000E-01  8.50000000E-01
  8.50000000E-01  8.50000000E-01  8.50000000E-01  8.50000000E-01  8.50000000E-01
  8.50000000E-01  8.50000000E-01  8.50000000E-01  8.50000000E-01  8.50000000E-01
  8.50000000E-01  8.50000000E-01  8.50000000E-01  8.50000000E-01  8.50000000E-01
  8.50000000E-01  8.50000000E-01  8.50000000E-01  8.50000000E-01  8.50000000E-01
  8.50000000E-01  8.50000000E-01  8.50000000E-01  8.50000000E-01  8.50000000E-01
  8.50000000E-01  8.50000000E-01  8.50000000E-01  8.50000000E-01  8.50000000E-01
  8.50000000E-01  8.50000000E-01  8.50000000E-01  8.50000000E-01  8.50000000E-01
  8.50000000E-01  8.50000000E-01  8.50000000E-01  8.50000000E-01  8.50000000E-01
  8.50000000E-01  8.50000000E-01  8.50000000E-01  8.50000000E-01  8.50000000E-01
  8.50000000E-01  8.50000000E-01  8.50000000E-01  8.50000000E-01  8.50000000E-01
  8.50000000E-01  8.50000000E-01  8.50000000E-01  8.50000000E-01  8.50000000E-01
  8.50000000E-01  8.50000000E-01  8.50000000E-01  8.50000000E-01  8.50000000E-01
  8.50000000E-01  8.50000000E-01  8.50000000E-01  8.50000000E-01  8.50000000E-01
  8.50000000E-01  8.50000000E-01  8.50000000E-01  8.50000000E-01  8.50000000E-01
  8.50000000E-01  8.50000000E-01  8.50000000E-01  8.50000000E-01  8.50000000E-01
  8.50000000E-01  8.50000000E-01  8.50000000E-01  8.50000000E-01  8.50000000E-01
  8.50000000E-01  8.50000000E-01  8.50000000E-01  8.50000000E-01  8.50000000E-01
  8.50000000E-01  8.50000000E-01  8.50000000E-01  8.50000000E-01  8.50000000E-01
  8.50000000E-01  8.50000000E-01  8.50000000E-01  8.50000000E-01  8.50000000E-01
  8.50000000E-01  8.50000000E-01  8.50000000E-01  8.50000000E-01  8.50000000E-01
  8.50000000E-01  8.50000000E-01  8.50000000E-01  8.50000000E-01  8.50000000E-01
  8.50000000E-01  8.50000000E-01  8.50000000E-01  8.50000000E-01  8.50000000E-01
  8.50000000E-01  8.50000000E-01  8.50000000E-01  8.50000000E-01  8.50000000E-01
  8.50000000E-01  8.50000000E-01  8.50000000E-01  8.50000000E-01  8.50000000E-01
  8.50000000E-01  8.50000000E-01  8.50000000E-01  8.50000000E-01  8.50000000E-01
  8.50000000E-01  8.50000000E-01  8.50000000E-01  8.50000000E-01  8.50000000E-01
  8.50000000E-01  8.50000000E-01  8.50000000E-01  8.50000000E-01  8.50000000E-01
  8.50000000E-01  8.50000000E-01  8.50000000E-01  8.50000000E-01  8.50000000E-01
  8.50000000E-01  8.50000000E-01  8.50000000E-01  8.50000000E-01  8.50000000E-01
  8.50000000E-01  8.50000000E-01  8.50000000E-01  8.50000000E-01  8.50000000E-01
  8.50000000E-01  8.50000000E-01  8.50000000E-01  8.50000000E-01  8.50000000E-01
  8.50000000E-01  8.50000000E-01  8.50000000E-01  8.50000000E-01  8.50000000E-01
  8.50000000E-01  8.50000000E-01  8.50000000E-01  8.50000000E-01  8.50000000E-01
  8.50000000E-01  8.50000000E-01  8.50000000E-01  8.50000000E-01  8.50000000E-01
  8.50000000E-01  8.50000000E-01  8.50000000E-01  8.50000000E-01  8.50000000E-01
  8.50000000E-01  8.50000000E-01  8.50000000E-01  8.50000000E-01  8.50000000E-01
  8.50000000E-01  8.50000000E-01  8.50000000E-01  8.50000000E-01  8.50000000E-01
  8.50000000E-01  8.50000000E-01  8.50000000E-01  8.50000000E-01  8.50000000E-01
  8.50000000E-01  8.50000000E-01  8.50000000E-01  8.50000000E-01  8.50000000E-01
  8.50000000E-01  8.50000000E-01  8.50000000E-01  8.50000000E-01  8.50000000E-01
  8.50000000E-01  8.50000000E-01  8.50000000E-01  8.50000000E-01  8.50000000E-01
  8.50000000E-01  8.50000000E-01  8.50000000E-01  8.50000000E-01  8.50000000E-01
  8.50000000E-01  8.50000000E-01  8.50000000E-01  8.50000000E-01  8.50000000E-01
  8.50000000E-01  8.50000000E-01  8.50000000E-01  8.50000000E-01  8.50000000E-01
  8.50000000E-01  8.50000000E-01  8.50000000E-01  8.50000000E-01  8.50000000E-01
  8.50000000E-01  8.50000000E-01  8.50000000E-01  8.50000000E-01  8.50000000E-01
  8.50000000E-01  8.50000000E-01  8.50000000E-01  8.50000000E-01  8.50000000E-01
  8.50000000E-01  8.50000000E-01  8.50000000E-01  8.50000000E-01  8.50000000E-01
  8.50000000E-01  8.50000000E-01  8.50000000E-01  8.50000000E-01  8.50000000E-01
  8.50000000E-01  8.50000000E-01  8.50000000E-01  8.50000000E-01  8.50000000E-01
  8.50000000E-01  8.50000000E-01  8.50000000E-01  8.50000000E-01  8.50000000E-01
  8.50000000E-01  8.50000000E-01  8.50000000E-01  8.50000000E-01  8.50000000E-01
  8.50000000E-01  8.50000000E-01  8.50000000E-01  8.50000000E-01  8.50000000E-01
  8.50000000E-01  8.50000000E-01  8.50000000E-01  8.50000000E-01  8.50000000E-01
  8.50000000E-01  8.50000000E-01  8.50000000E-01  8.50000000E-01  8.50000000E-01
  8.50000000E-01  8.50000000E-01  8.50000000E-01  8.50000000E-01  8.50000000E-01
  8.50000000E-01  8.50000000E-01  8.50000000E-01  8.50000000E-01  8.50000000E-01
  8.50000000E-01  8.50000000E-01  8.50000000E-01  8.50000000E-01  8.50000000E-01
  8.50000000E-01  8.50000000E-01  8.50000000E-01  8.50000000E-01  8.50000000E-01
  8.50000000E-01  8.50000000E-01  8.50000000E-01  8.50000000E-01  8.50000000E-01
  8.50000000E-01  8.50000000E-01  8.50000000E-01  8.50000000E-01  8.50000000E-01
  8.50000000E-01  8.50000000E-01  8.50000000E-01  8.50000000E-01  8.50000000E-01
  8.50000000E-01  8.50000000E-01  8.50000000E-01  8.50000000E-01  8.50000000E-01
  8.50000000E-01  8.50000000E-01  8.50000000E-01  8.50000000E-01  8.50000000E-01
  8.50000000E-01  8.50000000E-01  8.50000000E-01  8.50000000E-01  8.50000000E-01
  8.50000000E-01  8.50000000E-01  8.50000000E-01  8.50000000E-01  8.50000000E-01
  8.50000000E-01  8.50000000E-01  8.50000000E-01  8.50000000E-01  8.50000000E-01
  8.50000000E-01  8.50000000E-01  8.50000000E-01  8.50000000E-01  8.50000000E-01
  8.50000000E-01  8.50000000E-01  8.50000000E-01  8.50000000E-01  8.50000000E-01
  8.50000000E-01  8.50000000E-01  8.50000000E-01  8.50000000E-01  8.50000000E-01
  8.50000000E-01  8.50000000E-01  8.50000000E-01  8.50000000E-01  8.50000000E-01
  8.50000000E-01  8.50000000E-01  8.50000000E-01  8.50000000E-01  8.50000000E-01
  8.50000000E-01  8.50000000E-01  8.50000000E-01  8.50000000E-01  8.50000000E-01
  8.50000000E-01  8.50000000E-01  8.50000000E-01  8.50000000E-01  8.50000000E-01
  8.50000000E-01  8.50000000E-01  8.50000000E-01  8.50000000E-01  8.50000000E-01
  8.50000000E-01  8.50000000E-01  8.50000000E-01  8.50000000E-01  8.50000000E-01
  8.50000000E-01  8.50000000E-01  8.50000000E-01  8.50000000E-01  8.50000000E-01
  8.50000000E-01  8.50000000E-01  8.50000000E-01  8.50000000E-01  8.50000000E-01
  8.50000000E-01  8.50000000E-01  8.50000000E-01  8.50000000E-01  8.50000000E-01
  8.50000000E-01  8.50000000E-01  8.50000000E-01  8.50000000E-01  8.50000000E-01
  8.50000000E-01  8.50000000E-01  8.50000000E-01  8.50000000E-01  8.50000000E-01
  8.50000000E-01  8.50000000E-01  8.50000000E-01  8.50000000E-01  8.50000000E-01
  8.50000000E-01  8.50000000E-01  8.50000000E-01  8.50000000E-01  8.50000000E-01
  8.50000000E-01  8.50000000E-01  8.50000000E-01  8.50000000E-01  8.50000000E-01
  8.50000000E-01  8.50000000E-01  8.50000000E-01  8.50000000E-01  8.50000000E-01
  8.50000000E-01  8.50000000E-01  8.50000000E-01  8.50000000E-01  8.50000000E-01
  8.50000000E-01  8.50000000E-01  8.50000000E-01  8.50000000E-01  8.50000000E-01
  8.50000000E-01  8.50000000E-01  8.50000000E-01  8.50000000E-01  8.50000000E-01
  8.50000000E-01  8.50000000E-01  8.50000000E-01  8.50000000E-01  8.50000000E-01
  8.50000000E-01  8.50000000E-01  8.50000000E-01  8.50000000E-01  8.50000000E-01
  8.50000000E-01  8.50000000E-01  8.50000000E-01  8.50000000E-01  8.50000000E-01
  8.50000000E-01  8.50000000E-01  8.50000000E-01  8.50000000E-01  8.50000000E-01
  8.50000000E-01  8.50000000E-01  8.50000000E-01  8.50000000E-01  8.50000000E-01
  8.50000000E-01  8.50000000E-01  8.50000000E-01  8.50000000E-01  8.50000000E-01
  8.50000000E-01  8.50000000E-01  8.50000000E-01  8.50000000E-01  8.50000000E-01
  8.50000000E-01  8.50000000E-01  8.50000000E-01  8.50000000E-01  8.50000000E-01
  8.50000000E-01  8.50000000E-01  8.50000000E-01  8.50000000E-01  8.50000000E-01
  8.50000000E-01  8.50000000E-01  8.50000000E-01  8.50000000E-01  8.50000000E-01
  8.50000000E-01  8.50000000E-01  8.50000000E-01  8.50000000E-01  8.50000000E-01
  8.50000000E-01  8.50000000E-01  8.50000000E-01  8.50000000E-01  8.50000000E-01
  8.50000000E-01  8.50000000E-01  8.50000000E-01  8.50000000E-01  8.50000000E-01
  8.50000000E-01  8.50000000E-01  8.50000000E-01  8.50000000E-01  8.50000000E-01
  8.50000000E-01  8.50000000E-01  8.50000000E-01  8.50000000E-01  8.50000000E-01
  8.50000000E-01  8.50000000E-01  8.50000000E-01  8.50000000E-01  8.50000000E-01
  8.50000000E-01  8.50000000E-01  8.50000000E-01  8.50000000E-01  8.50000000E-01
  8.50000000E-01  8.50000000E-01  8.50000000E-01  8.50000000E-01  8.50000000E-01
  8.50000000E-01  8.50000000E-01  8.50000000E-01  8.50000000E-01  8.50000000E-01
  8.50000000E-01  8.50000000E-01  8.50000000E-01  8.50000000E-01  8.50000000E-01
  8.50000000E-01  8.50000000E-01  8.50000000E-01  8.50000000E-01  8.50000000E-01
  8.50000000E-01  8.50000000E-01  8.50000000E-01  8.50000000E-01  8.50000000E-01
  8.50000000E-01  8.50000000E-01  8.50000000E-01  8.50000000E-01  8.50000000E-01
  8.50000000E-01  8.50000000E-01  8.50000000E-01  8.50000000E-01  8.50000000E-01
  8.50000000E-01  8.50000000E-01  8.50000000E-01  8.50000000E-01  8.50000000E-01
  8.50000000E-01  8.50000000E-01  8.50000000E-01  8.50000000E-01  8.50000000E-01
  8.50000000E-01  8.50000000E-01  8.50000000E-01  8.50000000E-01  8.50000000E-01
  8.50000000E-01  8.50000000E-01  8.50000000E-01  8.50000000E-01  8.50000000E-01
  8.50000000E-01  8.50000000E-01  8.50000000E-01  8.50000000E-01  8.50000000E-01
  8.50000000E-01  8.50000000E-01  8.50000000E-01  8.50000000E-01  8.50000000E-01
  8.50000000E-01  8.50000000E-01  8.50000000E-01  8.50000000E-01  8.50000000E-01
  8.50000000E-01  8.50000000E-01  8.50000000E-01  8.50000000E-01  8.50000000E-01
  8.50000000E-01  8.50000000E-01  8.50000000E-01  8.50000000E-01  8.50000000E-01
  8.50000000E-01  8.50000000E-01  8.50000000E-01  8.50000000E-01  8.50000000E-01
  8.50000000E-01  8.50000000E-01  8.50000000E-01  8.50000000E-01  8.50000000E-01
  8.50000000E-01  8.50000000E-01  8.50000000E-01  8.50000000E-01  8.50000000E-01
  8.50000000E-01  8.50000000E-01  8.50000000E-01  8.50000000E-01  8.50000000E-01
  8.50000000E-01  8.50000000E-01  8.50000000E-01  8.50000000E-01  8.50000000E-01
  8.50000000E-01  8.50000000E-01  8.50000000E-01  8.50000000E-01  8.50000000E-01
  8.50000000E-01  8.50000000E-01  8.50000000E-01  8.50000000E-01  8.50000000E-01
  8.50000000E-01  8.50000000E-01  8.50000000E-01  8.50000000E-01  8.50000000E-01
  8.50000000E-01  8.50000000E-01  8.50000000E-01  8.50000000E-01  8.50000000E-01
  8.50000000E-01  8.50000000E-01  8.50000000E-01  8.50000000E-01  8.50000000E-01
  8.50000000E-01  8.50000000E-01  8.50000000E-01  8.50000000E-01  8.50000000E-01
  8.50000000E-01  8.50000000E-01  8.50000000E-01  8.50000000E-01  8.50000000E-01
  8.50000000E-01  8.50000000E-01  8.50000000E-01  8.50000000E-01  8.50000000E-01
  8.50000000E-01  8.50000000E-01  8.50000000E-01  8.50000000E-01  8.50000000E-01
  8.50000000E-01  8.50000000E-01  8.50000000E-01  8.50000000E-01  8.50000000E-01
  8.50000000E-01  8.50000000E-01  8.50000000E-01  8.50000000E-01  8.50000000E-01
  8.50000000E-01  8.50000000E-01  8.50000000E-01  8.50000000E-01  8.50000000E-01
  8.50000000E-01  8.50000000E-01  8.50000000E-01  8.50000000E-01  8.50000000E-01
  8.50000000E-01  8.50000000E-01  8.50000000E-01  8.50000000E-01  8.50000000E-01
  8.50000000E-01  8.50000000E-01  8.50000000E-01  8.50000000E-01  8.50000000E-01
  8.50000000E-01  8.50000000E-01  8.50000000E-01  8.50000000E-01  8.50000000E-01
  8.50000000E-01  8.50000000E-01  8.50000000E-01  8.50000000E-01  8.50000000E-01
  8.50000000E-01  8.50000000E-01  8.50000000E-01  8.50000000E-01  8.50000000E-01
  8.50000000E-01  8.50000000E-01  8.50000000E-01  8.50000000E-01  8.50000000E-01
  8.50000000E-01  8.50000000E-01  8.50000000E-01  8.50000000E-01  8.50000000E-01
  8.50000000E-01  8.50000000E-01  8.50000000E-01  8.50000000E-01  8.50000000E-01
  8.50000000E-01  8.50000000E-01  8.50000000E-01  8.50000000E-01  8.50000000E-01
  8.50000000E-01  8.50000000E-01  8.50000000E-01  8.50000000E-01  8.50000000E-01
  8.50000000E-01  8.50000000E-01  8.50000000E-01  8.50000000E-01  8.50000000E-01
  8.50000000E-01  8.50000000E-01  8.50000000E-01  8.50000000E-01  8.50000000E-01
  8.50000000E-01  8.50000000E-01  8.50000000E-01  8.50000000E-01  8.50000000E-01
  8.50000000E-01  8.50000000E-01  8.50000000E-01  8.50000000E-01  8.50000000E-01
  8.50000000E-01  8.50000000E-01  8.50000000E-01  8.50000000E-01  8.50000000E-01
  8.50000000E-01  8.50000000E-01  8.50000000E-01  8.50000000E-01  8.50000000E-01
  8.50000000E-01  8.50000000E-01  8.50000000E-01  8.50000000E-01  8.50000000E-01
  8.50000000E-01  8.50000000E-01  8.50000000E-01  8.50000000E-01  8.50000000E-01
  8.50000000E-01  8.50000000E-01  8.50000000E-01  8.50000000E-01  8.50000000E-01
  8.50000000E-01  8.50000000E-01  8.50000000E-01  8.50000000E-01  8.50000000E-01
  8.50000000E-01  8.50000000E-01  8.50000000E-01  8.50000000E-01  8.50000000E-01
  8.50000000E-01  8.50000000E-01  8.50000000E-01  8.50000000E-01  8.50000000E-01
  8.50000000E-01  8.50000000E-01  8.50000000E-01  8.50000000E-01  8.50000000E-01
  8.50000000E-01  8.50000000E-01  8.50000000E-01  8.50000000E-01  8.50000000E-01
  8.50000000E-01  8.50000000E-01  8.50000000E-01  8.50000000E-01  8.50000000E-01
  8.50000000E-01  8.50000000E-01  8.50000000E-01  8.50000000E-01  8.50000000E-01
  8.50000000E-01  8.50000000E-01  8.50000000E-01  8.50000000E-01  8.50000000E-01
  8.50000000E-01  8.50000000E-01  8.50000000E-01  8.50000000E-01  8.50000000E-01
  8.50000000E-01  8.50000000E-01  8.50000000E-01  8.50000000E-01  8.50000000E-01
  8.50000000E-01  8.50000000E-01  8.50000000E-01  8.50000000E-01  8.50000000E-01
  8.50000000E-01  8.50000000E-01  8.50000000E-01  8.50000000E-01  8.50000000E-01
  8.50000000E-01  8.50000000E-01  8.50000000E-01  8.50000000E-01  8.50000000E-01
  8.50000000E-01  8.50000000E-01  8.50000000E-01  8.50000000E-01  8.50000000E-01
  8.50000000E-01  8.50000000E-01  8.50000000E-01  8.50000000E-01  8.50000000E-01
  8.50000000E-01  8.50000000E-01  8.50000000E-01  8.50000000E-01  8.50000000E-01
  8.50000000E-01  8.50000000E-01  8.50000000E-01  8.50000000E-01  8.50000000E-01
  8.50000000E-01  8.50000000E-01  8.50000000E-01  8.50000000E-01  8.50000000E-01
  8.50000000E-01  8.50000000E-01  8.50000000E-01  8.50000000E-01  8.50000000E-01
  8.50000000E-01  8.50000000E-01  8.50000000E-01  8.50000000E-01  8.50000000E-01
  8.50000000E-01  8.50000000E-01  8.50000000E-01  8.50000000E-01  8.50000000E-01
  8.50000000E-01  8.50000000E-01  8.50000000E-01  8.50000000E-01  8.50000000E-01
  8.50000000E-01  8.50000000E-01  8.50000000E-01  8.50000000E-01  8.50000000E-01
  8.50000000E-01  8.50000000E-01  8.50000000E-01  8.50000000E-01  8.50000000E-01
  8.50000000E-01  8.50000000E-01  8.50000000E-01  8.50000000E-01  8.50000000E-01
  8.50000000E-01  8.50000000E-01  8.50000000E-01  8.50000000E-01  8.50000000E-01
  8.50000000E-01  8.50000000E-01  8.50000000E-01  8.50000000E-01  8.50000000E-01
  8.50000000E-01  8.50000000E-01  8.50000000E-01  8.50000000E-01  8.50000000E-01
  8.50000000E-01  8.50000000E-01  8.50000000E-01  8.50000000E-01  8.50000000E-01
  8.50000000E-01  8.50000000E-01  8.50000000E-01  8.50000000E-01  8.50000000E-01
  8.50000000E-01  8.50000000E-01  8.50000000E-01  8.50000000E-01  8.50000000E-01
  8.50000000E-01  8.50000000E-01  8.50000000E-01  8.50000000E-01  8.50000000E-01
  8.50000000E-01  8.50000000E-01  8.50000000E-01  8.50000000E-01  8.50000000E-01
  8.50000000E-01  8.50000000E-01  8.50000000E-01  8.50000000E-01  8.50000000E-01
  8.50000000E-01  8.50000000E-01  8.50000000E-01  8.50000000E-01  8.50000000E-01
  8.50000000E-01  8.50000000E-01  8.50000000E-01  8.50000000E-01  8.50000000E-01
  8.50000000E-01  8.50000000E-01  8.50000000E-01  8.50000000E-01  8.50000000E-01
  8.50000000E-01  8.50000000E-01  8.50000000E-01  8.50000000E-01  8.50000000E-01
  8.50000000E-01  8.50000000E-01  8.50000000E-01  8.50000000E-01  8.50000000E-01
  8.50000000E-01  8.50000000E-01  8.50000000E-01  8.50000000E-01  8.50000000E-01
  8.50000000E-01  8.50000000E-01  8.50000000E-01  8.50000000E-01  8.50000000E-01
  8.50000000E-01  8.50000000E-01  8.50000000E-01  8.50000000E-01  8.50000000E-01
  8.50000000E-01  8.50000000E-01  8.50000000E-01  8.50000000E-01  8.50000000E-01
  8.50000000E-01  8.50000000E-01  8.50000000E-01  8.50000000E-01  8.50000000E-01
  8.50000000E-01  8.50000000E-01  8.50000000E-01  8.50000000E-01  8.50000000E-01
  8.50000000E-01  8.50000000E-01  8.50000000E-01  8.50000000E-01  8.50000000E-01
  8.50000000E-01  8.50000000E-01  8.50000000E-01  8.50000000E-01  8.50000000E-01
  8.50000000E-01  8.50000000E-01  8.50000000E-01  8.50000000E-01  8.50000000E-01
  8.50000000E-01  8.50000000E-01  8.50000000E-01  8.50000000E-01  8.50000000E-01
  8.50000000E-01  8.50000000E-01  8.50000000E-01  8.50000000E-01  8.50000000E-01
  8.50000000E-01  8.50000000E-01  8.50000000E-01  8.50000000E-01  8.50000000E-01
  8.50000000E-01  8.50000000E-01  8.50000000E-01  8.50000000E-01  8.50000000E-01
  8.50000000E-01  8.50000000E-01  8.50000000E-01  8.50000000E-01  8.50000000E-01
  8.50000000E-01  8.50000000E-01  8.50000000E-01  8.50000000E-01  8.50000000E-01
  8.50000000E-01  8.50000000E-01  8.50000000E-01  8.50000000E-01  8.50000000E-01
  8.50000000E-01  8.50000000E-01  8.50000000E-01  8.50000000E-01  8.50000000E-01
  8.50000000E-01  8.50000000E-01  8.50000000E-01  8.50000000E-01  8.50000000E-01
  8.50000000E-01  8.50000000E-01  8.50000000E-01  8.50000000E-01  8.50000000E-01
  8.50000000E-01  8.50000000E-01  8.50000000E-01  8.50000000E-01  8.50000000E-01
  8.50000000E-01  8.50000000E-01  8.50000000E-01  8.50000000E-01  8.50000000E-01
  8.50000000E-01  8.50000000E-01  8.50000000E-01  8.50000000E-01  8.50000000E-01
  8.50000000E-01  8.50000000E-01  8.50000000E-01  8.50000000E-01  8.50000000E-01
  8.50000000E-01  8.50000000E-01  8.50000000E-01  8.50000000E-01  8.50000000E-01
  8.50000000E-01  8.50000000E-01  8.50000000E-01  8.50000000E-01  8.50000000E-01
  8.50000000E-01  8.50000000E-01  8.50000000E-01  8.50000000E-01  8.50000000E-01
  8.50000000E-01  8.50000000E-01  8.50000000E-01  8.50000000E-01  8.50000000E-01
  8.50000000E-01  8.50000000E-01  8.50000000E-01  8.50000000E-01  8.50000000E-01
  8.50000000E-01  8.50000000E-01  8.50000000E-01  8.50000000E-01  8.50000000E-01
  8.50000000E-01  8.50000000E-01  8.50000000E-01  8.50000000E-01  8.50000000E-01
  8.50000000E-01  8.50000000E-01  8.50000000E-01  8.50000000E-01  8.50000000E-01
  8.50000000E-01  8.50000000E-01  8.50000000E-01  8.50000000E-01  8.50000000E-01
  8.50000000E-01  8.50000000E-01  8.50000000E-01  8.50000000E-01  8.50000000E-01
  8.50000000E-01  8.50000000E-01  8.50000000E-01  8.50000000E-01  8.50000000E-01
  8.50000000E-01  8.50000000E-01  8.50000000E-01  8.50000000E-01  8.50000000E-01
  8.50000000E-01  8.50000000E-01  8.50000000E-01  8.50000000E-01  8.50000000E-01
  8.50000000E-01  8.50000000E-01  8.50000000E-01  8.50000000E-01  8.50000000E-01
  8.50000000E-01  8.50000000E-01  8.50000000E-01  8.50000000E-01  8.50000000E-01
  8.50000000E-01  8.50000000E-01  8.50000000E-01  8.50000000E-01  8.50000000E-01
  8.50000000E-01  8.50000000E-01  8.50000000E-01  8.50000000E-01  8.50000000E-01
  8.50000000E-01  8.50000000E-01  8.50000000E-01  8.50000000E-01  8.50000000E-01
  8.50000000E-01  8.50000000E-01  8.50000000E-01  8.50000000E-01  8.50000000E-01
  8.50000000E-01  8.50000000E-01  8.50000000E-01  8.50000000E-01  8.50000000E-01
  8.50000000E-01  8.50000000E-01  8.50000000E-01  8.50000000E-01  8.50000000E-01
  8.50000000E-01  8.50000000E-01  8.50000000E-01  8.50000000E-01  8.50000000E-01
  8.50000000E-01  8.50000000E-01  8.50000000E-01  8.50000000E-01  8.50000000E-01
  8.50000000E-01  8.50000000E-01  8.50000000E-01  8.50000000E-01  8.50000000E-01
  8.50000000E-01  8.50000000E-01  8.50000000E-01  8.50000000E-01  8.50000000E-01
  8.50000000E-01  8.50000000E-01  8.50000000E-01  8.50000000E-01  8.50000000E-01
  8.50000000E-01  8.50000000E-01  8.50000000E-01  8.50000000E-01  8.50000000E-01
  8.50000000E-01  8.50000000E-01  8.50000000E-01  8.50000000E-01  8.50000000E-01
  8.50000000E-01  8.50000000E-01  8.50000000E-01  8.50000000E-01  8.50000000E-01
  8.50000000E-01  8.50000000E-01  8.50000000E-01  8.50000000E-01  8.50000000E-01
  8.50000000E-01  8.50000000E-01  8.50000000E-01  8.50000000E-01  8.50000000E-01
  8.50000000E-01  8.50000000E-01  8.50000000E-01  8.50000000E-01  8.50000000E-01
  8.50000000E-01  8.50000000E-01  8.50000000E-01  8.50000000E-01  8.50000000E-01
  8.50000000E-01  8.50000000E-01  8.50000000E-01  8.50000000E-01  8.50000000E-01
  8.50000000E-01  8.50000000E-01  8.50000000E-01  8.50000000E-01  8.50000000E-01
  8.50000000E-01  8.50000000E-01  8.50000000E-01  8.50000000E-01  8.50000000E-01
  8.50000000E-01  8.50000000E-01  8.50000000E-01  8.50000000E-01  8.50000000E-01
  8.50000000E-01  8.50000000E-01  8.50000000E-01  8.50000000E-01  8.50000000E-01
  8.50000000E-01  8.50000000E-01  8.50000000E-01  8.50000000E-01  8.50000000E-01
  8.50000000E-01  8.50000000E-01  8.50000000E-01  8.50000000E-01  8.50000000E-01
  8.50000000E-01  8.50000000E-01  8.50000000E-01  8.50000000E-01  8.50000000E-01
  8.50000000E-01  8.50000000E-01  8.50000000E-01  8.50000000E-01  8.50000000E-01
  8.50000000E-01  8.50000000E-01  8.50000000E-01  8.50000000E-01  8.50000000E-01
  8.50000000E-01  8.50000000E-01  8.50000000E-01  8.50000000E-01  8.50000000E-01
  8.50000000E-01  8.50000000E-01  8.50000000E-01  8.50000000E-01  8.50000000E-01
  8.50000000E-01  8.50000000E-01  8.50000000E-01  8.50000000E-01  8.50000000E-01
  8.50000000E-01  8.50000000E-01  8.50000000E-01  8.50000000E-01  8.50000000E-01
  8.50000000E-01  8.50000000E-01  8.50000000E-01  8.50000000E-01  8.50000000E-01
  8.50000000E-01  8.50000000E-01  8.50000000E-01  8.50000000E-01  8.50000000E-01
  8.50000000E-01  8.50000000E-01  8.50000000E-01  8.50000000E-01  8.50000000E-01
  8.50000000E-01  8.50000000E-01  8.50000000E-01  8.50000000E-01  8.50000000E-01
  8.50000000E-01  8.50000000E-01  8.50000000E-01  8.50000000E-01  8.50000000E-01
  8.50000000E-01  8.50000000E-01  8.50000000E-01  8.50000000E-01  8.50000000E-01
  8.50000000E-01  8.50000000E-01  8.50000000E-01  8.50000000E-01  8.50000000E-01
  8.50000000E-01  8.50000000E-01  8.50000000E-01  8.50000000E-01  8.50000000E-01
  8.50000000E-01  8.50000000E-01  8.50000000E-01  8.50000000E-01  8.50000000E-01
  8.50000000E-01  8.50000000E-01  8.50000000E-01  8.50000000E-01  8.50000000E-01
  8.50000000E-01  8.50000000E-01  8.50000000E-01  8.50000000E-01  8.50000000E-01
  8.50000000E-01  8.50000000E-01  8.50000000E-01  8.50000000E-01  8.50000000E-01
  8.50000000E-01  8.50000000E-01  8.50000000E-01  8.50000000E-01  8.50000000E-01
  8.50000000E-01  8.50000000E-01  8.50000000E-01  8.50000000E-01  8.50000000E-01
  8.50000000E-01  8.50000000E-01  8.50000000E-01  8.50000000E-01  8.50000000E-01
  8.50000000E-01  8.50000000E-01  8.50000000E-01  8.50000000E-01  8.50000000E-01
  8.50000000E-01  8.50000000E-01  8.50000000E-01  8.50000000E-01  8.50000000E-01
  8.50000000E-01  8.50000000E-01  8.50000000E-01  8.50000000E-01  8.50000000E-01
  8.50000000E-01  8.50000000E-01  8.50000000E-01  8.50000000E-01  8.50000000E-01
  8.50000000E-01  8.50000000E-01  8.50000000E-01  8.50000000E-01  8.50000000E-01
  8.50000000E-01  8.50000000E-01  8.50000000E-01  8.50000000E-01  8.50000000E-01
  8.50000000E-01  8.50000000E-01  8.50000000E-01  8.50000000E-01  8.50000000E-01
  8.50000000E-01  8.50000000E-01  8.50000000E-01  8.50000000E-01  8.50000000E-01
  8.50000000E-01  8.50000000E-01  8.50000000E-01  8.50000000E-01  8.50000000E-01
  8.50000000E-01  8.50000000E-01  8.50000000E-01  8.50000000E-01  8.50000000E-01
  8.50000000E-01  8.50000000E-01  8.50000000E-01  8.50000000E-01  8.50000000E-01
  8.50000000E-01  8.50000000E-01  8.50000000E-01  8.50000000E-01  8.50000000E-01
  8.50000000E-01  8.50000000E-01  8.50000000E-01  8.50000000E-01  8.50000000E-01
  8.50000000E-01  8.50000000E-01  8.50000000E-01  8.50000000E-01  8.50000000E-01
  8.50000000E-01  8.50000000E-01  8.50000000E-01  8.50000000E-01  8.50000000E-01
  8.50000000E-01  8.50000000E-01  8.50000000E-01  8.50000000E-01  8.50000000E-01
  8.50000000E-01  8.50000000E-01  8.50000000E-01  8.50000000E-01  8.50000000E-01
  8.50000000E-01  8.50000000E-01  8.50000000E-01  8.50000000E-01  8.50000000E-01
  8.50000000E-01  8.50000000E-01  8.50000000E-01  8.50000000E-01  8.50000000E-01
  8.50000000E-01  8.50000000E-01  8.50000000E-01  8.50000000E-01  8.50000000E-01
  8.50000000E-01  8.50000000E-01  8.50000000E-01  8.50000000E-01  8.50000000E-01
  8.50000000E-01  8.50000000E-01  8.50000000E-01  8.50000000E-01  8.50000000E-01
  8.50000000E-01  8.50000000E-01  8.50000000E-01  8.50000000E-01  8.50000000E-01
  8.50000000E-01  8.50000000E-01  8.50000000E-01  8.50000000E-01  8.50000000E-01
  8.50000000E-01  8.50000000E-01  8.50000000E-01  8.50000000E-01  8.50000000E-01
  8.50000000E-01  8.50000000E-01  8.50000000E-01  8.50000000E-01  8.50000000E-01
  8.50000000E-01  8.50000000E-01  8.50000000E-01  8.50000000E-01  8.50000000E-01
  8.50000000E-01  8.50000000E-01  8.50000000E-01  8.50000000E-01  8.50000000E-01
  8.50000000E-01  8.50000000E-01  8.50000000E-01  8.50000000E-01  8.50000000E-01
  8.50000000E-01  8.50000000E-01  8.50000000E-01  8.50000000E-01  8.50000000E-01
  8.50000000E-01  8.50000000E-01  8.50000000E-01  8.50000000E-01  8.50000000E-01
  8.50000000E-01  8.50000000E-01  8.50000000E-01  8.50000000E-01  8.50000000E-01
  8.50000000E-01  8.50000000E-01  8.50000000E-01  8.50000000E-01  8.50000000E-01
  8.50000000E-01  8.50000000E-01  8.50000000E-01  8.50000000E-01  8.50000000E-01
  8.50000000E-01  8.50000000E-01  8.50000000E-01  8.50000000E-01  8.50000000E-01
  8.50000000E-01  8.50000000E-01  8.50000000E-01  8.50000000E-01  8.50000000E-01
  8.50000000E-01  8.50000000E-01  8.50000000E-01  8.50000000E-01  8.50000000E-01
  8.50000000E-01  8.50000000E-01  8.50000000E-01  8.50000000E-01  8.50000000E-01
  8.50000000E-01  8.50000000E-01  8.50000000E-01  8.50000000E-01  8.50000000E-01
  8.50000000E-01  8.50000000E-01  8.50000000E-01  8.50000000E-01  8.50000000E-01
  8.50000000E-01  8.50000000E-01  8.50000000E-01  8.50000000E-01  8.50000000E-01
  8.50000000E-01  8.50000000E-01  8.50000000E-01  8.50000000E-01  8.50000000E-01
  8.50000000E-01  8.50000000E-01  8.50000000E-01  8.50000000E-01  8.50000000E-01
  8.50000000E-01  8.50000000E-01  8.50000000E-01  8.50000000E-01  8.50000000E-01
  8.50000000E-01  8.50000000E-01  8.50000000E-01  8.50000000E-01  8.50000000E-01
  8.50000000E-01  8.50000000E-01  8.50000000E-01  8.50000000E-01  8.50000000E-01
  8.50000000E-01  8.50000000E-01  8.50000000E-01  8.50000000E-01  8.50000000E-01
  8.50000000E-01  8.50000000E-01  8.50000000E-01  8.50000000E-01  8.50000000E-01
  8.50000000E-01  8.50000000E-01  8.50000000E-01  8.50000000E-01  8.50000000E-01
  8.50000000E-01  8.50000000E-01  8.50000000E-01  8.50000000E-01  8.50000000E-01
  8.50000000E-01  8.50000000E-01  8.50000000E-01  8.50000000E-01  8.50000000E-01
  8.50000000E-01  8.50000000E-01  8.50000000E-01  8.50000000E-01  8.50000000E-01
  8.50000000E-01  8.50000000E-01  8.50000000E-01  8.50000000E-01  8.50000000E-01
  8.50000000E-01  8.50000000E-01  8.50000000E-01  8.50000000E-01  8.50000000E-01
  8.50000000E-01  8.50000000E-01  8.50000000E-01  8.50000000E-01  8.50000000E-01
  8.50000000E-01  8.50000000E-01  8.50000000E-01  8.50000000E-01  8.50000000E-01
  8.50000000E-01  8.50000000E-01  8.50000000E-01  8.50000000E-01  8.50000000E-01
  8.50000000E-01  8.50000000E-01  8.50000000E-01  8.50000000E-01  8.50000000E-01
  8.50000000E-01  8.50000000E-01  8.50000000E-01  8.50000000E-01  8.50000000E-01
  8.50000000E-01  8.50000000E-01  8.50000000E-01  8.50000000E-01  8.50000000E-01
  8.50000000E-01  8.50000000E-01  8.50000000E-01  8.50000000E-01  8.50000000E-01
  8.50000000E-01  8.50000000E-01  8.50000000E-01  8.50000000E-01  8.50000000E-01
  8.50000000E-01  8.50000000E-01  8.50000000E-01  8.50000000E-01  8.50000000E-01
  8.50000000E-01  8.50000000E-01  8.50000000E-01  8.50000000E-01  8.50000000E-01
  8.50000000E-01  8.50000000E-01  8.50000000E-01  8.50000000E-01  8.50000000E-01
  8.50000000E-01  8.50000000E-01  8.50000000E-01  8.50000000E-01  8.50000000E-01
  8.50000000E-01  8.50000000E-01  8.50000000E-01  8.50000000E-01  8.50000000E-01
  8.50000000E-01  8.50000000E-01  8.50000000E-01  8.50000000E-01  8.50000000E-01
  8.50000000E-01  8.50000000E-01  8.50000000E-01  8.50000000E-01  8.50000000E-01
  8.50000000E-01  8.50000000E-01  8.50000000E-01  8.50000000E-01  8.50000000E-01
  8.50000000E-01  8.50000000E-01  8.50000000E-01  8.50000000E-01  8.50000000E-01
  8.50000000E-01  8.50000000E-01  8.50000000E-01  8.50000000E-01  8.50000000E-01
  8.50000000E-01  8.50000000E-01  8.50000000E-01  8.50000000E-01  8.50000000E-01
  8.50000000E-01  8.50000000E-01  8.50000000E-01  8.50000000E-01  8.50000000E-01
  8.50000000E-01  8.50000000E-01  8.50000000E-01  8.50000000E-01  8.50000000E-01
  8.50000000E-01  8.50000000E-01  8.50000000E-01  8.50000000E-01  8.50000000E-01
  8.50000000E-01  8.50000000E-01  8.50000000E-01  8.50000000E-01  8.50000000E-01
  8.50000000E-01  8.50000000E-01  8.50000000E-01  8.50000000E-01  8.50000000E-01
  8.50000000E-01  8.50000000E-01  8.50000000E-01  8.50000000E-01  8.50000000E-01
  8.50000000E-01  8.50000000E-01  8.50000000E-01  8.50000000E-01  8.50000000E-01
  8.50000000E-01  8.50000000E-01  8.50000000E-01  8.50000000E-01  8.50000000E-01
  8.50000000E-01  8.50000000E-01  8.50000000E-01  8.50000000E-01  8.50000000E-01
  8.50000000E-01  8.50000000E-01  8.50000000E-01  8.50000000E-01  8.50000000E-01
  8.50000000E-01  8.50000000E-01  8.50000000E-01  8.50000000E-01  8.50000000E-01
  8.50000000E-01  8.50000000E-01  8.50000000E-01  8.50000000E-01  8.50000000E-01
  8.50000000E-01  8.50000000E-01  8.50000000E-01  8.50000000E-01  8.50000000E-01
  8.50000000E-01  8.50000000E-01  8.50000000E-01  8.50000000E-01  8.50000000E-01
  8.50000000E-01  8.50000000E-01  8.50000000E-01  8.50000000E-01  8.50000000E-01
  8.50000000E-01  8.50000000E-01  8.50000000E-01  8.50000000E-01  8.50000000E-01
  8.50000000E-01  8.50000000E-01  8.50000000E-01  8.50000000E-01  8.50000000E-01
  8.50000000E-01  8.50000000E-01  8.50000000E-01  8.50000000E-01  8.50000000E-01
  8.50000000E-01  8.50000000E-01  8.50000000E-01  8.50000000E-01  8.50000000E-01
  8.50000000E-01  8.50000000E-01  8.50000000E-01  8.50000000E-01  8.50000000E-01
  8.50000000E-01  8.50000000E-01  8.50000000E-01  8.50000000E-01  8.50000000E-01
  8.50000000E-01  8.50000000E-01  8.50000000E-01  8.50000000E-01  8.50000000E-01
  8.50000000E-01  8.50000000E-01  8.50000000E-01  8.50000000E-01  8.50000000E-01
  8.50000000E-01  8.50000000E-01  8.50000000E-01  8.50000000E-01  8.50000000E-01
  8.50000000E-01  8.50000000E-01  8.50000000E-01  8.50000000E-01  8.50000000E-01
  8.50000000E-01  8.50000000E-01  8.50000000E-01  8.50000000E-01  8.50000000E-01
  8.50000000E-01  8.50000000E-01  8.50000000E-01  8.50000000E-01  8.50000000E-01
  8.50000000E-01  8.50000000E-01  8.50000000E-01  8.50000000E-01  8.50000000E-01
  8.50000000E-01  8.50000000E-01  8.50000000E-01  8.50000000E-01  8.50000000E-01
  8.50000000E-01  8.50000000E-01  8.50000000E-01  8.50000000E-01  8.50000000E-01
  8.50000000E-01  8.50000000E-01  8.50000000E-01  8.50000000E-01  8.50000000E-01
  8.50000000E-01  8.50000000E-01  8.50000000E-01  8.50000000E-01  8.50000000E-01
  8.50000000E-01  8.50000000E-01  8.50000000E-01  8.50000000E-01  8.50000000E-01
  8.50000000E-01  8.50000000E-01  8.50000000E-01  8.50000000E-01  8.50000000E-01
  8.50000000E-01  8.50000000E-01  8.50000000E-01  8.50000000E-01  8.50000000E-01
  8.50000000E-01  8.50000000E-01  8.50000000E-01  8.50000000E-01  8.50000000E-01
  8.50000000E-01  8.50000000E-01  8.50000000E-01  8.50000000E-01  8.50000000E-01
  8.50000000E-01  8.50000000E-01  8.50000000E-01  8.50000000E-01  8.50000000E-01
  8.50000000E-01  8.50000000E-01  8.50000000E-01  8.50000000E-01  8.50000000E-01
  8.50000000E-01  8.50000000E-01  8.50000000E-01  8.50000000E-01  8.50000000E-01
  8.50000000E-01  8.50000000E-01  8.50000000E-01  8.50000000E-01  8.50000000E-01
  8.50000000E-01  8.50000000E-01  8.50000000E-01  8.50000000E-01  8.50000000E-01
  8.50000000E-01  8.50000000E-01  8.50000000E-01  8.50000000E-01  8.50000000E-01
  8.50000000E-01  8.50000000E-01  8.50000000E-01  8.50000000E-01  8.50000000E-01
  8.50000000E-01  8.50000000E-01  8.50000000E-01  8.50000000E-01  8.50000000E-01
  8.50000000E-01  8.50000000E-01  8.50000000E-01  8.50000000E-01  8.50000000E-01
  8.50000000E-01  8.50000000E-01  8.50000000E-01  8.50000000E-01  8.50000000E-01
  8.50000000E-01  8.50000000E-01  8.50000000E-01  8.50000000E-01  8.50000000E-01
  8.50000000E-01  8.50000000E-01  8.50000000E-01  8.50000000E-01  8.50000000E-01
  8.50000000E-01  8.50000000E-01  8.50000000E-01  8.50000000E-01  8.50000000E-01
  8.50000000E-01  8.50000000E-01  8.50000000E-01  8.50000000E-01  8.50000000E-01
  8.50000000E-01  8.50000000E-01  8.50000000E-01  8.50000000E-01  8.50000000E-01
  8.50000000E-01  8.50000000E-01  8.50000000E-01  8.50000000E-01  8.50000000E-01
  8.50000000E-01  8.50000000E-01  8.50000000E-01  8.50000000E-01  8.50000000E-01
  8.50000000E-01  8.50000000E-01  8.50000000E-01  8.50000000E-01  8.50000000E-01
  8.50000000E-01  8.50000000E-01  8.50000000E-01  8.50000000E-01  8.50000000E-01
  8.50000000E-01  8.50000000E-01  8.50000000E-01  8.50000000E-01  8.50000000E-01
  8.50000000E-01  8.50000000E-01  8.50000000E-01  8.50000000E-01  8.50000000E-01
  8.50000000E-01  8.50000000E-01  8.50000000E-01  8.50000000E-01  8.50000000E-01
  8.50000000E-01  8.50000000E-01  8.50000000E-01  8.50000000E-01  8.50000000E-01
  8.50000000E-01  8.50000000E-01  8.50000000E-01  8.50000000E-01  8.50000000E-01
  8.50000000E-01  8.50000000E-01  8.50000000E-01  8.50000000E-01  8.50000000E-01
  8.50000000E-01  8.50000000E-01  8.50000000E-01  8.50000000E-01  8.50000000E-01
  8.50000000E-01  8.50000000E-01  8.50000000E-01  8.50000000E-01  8.50000000E-01
  8.50000000E-01  8.50000000E-01  8.50000000E-01  8.50000000E-01  8.50000000E-01
  8.50000000E-01  8.50000000E-01  8.50000000E-01  8.50000000E-01  8.50000000E-01
  8.50000000E-01  8.50000000E-01  8.50000000E-01  8.50000000E-01  8.50000000E-01
  8.50000000E-01  8.50000000E-01  8.50000000E-01  8.50000000E-01  8.50000000E-01
  8.50000000E-01  8.50000000E-01  8.50000000E-01  8.50000000E-01  8.50000000E-01
  8.50000000E-01  8.50000000E-01  8.50000000E-01  8.50000000E-01  8.50000000E-01
  8.50000000E-01  8.50000000E-01  8.50000000E-01  8.50000000E-01  8.50000000E-01
  8.50000000E-01  8.50000000E-01  8.50000000E-01  8.50000000E-01  8.50000000E-01
  8.50000000E-01  8.50000000E-01  8.50000000E-01  8.50000000E-01  8.50000000E-01
  8.50000000E-01  8.50000000E-01  8.50000000E-01  8.50000000E-01  8.50000000E-01
  8.50000000E-01  8.50000000E-01  8.50000000E-01  8.50000000E-01  8.50000000E-01
  8.50000000E-01  8.50000000E-01  8.50000000E-01  8.50000000E-01  8.50000000E-01
  8.50000000E-01  8.50000000E-01  8.50000000E-01  8.50000000E-01  8.50000000E-01
  8.50000000E-01  8.50000000E-01  8.50000000E-01  8.50000000E-01  8.50000000E-01
  8.50000000E-01  8.50000000E-01  8.50000000E-01  8.50000000E-01  8.50000000E-01
  8.50000000E-01  8.50000000E-01  8.50000000E-01  8.50000000E-01  8.50000000E-01
  8.50000000E-01  8.50000000E-01  8.50000000E-01  8.50000000E-01  8.50000000E-01
  8.50000000E-01  8.50000000E-01  8.50000000E-01  8.50000000E-01  8.50000000E-01
  8.50000000E-01  8.50000000E-01  8.50000000E-01  8.50000000E-01  8.50000000E-01
  8.50000000E-01  8.50000000E-01  8.50000000E-01  8.50000000E-01  8.50000000E-01
  8.50000000E-01  8.50000000E-01  8.50000000E-01  8.50000000E-01  8.50000000E-01
  8.50000000E-01  8.50000000E-01  8.50000000E-01  8.50000000E-01  8.50000000E-01
  8.50000000E-01  8.50000000E-01  8.50000000E-01  8.50000000E-01  8.50000000E-01
  8.50000000E-01  8.50000000E-01  8.50000000E-01  8.50000000E-01  8.50000000E-01
  8.50000000E-01  8.50000000E-01  8.50000000E-01  8.50000000E-01  8.50000000E-01
  8.50000000E-01  8.50000000E-01  8.50000000E-01  8.50000000E-01  8.50000000E-01
  8.50000000E-01  8.50000000E-01  8.50000000E-01  8.50000000E-01  8.50000000E-01
  8.50000000E-01  8.50000000E-01  8.50000000E-01  8.50000000E-01  8.50000000E-01
  8.50000000E-01  8.50000000E-01  8.50000000E-01  8.50000000E-01  8.50000000E-01
  8.50000000E-01  8.50000000E-01  8.50000000E-01  8.50000000E-01  8.50000000E-01
  8.50000000E-01  8.50000000E-01  8.50000000E-01  8.50000000E-01  8.50000000E-01
  8.50000000E-01  8.50000000E-01  8.50000000E-01  8.50000000E-01  8.50000000E-01
  8.50000000E-01  8.50000000E-01  8.50000000E-01  8.50000000E-01  8.50000000E-01
  8.50000000E-01  8.50000000E-01  8.50000000E-01  8.50000000E-01  8.50000000E-01
  8.50000000E-01  8.50000000E-01  8.50000000E-01  8.50000000E-01  8.50000000E-01
  8.50000000E-01  8.50000000E-01  8.50000000E-01  8.50000000E-01  8.50000000E-01
  8.50000000E-01  8.50000000E-01  8.50000000E-01  8.50000000E-01  8.50000000E-01
  8.50000000E-01  8.50000000E-01  8.50000000E-01  8.50000000E-01  8.50000000E-01
  8.50000000E-01  8.50000000E-01  8.50000000E-01  8.50000000E-01  8.50000000E-01
  8.50000000E-01  8.50000000E-01  8.50000000E-01  8.50000000E-01  8.50000000E-01
  8.50000000E-01  8.50000000E-01  8.50000000E-01  8.50000000E-01  8.50000000E-01
  8.50000000E-01  8.50000000E-01  8.50000000E-01  8.50000000E-01  8.50000000E-01
  8.50000000E-01  8.50000000E-01  8.50000000E-01  8.50000000E-01  8.50000000E-01
  8.50000000E-01  8.50000000E-01  8.50000000E-01  8.50000000E-01  8.50000000E-01
  8.50000000E-01  8.50000000E-01  8.50000000E-01  8.50000000E-01  8.50000000E-01
  8.50000000E-01  8.50000000E-01  8.50000000E-01  8.50000000E-01  8.50000000E-01
  8.50000000E-01  8.50000000E-01  8.50000000E-01  8.50000000E-01  8.50000000E-01
  8.50000000E-01  8.50000000E-01  8.50000000E-01  8.50000000E-01  8.50000000E-01
  8.50000000E-01  8.50000000E-01  8.50000000E-01  8.50000000E-01  8.50000000E-01
  8.50000000E-01  8.50000000E-01  8.50000000E-01  8.50000000E-01  8.50000000E-01
  8.50000000E-01  8.50000000E-01  8.50000000E-01  8.50000000E-01  8.50000000E-01
  8.50000000E-01  8.50000000E-01  8.50000000E-01  8.50000000E-01  8.50000000E-01
  8.50000000E-01  8.50000000E-01  8.50000000E-01  8.50000000E-01  8.50000000E-01
  8.50000000E-01  8.50000000E-01  8.50000000E-01  8.50000000E-01  8.50000000E-01
  8.50000000E-01  8.50000000E-01  8.50000000E-01  8.50000000E-01  8.50000000E-01
  8.50000000E-01  8.50000000E-01  8.50000000E-01  8.50000000E-01  8.50000000E-01
  8.50000000E-01  8.50000000E-01  8.50000000E-01  8.50000000E-01  8.50000000E-01
  8.50000000E-01  8.50000000E-01  8.50000000E-01  8.50000000E-01  8.50000000E-01
  8.50000000E-01  8.50000000E-01  8.50000000E-01  8.50000000E-01  8.50000000E-01
  8.50000000E-01  8.50000000E-01  8.50000000E-01  8.50000000E-01  8.50000000E-01
  8.50000000E-01  8.50000000E-01  8.50000000E-01  8.50000000E-01  8.50000000E-01
  8.50000000E-01  8.50000000E-01  8.50000000E-01  8.50000000E-01  8.50000000E-01
  8.50000000E-01  8.50000000E-01  8.50000000E-01  8.50000000E-01  8.50000000E-01
  8.50000000E-01  8.50000000E-01  8.50000000E-01  8.50000000E-01  8.50000000E-01
  8.50000000E-01  8.50000000E-01  8.50000000E-01  8.50000000E-01  8.50000000E-01
  8.50000000E-01  8.50000000E-01  8.50000000E-01  8.50000000E-01  8.50000000E-01
  8.50000000E-01  8.50000000E-01  8.50000000E-01  8.50000000E-01  8.50000000E-01
  8.50000000E-01  8.50000000E-01  8.50000000E-01  8.50000000E-01  8.50000000E-01
  8.50000000E-01  8.50000000E-01  8.50000000E-01  8.50000000E-01  8.50000000E-01
  8.50000000E-01  8.50000000E-01  8.50000000E-01  8.50000000E-01  8.50000000E-01
  8.50000000E-01  8.50000000E-01  8.50000000E-01  8.50000000E-01  8.50000000E-01
  8.50000000E-01  8.50000000E-01  8.50000000E-01  8.50000000E-01  8.50000000E-01
  8.50000000E-01  8.50000000E-01  8.50000000E-01  8.50000000E-01  8.50000000E-01
  8.50000000E-01  8.50000000E-01  8.50000000E-01  8.50000000E-01  8.50000000E-01
  8.50000000E-01  8.50000000E-01  8.50000000E-01  8.50000000E-01  8.50000000E-01
  8.50000000E-01  8.50000000E-01  8.50000000E-01  8.50000000E-01  8.50000000E-01
  8.50000000E-01  8.50000000E-01  8.50000000E-01  8.50000000E-01  8.50000000E-01
  8.50000000E-01  8.50000000E-01  8.50000000E-01  8.50000000E-01  8.50000000E-01
  8.50000000E-01  8.50000000E-01  8.50000000E-01  8.50000000E-01  8.50000000E-01
  8.50000000E-01  8.50000000E-01  8.50000000E-01  8.50000000E-01  8.50000000E-01
  8.50000000E-01  8.50000000E-01  8.50000000E-01  8.50000000E-01  8.50000000E-01
  8.50000000E-01  8.50000000E-01  8.50000000E-01  8.50000000E-01  8.50000000E-01
  8.50000000E-01  8.50000000E-01  8.50000000E-01  8.50000000E-01  8.50000000E-01
  8.50000000E-01  8.50000000E-01  8.50000000E-01  8.50000000E-01  8.50000000E-01
  8.50000000E-01  8.50000000E-01  8.50000000E-01  8.50000000E-01  8.50000000E-01
  8.50000000E-01  8.50000000E-01  8.50000000E-01  8.50000000E-01  8.50000000E-01
  8.50000000E-01  8.50000000E-01  8.50000000E-01  8.50000000E-01  8.50000000E-01
  8.50000000E-01  8.50000000E-01  8.50000000E-01  8.50000000E-01  8.50000000E-01
  8.50000000E-01  8.50000000E-01  8.50000000E-01  8.50000000E-01  8.50000000E-01
  8.50000000E-01  8.50000000E-01  8.50000000E-01  8.50000000E-01  8.50000000E-01
  8.50000000E-01  8.50000000E-01  8.50000000E-01  8.50000000E-01  8.50000000E-01
  8.50000000E-01  8.50000000E-01  8.50000000E-01  8.50000000E-01  8.50000000E-01
  8.50000000E-01  8.50000000E-01  8.50000000E-01  8.50000000E-01  8.50000000E-01
  8.50000000E-01  8.50000000E-01  8.50000000E-01  8.50000000E-01  8.50000000E-01
  8.50000000E-01  8.50000000E-01  8.50000000E-01  8.50000000E-01  8.50000000E-01
  8.50000000E-01  8.50000000E-01  8.50000000E-01  8.50000000E-01  8.50000000E-01
  8.50000000E-01  8.50000000E-01  8.50000000E-01  8.50000000E-01  8.50000000E-01
  8.50000000E-01  8.50000000E-01  8.50000000E-01  8.50000000E-01  8.50000000E-01
  8.50000000E-01  8.50000000E-01  8.50000000E-01  8.50000000E-01  8.50000000E-01
  8.50000000E-01  8.50000000E-01  8.50000000E-01  8.50000000E-01  8.50000000E-01
  8.50000000E-01  8.50000000E-01  8.50000000E-01  8.50000000E-01  8.50000000E-01
  8.50000000E-01  8.50000000E-01  8.50000000E-01  8.50000000E-01  8.50000000E-01
  8.50000000E-01  8.50000000E-01  8.50000000E-01  8.50000000E-01  8.50000000E-01
  8.50000000E-01  8.50000000E-01  8.50000000E-01  8.50000000E-01  8.50000000E-01
  8.50000000E-01  8.50000000E-01  8.50000000E-01  8.50000000E-01  8.50000000E-01
  8.50000000E-01  8.50000000E-01  8.50000000E-01  8.50000000E-01  8.50000000E-01
  8.50000000E-01  8.50000000E-01  8.50000000E-01  8.50000000E-01  8.50000000E-01
  8.50000000E-01  8.50000000E-01  8.50000000E-01  8.50000000E-01  8.50000000E-01
  8.50000000E-01  8.50000000E-01  8.50000000E-01  8.50000000E-01  8.50000000E-01
  8.50000000E-01  8.50000000E-01  8.50000000E-01  8.50000000E-01  8.50000000E-01
  8.50000000E-01  8.50000000E-01  8.50000000E-01  8.50000000E-01  8.50000000E-01
  8.50000000E-01  8.50000000E-01  8.50000000E-01  8.50000000E-01  8.50000000E-01
  8.50000000E-01  8.50000000E-01  8.50000000E-01  8.50000000E-01  8.50000000E-01
  8.50000000E-01  8.50000000E-01  8.50000000E-01  8.50000000E-01  8.50000000E-01
  8.50000000E-01  8.50000000E-01  8.50000000E-01  8.50000000E-01  8.50000000E-01
  8.50000000E-01  8.50000000E-01  8.50000000E-01  8.50000000E-01  8.50000000E-01
  8.50000000E-01  8.50000000E-01  8.50000000E-01  8.50000000E-01  8.50000000E-01
  8.50000000E-01  8.50000000E-01  8.50000000E-01  8.50000000E-01  8.50000000E-01
  8.50000000E-01  8.50000000E-01  8.50000000E-01  8.50000000E-01  8.50000000E-01
  8.50000000E-01  8.50000000E-01  8.50000000E-01  8.50000000E-01  8.50000000E-01
  8.50000000E-01  8.50000000E-01  8.50000000E-01  8.50000000E-01  8.50000000E-01
  8.50000000E-01  8.50000000E-01  8.50000000E-01  8.50000000E-01  8.50000000E-01
  8.50000000E-01  8.50000000E-01  8.50000000E-01  8.50000000E-01  8.50000000E-01
  8.50000000E-01  8.50000000E-01  8.50000000E-01  8.50000000E-01  8.50000000E-01
  8.50000000E-01  8.50000000E-01  8.50000000E-01  8.50000000E-01  8.50000000E-01
  8.50000000E-01  8.50000000E-01  8.50000000E-01  8.50000000E-01  8.50000000E-01
  8.50000000E-01  8.50000000E-01  8.50000000E-01  8.50000000E-01  8.50000000E-01
  8.50000000E-01  8.50000000E-01  8.50000000E-01  8.50000000E-01  8.50000000E-01
  8.50000000E-01  8.50000000E-01  8.50000000E-01  8.50000000E-01  8.50000000E-01
  8.50000000E-01  8.50000000E-01  8.50000000E-01  8.50000000E-01  8.50000000E-01
  8.50000000E-01  8.50000000E-01  8.50000000E-01  8.50000000E-01  8.50000000E-01
  8.50000000E-01  8.50000000E-01  8.50000000E-01  8.50000000E-01  8.50000000E-01
  8.50000000E-01  8.50000000E-01  8.50000000E-01  8.50000000E-01  8.50000000E-01
  8.50000000E-01  8.50000000E-01  8.50000000E-01  8.50000000E-01  8.50000000E-01
  8.50000000E-01  8.50000000E-01  8.50000000E-01  8.50000000E-01  8.50000000E-01
  8.50000000E-01  8.50000000E-01  8.50000000E-01  8.50000000E-01  8.50000000E-01
  8.50000000E-01  8.50000000E-01  8.50000000E-01  8.50000000E-01  8.50000000E-01
  8.50000000E-01  8.50000000E-01  8.50000000E-01  8.50000000E-01  8.50000000E-01
  8.50000000E-01  8.50000000E-01  8.50000000E-01  8.50000000E-01  8.50000000E-01
  8.50000000E-01  8.50000000E-01  8.50000000E-01  8.50000000E-01  8.50000000E-01
  8.50000000E-01  8.50000000E-01  8.50000000E-01  8.50000000E-01  8.50000000E-01
  8.50000000E-01  8.50000000E-01  8.50000000E-01  8.50000000E-01  8.50000000E-01
  8.50000000E-01  8.50000000E-01  8.50000000E-01  8.50000000E-01  8.50000000E-01
  8.50000000E-01  8.50000000E-01  8.50000000E-01  8.50000000E-01  8.50000000E-01
  8.50000000E-01  8.50000000E-01  8.50000000E-01  8.50000000E-01  8.50000000E-01
  8.50000000E-01  8.50000000E-01  8.50000000E-01  8.50000000E-01  8.50000000E-01
  8.50000000E-01  8.50000000E-01  8.50000000E-01  8.50000000E-01  8.50000000E-01
  8.50000000E-01  8.50000000E-01  8.50000000E-01  8.50000000E-01  8.50000000E-01
  8.50000000E-01  8.50000000E-01  8.50000000E-01  8.50000000E-01  8.50000000E-01
  8.50000000E-01  8.50000000E-01  8.50000000E-01  8.50000000E-01  8.50000000E-01
  8.50000000E-01  8.50000000E-01  8.50000000E-01  8.50000000E-01  8.50000000E-01
  8.50000000E-01  8.50000000E-01  8.50000000E-01  8.50000000E-01  8.50000000E-01
  8.50000000E-01  8.50000000E-01  8.50000000E-01  8.50000000E-01  8.50000000E-01
  8.50000000E-01  8.50000000E-01  8.50000000E-01  8.50000000E-01  8.50000000E-01
  8.50000000E-01  8.50000000E-01  8.50000000E-01  8.50000000E-01  8.50000000E-01
  8.50000000E-01  8.50000000E-01  8.50000000E-01  8.50000000E-01  8.50000000E-01
  8.50000000E-01  8.50000000E-01  8.50000000E-01  8.50000000E-01  8.50000000E-01
  8.50000000E-01  8.50000000E-01  8.50000000E-01  8.50000000E-01  8.50000000E-01
  8.50000000E-01  8.50000000E-01  8.50000000E-01  8.50000000E-01  8.50000000E-01
  8.50000000E-01  8.50000000E-01  8.50000000E-01  8.50000000E-01  8.50000000E-01
  8.50000000E-01  8.50000000E-01  8.50000000E-01  8.50000000E-01  8.50000000E-01
  8.50000000E-01  8.50000000E-01  8.50000000E-01  8.50000000E-01  8.50000000E-01
  8.50000000E-01  8.50000000E-01  8.50000000E-01  8.50000000E-01  8.50000000E-01
  8.50000000E-01  8.50000000E-01  8.50000000E-01  8.50000000E-01  8.50000000E-01
  8.50000000E-01  8.50000000E-01  8.50000000E-01  8.50000000E-01  8.50000000E-01
  8.50000000E-01  8.50000000E-01  8.50000000E-01  8.50000000E-01  8.50000000E-01
  8.50000000E-01  8.50000000E-01  8.50000000E-01  8.50000000E-01  8.50000000E-01
  8.50000000E-01  8.50000000E-01  8.50000000E-01  8.50000000E-01  8.50000000E-01
  8.50000000E-01  8.50000000E-01  8.50000000E-01  8.50000000E-01  8.50000000E-01
  8.50000000E-01  8.50000000E-01  8.50000000E-01  8.50000000E-01  8.50000000E-01
  8.50000000E-01  8.50000000E-01  8.50000000E-01  8.50000000E-01  8.50000000E-01
  8.50000000E-01  8.50000000E-01  8.50000000E-01  8.50000000E-01  8.50000000E-01
  8.50000000E-01  8.50000000E-01  8.50000000E-01  8.50000000E-01  8.50000000E-01
  8.50000000E-01  8.50000000E-01  8.50000000E-01  8.50000000E-01  8.50000000E-01
  8.50000000E-01  8.50000000E-01  8.50000000E-01  8.50000000E-01  8.50000000E-01
  8.50000000E-01  8.50000000E-01  8.50000000E-01  8.50000000E-01  8.50000000E-01
  8.50000000E-01  8.50000000E-01  8.50000000E-01  8.50000000E-01  8.50000000E-01
  8.50000000E-01  8.50000000E-01  8.50000000E-01  8.50000000E-01  8.50000000E-01
  8.50000000E-01  8.50000000E-01  8.50000000E-01  8.50000000E-01  8.50000000E-01
  8.50000000E-01  8.50000000E-01  8.50000000E-01  8.50000000E-01  8.50000000E-01
  8.50000000E-01  8.50000000E-01  8.50000000E-01  8.50000000E-01  8.50000000E-01
  8.50000000E-01  8.50000000E-01  8.50000000E-01  8.50000000E-01  8.50000000E-01
  8.50000000E-01  8.50000000E-01  8.50000000E-01  8.50000000E-01  8.50000000E-01
  8.50000000E-01  8.50000000E-01  8.50000000E-01  8.50000000E-01  8.50000000E-01
  8.50000000E-01  8.50000000E-01  8.50000000E-01  8.50000000E-01  8.50000000E-01
  8.50000000E-01  8.50000000E-01  8.50000000E-01  8.50000000E-01  8.50000000E-01
  8.50000000E-01  8.50000000E-01  8.50000000E-01  8.50000000E-01  8.50000000E-01
  8.50000000E-01  8.50000000E-01  8.50000000E-01  8.50000000E-01  8.50000000E-01
  8.50000000E-01  8.50000000E-01  8.50000000E-01  8.50000000E-01  8.50000000E-01
  8.50000000E-01  8.50000000E-01  8.50000000E-01  8.50000000E-01  8.50000000E-01
  8.50000000E-01  8.50000000E-01  8.50000000E-01  8.50000000E-01  8.50000000E-01
  8.50000000E-01  8.50000000E-01  8.50000000E-01  8.50000000E-01  8.50000000E-01
  8.50000000E-01  8.50000000E-01  8.50000000E-01  8.50000000E-01  8.50000000E-01
  8.50000000E-01  8.50000000E-01  8.50000000E-01  8.50000000E-01  8.50000000E-01
  8.50000000E-01  8.50000000E-01  8.50000000E-01  8.50000000E-01  8.50000000E-01
  8.50000000E-01  8.50000000E-01  8.50000000E-01  8.50000000E-01  8.50000000E-01
  8.50000000E-01  8.50000000E-01  8.50000000E-01  8.50000000E-01  8.50000000E-01
  8.50000000E-01  8.50000000E-01  8.50000000E-01  8.50000000E-01  8.50000000E-01
  8.50000000E-01  8.50000000E-01  8.50000000E-01  8.50000000E-01  8.50000000E-01
  8.50000000E-01  8.50000000E-01  8.50000000E-01  8.50000000E-01  8.50000000E-01
  8.50000000E-01  8.50000000E-01  8.50000000E-01  8.50000000E-01  8.50000000E-01
  8.50000000E-01  8.50000000E-01  8.50000000E-01  8.50000000E-01  8.50000000E-01
  8.50000000E-01  8.50000000E-01  8.50000000E-01  8.50000000E-01  8.50000000E-01
  8.50000000E-01  8.50000000E-01  8.50000000E-01  8.50000000E-01  8.50000000E-01
  8.50000000E-01  8.50000000E-01  8.50000000E-01  8.50000000E-01  8.50000000E-01
  8.50000000E-01  8.50000000E-01  8.50000000E-01  8.50000000E-01  8.50000000E-01
  8.50000000E-01  8.50000000E-01  8.50000000E-01  8.50000000E-01  8.50000000E-01
  8.50000000E-01  8.50000000E-01  8.50000000E-01  8.50000000E-01  8.50000000E-01
  8.50000000E-01  8.50000000E-01  8.50000000E-01  8.50000000E-01  8.50000000E-01
  8.50000000E-01  8.50000000E-01  8.50000000E-01  8.50000000E-01  8.50000000E-01
  8.50000000E-01  8.50000000E-01  8.50000000E-01  8.50000000E-01  8.50000000E-01
  8.50000000E-01  8.50000000E-01  8.50000000E-01  8.50000000E-01  8.50000000E-01
  8.50000000E-01  8.50000000E-01  8.50000000E-01  8.50000000E-01  8.50000000E-01
  8.50000000E-01  8.50000000E-01  8.50000000E-01  8.50000000E-01  8.50000000E-01
  8.50000000E-01  8.50000000E-01  8.50000000E-01  8.50000000E-01  8.50000000E-01
  8.50000000E-01  8.50000000E-01  8.50000000E-01  8.50000000E-01  8.50000000E-01
  8.50000000E-01  8.50000000E-01  8.50000000E-01  8.50000000E-01  8.50000000E-01
  8.50000000E-01  8.50000000E-01  8.50000000E-01  8.50000000E-01  8.50000000E-01
  8.50000000E-01  8.50000000E-01  8.50000000E-01  8.50000000E-01  8.50000000E-01
  8.50000000E-01  8.50000000E-01  8.50000000E-01  8.50000000E-01  8.50000000E-01
  8.50000000E-01  8.50000000E-01  8.50000000E-01  8.50000000E-01  8.50000000E-01
  8.50000000E-01  8.50000000E-01  8.50000000E-01  8.50000000E-01  8.50000000E-01
  8.50000000E-01  8.50000000E-01  8.50000000E-01  8.50000000E-01  8.50000000E-01
  8.50000000E-01  8.50000000E-01  8.50000000E-01  8.50000000E-01  8.50000000E-01
  8.50000000E-01  8.50000000E-01  8.50000000E-01  8.50000000E-01  8.50000000E-01
  8.50000000E-01  8.50000000E-01  8.50000000E-01  8.50000000E-01  8.50000000E-01
  8.50000000E-01  8.50000000E-01  8.50000000E-01  8.50000000E-01  8.50000000E-01
  8.50000000E-01  8.50000000E-01  8.50000000E-01  8.50000000E-01  8.50000000E-01
  8.50000000E-01  8.50000000E-01  8.50000000E-01  8.50000000E-01  8.50000000E-01
  8.50000000E-01  8.50000000E-01  8.50000000E-01  8.50000000E-01  8.50000000E-01
  8.50000000E-01  8.50000000E-01  8.50000000E-01  8.50000000E-01  8.50000000E-01
  8.50000000E-01  8.50000000E-01  8.50000000E-01  8.50000000E-01  8.50000000E-01
  8.50000000E-01  8.50000000E-01  8.50000000E-01  8.50000000E-01  8.50000000E-01
  8.50000000E-01  8.50000000E-01  8.50000000E-01  8.50000000E-01  8.50000000E-01
  8.50000000E-01  8.50000000E-01  8.50000000E-01  8.50000000E-01  8.50000000E-01
  8.50000000E-01  8.50000000E-01  8.50000000E-01  8.50000000E-01  8.50000000E-01
  8.50000000E-01  8.50000000E-01  8.50000000E-01  8.50000000E-01  8.50000000E-01
  8.50000000E-01  8.50000000E-01  8.50000000E-01  8.50000000E-01  8.50000000E-01
  8.50000000E-01  8.50000000E-01  8.50000000E-01  8.50000000E-01  8.50000000E-01
  8.50000000E-01  8.50000000E-01  8.50000000E-01  8.50000000E-01  8.50000000E-01
  8.50000000E-01  8.50000000E-01  8.50000000E-01  8.50000000E-01  8.50000000E-01
  8.50000000E-01  8.50000000E-01  8.50000000E-01  8.50000000E-01  8.50000000E-01
  8.50000000E-01  8.50000000E-01  8.50000000E-01  8.50000000E-01  8.50000000E-01
  8.50000000E-01  8.50000000E-01  8.50000000E-01  8.50000000E-01  8.50000000E-01
  8.50000000E-01  8.50000000E-01  8.50000000E-01  8.50000000E-01  8.50000000E-01
  8.50000000E-01  8.50000000E-01  8.50000000E-01  8.50000000E-01  8.50000000E-01
  8.50000000E-01  8.50000000E-01  8.50000000E-01  8.50000000E-01  8.50000000E-01
  8.50000000E-01  8.50000000E-01  8.50000000E-01  8.50000000E-01  8.50000000E-01
  8.50000000E-01  8.50000000E-01  8.50000000E-01  8.50000000E-01  8.50000000E-01
  8.50000000E-01  8.50000000E-01  8.50000000E-01  8.50000000E-01  8.50000000E-01
  8.50000000E-01  8.50000000E-01  8.50000000E-01  8.50000000E-01  8.50000000E-01
  8.50000000E-01  8.50000000E-01  8.50000000E-01  8.50000000E-01  8.50000000E-01
  8.50000000E-01  8.50000000E-01  8.50000000E-01  8.50000000E-01  8.50000000E-01
  8.50000000E-01  8.50000000E-01  8.50000000E-01  8.50000000E-01  8.50000000E-01
  8.50000000E-01  8.50000000E-01  8.50000000E-01  8.50000000E-01  8.50000000E-01
  8.50000000E-01  8.50000000E-01  8.50000000E-01  8.50000000E-01  8.50000000E-01
  8.50000000E-01  8.50000000E-01  8.50000000E-01  8.50000000E-01  8.50000000E-01
  8.50000000E-01  8.50000000E-01  8.50000000E-01  8.50000000E-01  8.50000000E-01
  8.50000000E-01  8.50000000E-01  8.50000000E-01  8.50000000E-01  8.50000000E-01
  8.50000000E-01  8.50000000E-01  8.50000000E-01  8.50000000E-01  8.50000000E-01
  8.50000000E-01  8.50000000E-01  8.50000000E-01  8.50000000E-01  8.50000000E-01
  8.50000000E-01  8.50000000E-01  8.50000000E-01  8.50000000E-01  8.50000000E-01
  8.50000000E-01  8.50000000E-01  8.50000000E-01  8.50000000E-01  8.50000000E-01
  8.50000000E-01  8.50000000E-01  8.50000000E-01  8.50000000E-01  8.50000000E-01
  8.50000000E-01  8.50000000E-01  8.50000000E-01  8.50000000E-01  8.50000000E-01
  8.50000000E-01  8.50000000E-01  8.50000000E-01  8.50000000E-01  8.50000000E-01
  8.50000000E-01  8.50000000E-01  8.50000000E-01  8.50000000E-01  8.50000000E-01
  8.50000000E-01  8.50000000E-01  8.50000000E-01  8.50000000E-01  8.50000000E-01
  8.50000000E-01  8.50000000E-01  8.50000000E-01  8.50000000E-01  8.50000000E-01
  8.50000000E-01  8.50000000E-01  8.50000000E-01  8.50000000E-01  8.50000000E-01
  8.50000000E-01  8.50000000E-01  8.50000000E-01  8.50000000E-01  8.50000000E-01
  8.50000000E-01  8.50000000E-01  8.50000000E-01  8.50000000E-01  8.50000000E-01
  8.50000000E-01  8.50000000E-01  8.50000000E-01  8.50000000E-01  8.50000000E-01
  8.50000000E-01  8.50000000E-01  8.50000000E-01  8.50000000E-01  8.50000000E-01
  8.50000000E-01  8.50000000E-01  8.50000000E-01  8.50000000E-01  8.50000000E-01
  8.50000000E-01  8.50000000E-01  8.50000000E-01  8.50000000E-01  8.50000000E-01
  8.50000000E-01  8.50000000E-01  8.50000000E-01  8.50000000E-01  8.50000000E-01
  8.50000000E-01  8.50000000E-01  8.50000000E-01  8.50000000E-01  8.50000000E-01
  8.50000000E-01  8.50000000E-01  8.50000000E-01  8.50000000E-01  8.50000000E-01
  8.50000000E-01  8.50000000E-01  8.50000000E-01  8.50000000E-01  8.50000000E-01
  8.50000000E-01  8.50000000E-01  8.50000000E-01  8.50000000E-01  8.50000000E-01
  8.50000000E-01  8.50000000E-01  8.50000000E-01  8.50000000E-01  8.50000000E-01
  8.50000000E-01  8.50000000E-01  8.50000000E-01  8.50000000E-01  8.50000000E-01
  8.50000000E-01  8.50000000E-01  8.50000000E-01  8.50000000E-01  8.50000000E-01
  8.50000000E-01  8.50000000E-01  8.50000000E-01  8.50000000E-01  8.50000000E-01
  8.50000000E-01  8.50000000E-01  8.50000000E-01  8.50000000E-01  8.50000000E-01
  8.50000000E-01  8.50000000E-01  8.50000000E-01  8.50000000E-01  8.50000000E-01
  8.50000000E-01  8.50000000E-01  8.50000000E-01  8.50000000E-01  8.50000000E-01
  8.50000000E-01  8.50000000E-01  8.50000000E-01  8.50000000E-01  8.50000000E-01
  8.50000000E-01  8.50000000E-01  8.50000000E-01  8.50000000E-01  8.50000000E-01
  8.50000000E-01  8.50000000E-01  8.50000000E-01  8.50000000E-01  8.50000000E-01
  8.50000000E-01  8.50000000E-01  8.50000000E-01  8.50000000E-01  8.50000000E-01
  8.50000000E-01  8.50000000E-01  8.50000000E-01  8.50000000E-01  8.50000000E-01
  8.50000000E-01  8.50000000E-01  8.50000000E-01  8.50000000E-01  8.50000000E-01
  8.50000000E-01  8.50000000E-01  8.50000000E-01  8.50000000E-01  8.50000000E-01
  8.50000000E-01  8.50000000E-01  8.50000000E-01  8.50000000E-01  8.50000000E-01
  8.50000000E-01  8.50000000E-01  8.50000000E-01  8.50000000E-01  8.50000000E-01
  8.50000000E-01  8.50000000E-01  8.50000000E-01  8.50000000E-01  8.50000000E-01
  8.50000000E-01  8.50000000E-01  8.50000000E-01  8.50000000E-01  8.50000000E-01
  8.50000000E-01  8.50000000E-01  8.50000000E-01  8.50000000E-01  8.50000000E-01
  8.50000000E-01  8.50000000E-01  8.50000000E-01  8.50000000E-01  8.50000000E-01
  8.50000000E-01  8.50000000E-01  8.50000000E-01  8.50000000E-01  8.50000000E-01
  8.50000000E-01  8.50000000E-01  8.50000000E-01  8.50000000E-01  8.50000000E-01
  8.50000000E-01  8.50000000E-01  8.50000000E-01  8.50000000E-01  8.50000000E-01
  8.50000000E-01  8.50000000E-01  8.50000000E-01  8.50000000E-01  8.50000000E-01
  8.50000000E-01  8.50000000E-01  8.50000000E-01  8.50000000E-01  8.50000000E-01
  8.50000000E-01  8.50000000E-01  8.50000000E-01  8.50000000E-01  8.50000000E-01
  8.50000000E-01  8.50000000E-01  8.50000000E-01  8.50000000E-01  8.50000000E-01
  8.50000000E-01  8.50000000E-01  8.50000000E-01  8.50000000E-01  8.50000000E-01
  8.50000000E-01  8.50000000E-01  8.50000000E-01  8.50000000E-01  8.50000000E-01
  8.50000000E-01  8.50000000E-01  8.50000000E-01  8.50000000E-01  8.50000000E-01
  8.50000000E-01  8.50000000E-01  8.50000000E-01  8.50000000E-01  8.50000000E-01
  8.50000000E-01  8.50000000E-01  8.50000000E-01  8.50000000E-01  8.50000000E-01
  8.50000000E-01  8.50000000E-01  8.50000000E-01  8.50000000E-01  8.50000000E-01
  8.50000000E-01  8.50000000E-01  8.50000000E-01  8.50000000E-01  8.50000000E-01
  8.50000000E-01  8.50000000E-01  8.50000000E-01  8.50000000E-01  8.50000000E-01
  8.50000000E-01  8.50000000E-01  8.50000000E-01  8.50000000E-01  8.50000000E-01
  8.50000000E-01  8.50000000E-01  8.50000000E-01  8.50000000E-01  8.50000000E-01
  8.50000000E-01  8.50000000E-01  8.50000000E-01  8.50000000E-01  8.50000000E-01
  8.50000000E-01  8.50000000E-01  8.50000000E-01  8.50000000E-01  8.50000000E-01
  8.50000000E-01  8.50000000E-01  8.50000000E-01  8.50000000E-01  8.50000000E-01
  8.50000000E-01  8.50000000E-01  8.50000000E-01  8.50000000E-01  8.50000000E-01
  8.50000000E-01  8.50000000E-01  8.50000000E-01  8.50000000E-01  8.50000000E-01
  8.50000000E-01  8.50000000E-01  8.50000000E-01  8.50000000E-01  8.50000000E-01
  8.50000000E-01  8.50000000E-01  8.50000000E-01  8.50000000E-01  8.50000000E-01
  8.50000000E-01  8.50000000E-01  8.50000000E-01  8.50000000E-01  8.50000000E-01
  8.50000000E-01  8.50000000E-01  8.50000000E-01  8.50000000E-01  8.50000000E-01
  8.50000000E-01  8.50000000E-01  8.50000000E-01  8.50000000E-01  8.50000000E-01
  8.50000000E-01  8.50000000E-01  8.50000000E-01  8.50000000E-01  8.50000000E-01
  8.50000000E-01  8.50000000E-01  8.50000000E-01  8.50000000E-01  8.50000000E-01
  8.50000000E-01  8.50000000E-01  8.50000000E-01  8.50000000E-01  8.50000000E-01
  8.50000000E-01  8.50000000E-01  8.50000000E-01  8.50000000E-01  8.50000000E-01
  8.50000000E-01  8.50000000E-01  8.50000000E-01  8.50000000E-01  8.50000000E-01
  8.50000000E-01  8.50000000E-01  8.50000000E-01  8.50000000E-01  8.50000000E-01
  8.50000000E-01  8.50000000E-01  8.50000000E-01  8.50000000E-01  8.50000000E-01
  8.50000000E-01  8.50000000E-01  8.50000000E-01  8.50000000E-01  8.50000000E-01
  8.50000000E-01  8.50000000E-01  8.50000000E-01  8.50000000E-01  8.50000000E-01
  8.50000000E-01  8.50000000E-01  8.50000000E-01  8.50000000E-01  8.50000000E-01
  8.50000000E-01  8.50000000E-01  8.50000000E-01  8.50000000E-01  8.50000000E-01
  8.50000000E-01  8.50000000E-01  8.50000000E-01  8.50000000E-01  8.50000000E-01
  8.50000000E-01  8.50000000E-01  8.50000000E-01  8.50000000E-01  8.50000000E-01
  8.50000000E-01  8.50000000E-01  8.50000000E-01  8.50000000E-01  8.50000000E-01
  8.50000000E-01  8.50000000E-01  8.50000000E-01  8.50000000E-01  8.50000000E-01
  8.50000000E-01  8.50000000E-01  8.50000000E-01  8.50000000E-01  8.50000000E-01
  8.50000000E-01  8.50000000E-01  8.50000000E-01  8.50000000E-01  8.50000000E-01
  8.50000000E-01  8.50000000E-01  8.50000000E-01  8.50000000E-01  8.50000000E-01
  8.50000000E-01  8.50000000E-01  8.50000000E-01  8.50000000E-01  8.50000000E-01
  8.50000000E-01  8.50000000E-01  8.50000000E-01  8.50000000E-01  8.50000000E-01
  8.50000000E-01  8.50000000E-01  8.50000000E-01  8.50000000E-01  8.50000000E-01
  8.50000000E-01  8.50000000E-01  8.50000000E-01  8.50000000E-01  8.50000000E-01
  8.50000000E-01  8.50000000E-01  8.50000000E-01  8.50000000E-01  8.50000000E-01
  8.50000000E-01  8.50000000E-01  8.50000000E-01  8.50000000E-01  8.50000000E-01
  8.50000000E-01  8.50000000E-01  8.50000000E-01  8.50000000E-01  8.50000000E-01
  8.50000000E-01  8.50000000E-01  8.50000000E-01  8.50000000E-01  8.50000000E-01
  8.50000000E-01  8.50000000E-01  8.50000000E-01  8.50000000E-01  8.50000000E-01
  8.50000000E-01  8.50000000E-01  8.50000000E-01  8.50000000E-01  8.50000000E-01
  8.50000000E-01  8.50000000E-01  8.50000000E-01  8.50000000E-01  8.50000000E-01
  8.50000000E-01  8.50000000E-01  8.50000000E-01  8.50000000E-01  8.50000000E-01
  8.50000000E-01  8.50000000E-01  8.50000000E-01  8.50000000E-01  8.50000000E-01
  8.50000000E-01  8.50000000E-01  8.50000000E-01  8.50000000E-01  8.50000000E-01
  8.50000000E-01  8.50000000E-01  8.50000000E-01  8.50000000E-01  8.50000000E-01
  8.50000000E-01  8.50000000E-01  8.50000000E-01  8.50000000E-01  8.50000000E-01
  8.50000000E-01  8.50000000E-01  8.50000000E-01  8.50000000E-01  8.50000000E-01
  8.50000000E-01  8.50000000E-01  8.50000000E-01  8.50000000E-01  8.50000000E-01
  8.50000000E-01  8.50000000E-01  8.50000000E-01  8.50000000E-01  8.50000000E-01
  8.50000000E-01  8.50000000E-01  8.50000000E-01  8.50000000E-01  8.50000000E-01
  8.50000000E-01  8.50000000E-01  8.50000000E-01  8.50000000E-01  8.50000000E-01
  8.50000000E-01  8.50000000E-01  8.50000000E-01  8.50000000E-01  8.50000000E-01
  8.50000000E-01  8.50000000E-01  8.50000000E-01  8.50000000E-01  8.50000000E-01
  8.50000000E-01  8.50000000E-01  8.50000000E-01  8.50000000E-01  8.50000000E-01
  8.50000000E-01  8.50000000E-01  8.50000000E-01  8.50000000E-01  8.50000000E-01
  8.50000000E-01  8.50000000E-01  8.50000000E-01  8.50000000E-01  8.50000000E-01
  8.50000000E-01  8.50000000E-01  8.50000000E-01  8.50000000E-01  8.50000000E-01
  8.50000000E-01  8.50000000E-01  8.50000000E-01  8.50000000E-01  8.50000000E-01
  8.50000000E-01  8.50000000E-01  8.50000000E-01  8.50000000E-01  8.50000000E-01
  8.50000000E-01  8.50000000E-01  8.50000000E-01  8.50000000E-01  8.50000000E-01
  8.50000000E-01  8.50000000E-01  8.50000000E-01  8.50000000E-01  8.50000000E-01
  8.50000000E-01  8.50000000E-01  8.50000000E-01  8.50000000E-01  8.50000000E-01
  8.50000000E-01  8.50000000E-01  8.50000000E-01  8.50000000E-01  8.50000000E-01
  8.50000000E-01  8.50000000E-01  8.50000000E-01  8.50000000E-01  8.50000000E-01
  8.50000000E-01  8.50000000E-01  8.50000000E-01  8.50000000E-01  8.50000000E-01
  8.50000000E-01  8.50000000E-01  8.50000000E-01  8.50000000E-01  8.50000000E-01
  8.50000000E-01  8.50000000E-01  8.50000000E-01  8.50000000E-01  8.50000000E-01
  8.50000000E-01  8.50000000E-01  8.50000000E-01  8.50000000E-01  8.50000000E-01
  8.50000000E-01  8.50000000E-01  8.50000000E-01  8.50000000E-01  8.50000000E-01
  8.50000000E-01  8.50000000E-01  8.50000000E-01  8.50000000E-01  8.50000000E-01
  8.50000000E-01  8.50000000E-01  8.50000000E-01  8.50000000E-01  8.50000000E-01
  8.50000000E-01  8.50000000E-01  8.50000000E-01  8.50000000E-01  8.50000000E-01
  8.50000000E-01  8.50000000E-01  8.50000000E-01  8.50000000E-01  8.50000000E-01
  8.50000000E-01  8.50000000E-01  8.50000000E-01  8.50000000E-01  8.50000000E-01
  8.50000000E-01  8.50000000E-01  8.50000000E-01  8.50000000E-01  8.50000000E-01
  8.50000000E-01  8.50000000E-01  8.50000000E-01  8.50000000E-01  8.50000000E-01
  8.50000000E-01  8.50000000E-01  8.50000000E-01  8.50000000E-01  8.50000000E-01
  8.50000000E-01  8.50000000E-01  8.50000000E-01  8.50000000E-01  8.50000000E-01
  8.50000000E-01  8.50000000E-01  8.50000000E-01  8.50000000E-01  8.50000000E-01
  8.50000000E-01  8.50000000E-01  8.50000000E-01  8.50000000E-01  8.50000000E-01
  8.50000000E-01  8.50000000E-01  8.50000000E-01  8.50000000E-01  8.50000000E-01
  8.50000000E-01  8.50000000E-01  8.50000000E-01  8.50000000E-01  8.50000000E-01
  8.50000000E-01  8.50000000E-01  8.50000000E-01  8.50000000E-01  8.50000000E-01
  8.50000000E-01  8.50000000E-01  8.50000000E-01  8.50000000E-01  8.50000000E-01
  8.50000000E-01  8.50000000E-01  8.50000000E-01  8.50000000E-01  8.50000000E-01
  8.50000000E-01  8.50000000E-01  8.50000000E-01  8.50000000E-01  8.50000000E-01
  8.50000000E-01  8.50000000E-01  8.50000000E-01  8.50000000E-01  8.50000000E-01
  8.50000000E-01  8.50000000E-01  8.50000000E-01  8.50000000E-01  8.50000000E-01
  8.50000000E-01  8.50000000E-01  8.50000000E-01  8.50000000E-01  8.50000000E-01
  8.50000000E-01  8.50000000E-01  8.50000000E-01  8.50000000E-01  8.50000000E-01
  8.50000000E-01  8.50000000E-01  8.50000000E-01  8.50000000E-01  8.50000000E-01
  8.50000000E-01  8.50000000E-01  8.50000000E-01  8.50000000E-01  8.50000000E-01
  8.50000000E-01  8.50000000E-01  8.50000000E-01  8.50000000E-01  8.50000000E-01
  8.50000000E-01  8.50000000E-01  8.50000000E-01  8.50000000E-01  8.50000000E-01
  8.50000000E-01  8.50000000E-01  8.50000000E-01  8.50000000E-01  8.50000000E-01
  8.50000000E-01  8.50000000E-01  8.50000000E-01  8.50000000E-01  8.50000000E-01
  8.50000000E-01  8.50000000E-01  8.50000000E-01  8.50000000E-01  8.50000000E-01
  8.50000000E-01  8.50000000E-01  8.50000000E-01  8.50000000E-01  8.50000000E-01
  8.50000000E-01  8.50000000E-01  8.50000000E-01  8.50000000E-01  8.50000000E-01
  8.50000000E-01  8.50000000E-01  8.50000000E-01  8.50000000E-01  8.50000000E-01
  8.50000000E-01  8.50000000E-01  8.50000000E-01  8.50000000E-01  8.50000000E-01
  8.50000000E-01  8.50000000E-01  8.50000000E-01  8.50000000E-01  8.50000000E-01
  8.50000000E-01  8.50000000E-01  8.50000000E-01  8.50000000E-01  8.50000000E-01
  8.50000000E-01  8.50000000E-01  8.50000000E-01  8.50000000E-01  8.50000000E-01
  8.50000000E-01  8.50000000E-01  8.50000000E-01  8.50000000E-01  8.50000000E-01
  8.50000000E-01  8.50000000E-01  8.50000000E-01  8.50000000E-01  8.50000000E-01
  8.50000000E-01  8.50000000E-01  8.50000000E-01  8.50000000E-01  8.50000000E-01
  8.50000000E-01  8.50000000E-01  8.50000000E-01  8.50000000E-01  8.50000000E-01
  8.50000000E-01  8.50000000E-01  8.50000000E-01  8.50000000E-01  8.50000000E-01
  8.50000000E-01  8.50000000E-01  8.50000000E-01  8.50000000E-01  8.50000000E-01
  8.50000000E-01  8.50000000E-01  8.50000000E-01  8.50000000E-01  8.50000000E-01
  8.50000000E-01  8.50000000E-01  8.50000000E-01  8.50000000E-01  8.50000000E-01
  8.50000000E-01  8.50000000E-01  8.50000000E-01  8.50000000E-01  8.50000000E-01
  8.50000000E-01  8.50000000E-01  8.50000000E-01  8.50000000E-01  8.50000000E-01
  8.50000000E-01  8.50000000E-01  8.50000000E-01  8.50000000E-01  8.50000000E-01
  8.50000000E-01  8.50000000E-01  8.50000000E-01  8.50000000E-01  8.50000000E-01
  8.50000000E-01  8.50000000E-01  8.50000000E-01  8.50000000E-01  8.50000000E-01
  8.50000000E-01  8.50000000E-01  8.50000000E-01  8.50000000E-01  8.50000000E-01
  8.50000000E-01  8.50000000E-01  8.50000000E-01  8.50000000E-01  8.50000000E-01
  8.50000000E-01  8.50000000E-01  8.50000000E-01  8.50000000E-01  8.50000000E-01
  8.50000000E-01  8.50000000E-01  8.50000000E-01  8.50000000E-01  8.50000000E-01
  8.50000000E-01  8.50000000E-01  8.50000000E-01  8.50000000E-01  8.50000000E-01
  8.50000000E-01  8.50000000E-01  8.50000000E-01  8.50000000E-01  8.50000000E-01
  8.50000000E-01  8.50000000E-01  8.50000000E-01  8.50000000E-01  8.50000000E-01
  8.50000000E-01  8.50000000E-01  8.50000000E-01  8.50000000E-01  8.50000000E-01
  8.50000000E-01  8.50000000E-01  8.50000000E-01  8.50000000E-01  8.50000000E-01
  8.50000000E-01  8.50000000E-01  8.50000000E-01  8.50000000E-01  8.50000000E-01
  8.50000000E-01  8.50000000E-01  8.50000000E-01  8.50000000E-01  8.50000000E-01
  8.50000000E-01  8.50000000E-01  8.50000000E-01  8.50000000E-01  8.50000000E-01
  8.50000000E-01  8.50000000E-01  8.50000000E-01  8.50000000E-01  8.50000000E-01
  8.50000000E-01  8.50000000E-01  8.50000000E-01  8.50000000E-01  8.50000000E-01
  8.50000000E-01  8.50000000E-01  8.50000000E-01  8.50000000E-01  8.50000000E-01
  8.50000000E-01  8.50000000E-01  8.50000000E-01  8.50000000E-01  8.50000000E-01
  8.50000000E-01  8.50000000E-01  8.50000000E-01  8.50000000E-01  8.50000000E-01
  8.50000000E-01  8.50000000E-01  8.50000000E-01  8.50000000E-01  8.50000000E-01
  8.50000000E-01  8.50000000E-01  8.50000000E-01  8.50000000E-01  8.50000000E-01
  8.50000000E-01  8.50000000E-01  8.50000000E-01  8.50000000E-01  8.50000000E-01
  8.50000000E-01  8.50000000E-01  8.50000000E-01  8.50000000E-01  8.50000000E-01
  8.50000000E-01  8.50000000E-01  8.50000000E-01  8.50000000E-01  8.50000000E-01
  8.50000000E-01  8.50000000E-01  8.50000000E-01  8.50000000E-01  8.50000000E-01
  8.50000000E-01  8.50000000E-01  8.50000000E-01  8.50000000E-01  8.50000000E-01
  8.50000000E-01  8.50000000E-01  8.50000000E-01  8.50000000E-01  8.50000000E-01
  8.50000000E-01  8.50000000E-01  8.50000000E-01  8.50000000E-01  8.50000000E-01
  8.50000000E-01  8.50000000E-01  8.50000000E-01  8.50000000E-01  8.50000000E-01
  8.50000000E-01  8.50000000E-01  8.50000000E-01  8.50000000E-01  8.50000000E-01
  8.50000000E-01  8.50000000E-01  8.50000000E-01  8.50000000E-01  8.50000000E-01
  8.50000000E-01  8.50000000E-01  8.50000000E-01  8.50000000E-01  8.50000000E-01
  8.50000000E-01  8.50000000E-01  8.50000000E-01  8.50000000E-01  8.50000000E-01
  8.50000000E-01  8.50000000E-01  8.50000000E-01  8.50000000E-01  8.50000000E-01
  8.50000000E-01  8.50000000E-01  8.50000000E-01  8.50000000E-01  8.50000000E-01
  8.50000000E-01  8.50000000E-01  8.50000000E-01  8.50000000E-01  8.50000000E-01
  8.50000000E-01  8.50000000E-01  8.50000000E-01  8.50000000E-01  8.50000000E-01
  8.50000000E-01  8.50000000E-01  8.50000000E-01  8.50000000E-01  8.50000000E-01
  8.50000000E-01  8.50000000E-01  8.50000000E-01  8.50000000E-01  8.50000000E-01
  8.50000000E-01  8.50000000E-01  8.50000000E-01  8.50000000E-01  8.50000000E-01
  8.50000000E-01  8.50000000E-01  8.50000000E-01  8.50000000E-01  8.50000000E-01
  8.50000000E-01  8.50000000E-01  8.50000000E-01  8.50000000E-01  8.50000000E-01
  8.50000000E-01  8.50000000E-01  8.50000000E-01  8.50000000E-01  8.50000000E-01
  8.50000000E-01  8.50000000E-01  8.50000000E-01  8.50000000E-01  8.50000000E-01
  8.50000000E-01  8.50000000E-01  8.50000000E-01  8.50000000E-01  8.50000000E-01
  8.50000000E-01  8.50000000E-01  8.50000000E-01  8.50000000E-01  8.50000000E-01
  8.50000000E-01  8.50000000E-01  8.50000000E-01  8.50000000E-01  8.50000000E-01
  8.50000000E-01  8.50000000E-01  8.50000000E-01  8.50000000E-01  8.50000000E-01
  8.50000000E-01  8.50000000E-01  8.50000000E-01  8.50000000E-01  8.50000000E-01
  8.50000000E-01  8.50000000E-01  8.50000000E-01  8.50000000E-01  8.50000000E-01
  8.50000000E-01  8.50000000E-01  8.50000000E-01  8.50000000E-01  8.50000000E-01
  8.50000000E-01  8.50000000E-01  8.50000000E-01  8.50000000E-01  8.50000000E-01
  8.50000000E-01  8.50000000E-01  8.50000000E-01  8.50000000E-01  8.50000000E-01
  8.50000000E-01  8.50000000E-01  8.50000000E-01  8.50000000E-01  8.50000000E-01
  8.50000000E-01  8.50000000E-01  8.50000000E-01  8.50000000E-01  8.50000000E-01
  8.50000000E-01  8.50000000E-01  8.50000000E-01  8.50000000E-01  8.50000000E-01
  8.50000000E-01  8.50000000E-01  8.50000000E-01  8.50000000E-01  8.50000000E-01
  8.50000000E-01  8.50000000E-01  8.50000000E-01  8.50000000E-01  8.50000000E-01
  8.50000000E-01  8.50000000E-01  8.50000000E-01  8.50000000E-01  8.50000000E-01
  8.50000000E-01  8.50000000E-01  8.50000000E-01  8.50000000E-01  8.50000000E-01
  8.50000000E-01  8.50000000E-01  8.50000000E-01  8.50000000E-01  8.50000000E-01
  8.50000000E-01  8.50000000E-01  8.50000000E-01  8.50000000E-01  8.50000000E-01
  8.50000000E-01  8.50000000E-01  8.50000000E-01  8.50000000E-01  8.50000000E-01
  8.50000000E-01  8.50000000E-01  8.50000000E-01  8.50000000E-01  8.50000000E-01
  8.50000000E-01  8.50000000E-01  8.50000000E-01  8.50000000E-01  8.50000000E-01
  8.50000000E-01  8.50000000E-01  8.50000000E-01  8.50000000E-01  8.50000000E-01
  8.50000000E-01  8.50000000E-01  8.50000000E-01  8.50000000E-01  8.50000000E-01
  8.50000000E-01  8.50000000E-01  8.50000000E-01  8.50000000E-01  8.50000000E-01
  8.50000000E-01  8.50000000E-01  8.50000000E-01  8.50000000E-01  8.50000000E-01
  8.50000000E-01  8.50000000E-01  8.50000000E-01  8.50000000E-01  8.50000000E-01
  8.50000000E-01  8.50000000E-01  8.50000000E-01  8.50000000E-01  8.50000000E-01
  8.50000000E-01  8.50000000E-01  8.50000000E-01  8.50000000E-01  8.50000000E-01
  8.50000000E-01  8.50000000E-01  8.50000000E-01  8.50000000E-01  8.50000000E-01
  8.50000000E-01  8.50000000E-01  8.50000000E-01  8.50000000E-01  8.50000000E-01
  8.50000000E-01  8.50000000E-01  8.50000000E-01  8.50000000E-01  8.50000000E-01
  8.50000000E-01  8.50000000E-01  8.50000000E-01  8.50000000E-01  8.50000000E-01
  8.50000000E-01  8.50000000E-01  8.50000000E-01  8.50000000E-01  8.50000000E-01
  8.50000000E-01  8.50000000E-01  8.50000000E-01  8.50000000E-01  8.50000000E-01
  8.50000000E-01  8.50000000E-01  8.50000000E-01  8.50000000E-01  8.50000000E-01
  8.50000000E-01  8.50000000E-01  8.50000000E-01  8.50000000E-01  8.50000000E-01
  8.50000000E-01  8.50000000E-01  8.50000000E-01  8.50000000E-01  8.50000000E-01
  8.50000000E-01  8.50000000E-01  8.50000000E-01  8.50000000E-01  8.50000000E-01
  8.50000000E-01  8.50000000E-01  8.50000000E-01  8.50000000E-01  8.50000000E-01
  8.50000000E-01  8.50000000E-01  8.50000000E-01  8.50000000E-01  8.50000000E-01
  8.50000000E-01  8.50000000E-01  8.50000000E-01  8.50000000E-01  8.50000000E-01
  8.50000000E-01  8.50000000E-01  8.50000000E-01  8.50000000E-01  8.50000000E-01
  8.50000000E-01  8.50000000E-01  8.50000000E-01  8.50000000E-01  8.50000000E-01
  8.50000000E-01  8.50000000E-01  8.50000000E-01  8.50000000E-01  8.50000000E-01
  8.50000000E-01  8.50000000E-01  8.50000000E-01  8.50000000E-01  8.50000000E-01
  8.50000000E-01  8.50000000E-01  8.50000000E-01  8.50000000E-01  8.50000000E-01
  8.50000000E-01  8.50000000E-01  8.50000000E-01  8.50000000E-01  8.50000000E-01
  8.50000000E-01  8.50000000E-01  8.50000000E-01  8.50000000E-01  8.50000000E-01
  8.50000000E-01  8.50000000E-01  8.50000000E-01  8.50000000E-01  8.50000000E-01
  8.50000000E-01  8.50000000E-01  8.50000000E-01  8.50000000E-01  8.50000000E-01
  8.50000000E-01  8.50000000E-01  8.50000000E-01  8.50000000E-01  8.50000000E-01
  8.50000000E-01  8.50000000E-01  8.50000000E-01  8.50000000E-01  8.50000000E-01
  8.50000000E-01  8.50000000E-01  8.50000000E-01  8.50000000E-01  8.50000000E-01
  8.50000000E-01  8.50000000E-01  8.50000000E-01  8.50000000E-01  8.50000000E-01
  8.50000000E-01  8.50000000E-01  8.50000000E-01  8.50000000E-01  8.50000000E-01
  8.50000000E-01  8.50000000E-01  8.50000000E-01  8.50000000E-01  8.50000000E-01
  8.50000000E-01  8.50000000E-01  8.50000000E-01  8.50000000E-01  8.50000000E-01
  8.50000000E-01  8.50000000E-01  8.50000000E-01  8.50000000E-01  8.50000000E-01
  8.50000000E-01  8.50000000E-01  8.50000000E-01  8.50000000E-01  8.50000000E-01
  8.50000000E-01  8.50000000E-01  8.50000000E-01  8.50000000E-01  8.50000000E-01
  8.50000000E-01  8.50000000E-01  8.50000000E-01  8.50000000E-01  8.50000000E-01
  8.50000000E-01  8.50000000E-01  8.50000000E-01  8.50000000E-01  8.50000000E-01
  8.50000000E-01  8.50000000E-01  8.50000000E-01  8.50000000E-01  8.50000000E-01
  8.50000000E-01  8.50000000E-01  8.50000000E-01  8.50000000E-01  8.50000000E-01
  8.50000000E-01  8.50000000E-01  8.50000000E-01  8.50000000E-01  8.50000000E-01
  8.50000000E-01  8.50000000E-01  8.50000000E-01  8.50000000E-01  8.50000000E-01
  8.50000000E-01  8.50000000E-01  8.50000000E-01  8.50000000E-01  8.50000000E-01
  8.50000000E-01  8.50000000E-01  8.50000000E-01  8.50000000E-01  8.50000000E-01
  8.50000000E-01  8.50000000E-01  8.50000000E-01  8.50000000E-01  8.50000000E-01
  8.50000000E-01  8.50000000E-01  8.50000000E-01  8.50000000E-01  8.50000000E-01
  8.50000000E-01  8.50000000E-01  8.50000000E-01  8.50000000E-01  8.50000000E-01
  8.50000000E-01  8.50000000E-01  8.50000000E-01  8.50000000E-01  8.50000000E-01
  8.50000000E-01  8.50000000E-01  8.50000000E-01  8.50000000E-01  8.50000000E-01
  8.50000000E-01  8.50000000E-01  8.50000000E-01  8.50000000E-01  8.50000000E-01
  8.50000000E-01  8.50000000E-01  8.50000000E-01  8.50000000E-01  8.50000000E-01
  8.50000000E-01  8.50000000E-01  8.50000000E-01  8.50000000E-01  8.50000000E-01
  8.50000000E-01  8.50000000E-01  8.50000000E-01  8.50000000E-01  8.50000000E-01
  8.50000000E-01  8.50000000E-01  8.50000000E-01  8.50000000E-01  8.50000000E-01
  8.50000000E-01  8.50000000E-01  8.50000000E-01  8.50000000E-01  8.50000000E-01
  8.50000000E-01  8.50000000E-01  8.50000000E-01  8.50000000E-01  8.50000000E-01
  8.50000000E-01  8.50000000E-01  8.50000000E-01  8.50000000E-01  8.50000000E-01
  8.50000000E-01  8.50000000E-01  8.50000000E-01  8.50000000E-01  8.50000000E-01
  8.50000000E-01  8.50000000E-01  8.50000000E-01  8.50000000E-01  8.50000000E-01
  8.50000000E-01  8.50000000E-01  8.50000000E-01  8.50000000E-01  8.50000000E-01
  8.50000000E-01  8.50000000E-01  8.50000000E-01  8.50000000E-01  8.50000000E-01
  8.50000000E-01  8.50000000E-01  8.50000000E-01  8.50000000E-01  8.50000000E-01
  8.50000000E-01  8.50000000E-01  8.50000000E-01  8.50000000E-01  8.50000000E-01
  8.50000000E-01  8.50000000E-01
%FLAG IPOL                                                                      
%FORMAT(1I8)                                                                    
       0
