default_name
 77120
  37.6650927  36.8310868  52.0902684  37.8550927  35.5710868  52.8402684
  36.7850927  33.3510868  50.7102684  36.5950927  34.9310868  53.6502684
  35.2850927  35.0210868  52.8602684  35.9150927  35.3410868  50.4102684
  34.1450927  35.7410868  53.5302684  34.8250927  37.9510868  52.4702684
  37.1950927  37.7610868  49.6102684  34.5250927  37.2410868  53.7302684
  39.0450927  38.7110868  49.6202684  36.1350927  38.7110868  52.5302684
  34.3750927  37.7010868  49.9902684  37.4450927  37.9710868  52.9702684
  34.1850927  39.8210868  50.1702684  38.7250927  36.9910868  51.1502684
  38.2750927  37.9010868  50.1402684  34.9850927  34.0510868  51.8602684
  35.9750927  34.2610868  50.9002684  33.6950927  38.6510868  51.9002684
  33.8050927  38.6910868  50.4302684  36.3450927  39.3210868  51.6402684
  35.9650927  39.4910868  53.2902684  37.4350927  37.5410868  53.9802684
  38.2550927  38.7110868  52.9902684  38.7750927  36.0810868  50.5502684
  39.6250927  37.3810868  51.6502684  35.0550927  33.0310868  52.2502684
  34.0450927  34.2410868  51.3302684  33.4950927  39.6410868  52.3202684
  32.8550927  37.9510868  52.0202684  38.1750927  34.8110868  52.1202684
  38.6850927  35.7510868  53.5502684  36.5050927  35.4010868  54.6302684
  36.8650927  33.9210868  53.9602684  33.8450927  35.1510868  54.4002684
  33.2550927  35.8110868  52.8802684  35.3150927  37.3610868  54.4802684
  33.6750927  37.6910868  54.2502684  81.9760927  55.6160868  33.0502684
  72.8562310  11.4375260  54.3535070 107.1275620  81.1060850  79.7347750
 107.0469670  80.1915460  79.4639460 106.7140040  81.6027920  79.0287460
 105.2593660  82.8839870  81.6157020 104.4835760  82.4040310  81.9055590
 105.9106590  82.2045520  81.4413180  99.2759490  83.1959680  82.4932780
  98.4444370  82.9408390  82.8929290  99.8840470  83.2670450  83.2290700
  97.6851440  78.1561570  76.2775170  96.7968140  78.4977540  76.1755050
  97.9692630  77.9561890  75.3856000  95.6484450  80.7567220  82.1614870
  96.2200560  79.9889420  82.1618510  95.6485990  81.0555980  81.2521480
 104.7002650  85.5597060  81.6227180 104.6310930  84.6187000  81.4616310
 105.4622510  85.6498470  82.1949750  96.8909320  76.1651580  83.9483800
  96.7112160  75.2677330  84.2286560  96.4889400  76.7123450  84.6230750
 105.7307820  78.3667440  81.8496110 106.1072640  77.4939320  81.7369780
 105.6327330  78.7026140  80.9586550  99.8612830  76.7393070  77.3113550
  99.9679580  77.6396800  77.6182310  98.9505190  76.6911040  77.0208200
 109.5131940  75.8617880  78.7824450 110.3341560  75.3714450  78.8249930
 109.5466020  76.4515540  79.5356290  97.5095990  78.6612080  82.5566140
  98.1906100  78.9250450  83.1753540  97.1944040  77.8212950  82.8904150
 101.7020560  79.7079440  81.6438730 102.2098780  80.2060410  82.2843750
 102.2333800  78.9314640  81.4678090  99.9856660  74.3478000  85.9102150
  99.9875100  74.8650390  85.1048050  99.1560970  73.8708180  85.8872080
 106.3727750  84.4597310  77.4092050 105.7545020  84.9246760  76.8454770
 106.8851000  85.1524790  77.8261560 101.2359510  83.9873180  84.0875650
 100.9028890  84.6142100  84.7296720 101.4126190  84.5135060  83.3077320
 109.7493420  77.8018260  81.5551990 109.0448990  78.0903150  82.1355100
 110.1105580  78.6118370  81.1951550  99.6671990  76.0587960  83.9172600
 100.0088800  76.9030010  83.6226470  98.7287800  76.2071700  84.0337940
 100.4478610  85.9553980  85.9024830 101.0652610  86.6305060  85.6209280
  99.5871730  86.3641960  85.8112330  95.7410950  85.1453840  74.7831680
  95.3638930  85.6340940  74.0516580  95.9984020  85.8179120  75.4138210
 112.8180340  77.2473050  81.9461200 111.8705250  77.2812030  82.0776630
 113.1430330  78.0612000  82.3310560 103.3499880  73.5470230  80.2417190
 103.6574860  72.9917120  79.5252690 102.4200580  73.6814690  80.0590180
 110.1960360  85.9853740  77.6214820 110.0856690  85.0428070  77.7464240
 110.1928610  86.3469380  78.5077580 108.3000380  84.1667360  83.8607260
 108.7169170  83.9527470  83.0260720 109.0240200  84.4240150  84.4315880
 105.7380640  81.6119060  76.9777310 104.8109920  81.5456440  77.2065780
 105.8905460  82.5499190  76.8632550 105.7249720  77.8836060  73.9744470
 104.7853390  78.0450020  74.0596930 106.0432980  78.6021740  73.4280460
 112.2462480  82.5654580  83.9523500 111.4181110  82.6347670  83.4773630
 112.8412960  83.1508890  83.4839330 109.7677930  83.1739360  77.4812560
 109.1490350  82.8358910  76.8338860 109.7502380  82.5299120  78.1891750
 109.2104490  79.3523900  84.8978370 108.7975670  80.1777610  85.1518360
 108.4780440  78.7668940  84.7054730 101.3437280  82.1383800  79.7597040
 100.9394280  81.4261050  79.2642940 101.4300400  81.7937040  80.6485080
 101.8118980  85.8251360  81.9236250 101.5147270  85.2196830  81.2444030
 102.7618800  85.8628670  81.8125610 100.0565900  78.9127010  83.5396080
 100.6080490  79.0222350  82.7649330 100.5709410  79.2864610  84.2551310
 107.9442630  82.4126170  74.4885310 108.3835910  81.5748600  74.3423130
 108.6571050  83.0455570  74.5749450 111.5259770  73.6668980  72.8026350
 111.2132430  73.7595810  73.7025420 112.2872240  74.2450010  72.7523780
  98.0441910  81.0328780  77.2603690  97.9239510  81.7590870  76.6484960
  97.7342800  80.2631690  76.7831600  95.6827280  84.2043920  83.0672330
  95.7607700  84.3392690  82.1228050  96.2968960  83.4959810  83.2600450
  96.9274910  85.9044110  79.4778510  96.5202990  86.0458700  78.6232110
  97.8187920  85.6204270  79.2749720 100.5105570  74.3763850  80.6427360
 100.0673720  75.1573390  80.3111880 101.0690560  74.6993740  81.3498300
 103.6264390  73.9974550  75.5233190 103.0018570  73.9934420  76.2486500
 103.5394510  73.1305510  75.1269160 102.5481470  74.9211180  82.5016960
 102.8453800  75.8274010  82.4208980 103.0967030  74.4329960  81.8876530
 100.3019790  79.4997420  78.3708610 100.0760710  79.2834590  79.2755230
  99.5212320  79.9325880  78.0254580 107.5317550  79.5060790  76.9699260
 106.9326440  80.2296590  76.7862880 108.0797160  79.4437570  76.1875710
 106.1382420  78.1424330  79.0002540 106.5311990  78.4596530  78.1871230
 106.4999270  77.2636210  79.1147060  95.1746590  74.7325130  81.2232740
  94.8859640  75.3027990  81.9357720  95.9192350  74.2529580  81.5863970
  95.3616820  78.6745250  72.4335460  95.2791490  79.6176010  72.5750450
  95.0099880  78.5320160  71.5547810 106.7237560  80.7330080  83.0953320
 105.9918680  81.2416890  83.4443420 106.3261900  79.9160060  82.7942100
 103.1614950  77.4084280  81.5005810 103.1651010  76.9674230  80.6510350
 104.0566070  77.7301610  81.6077630  99.0117330  77.2910770  80.4600020
  98.6717380  77.7686000  81.2167070  98.2494650  76.8375890  80.1001120
 103.2235100  78.4096360  74.4912570 103.3447920  78.3682840  75.4398390
 102.8383610  79.2720510  74.3359300 107.1863470  76.1863760  82.5076260
 107.2036210  76.6372410  83.3518110 106.9379050  75.2869400  82.7209700
 102.2356600  80.7197500  73.8895870 101.6673500  80.2715750  73.2631780
 102.9445600  81.0790280  73.3561020 103.4622920  81.4686060  83.2471220
 103.8293050  80.9944630  83.9932560 103.2727980  82.3427630  83.5879560
  96.3263410  76.2129750  79.3764690  96.0410330  75.8485420  80.2143310
  96.2642270  75.4810210  78.7627830 101.2522290  80.5094700  85.5655430
 100.9479360  81.3886680  85.7905790 102.2068750  80.5694490  85.6012870
  99.7804080  84.7155690  76.1622280  99.0066340  84.1753310  76.0021000
 100.5098710  84.1962300  75.8240040 110.5392060  83.7121050  81.9548670
 111.2591180  84.2076340  81.5644780 110.3373880  83.0338940  81.3102540
 106.0002000  75.1059010  76.0978060 105.1866610  74.6072180  76.0223370
 105.8063950  75.9457260  75.6814410 108.7150390  79.4778660  74.3940220
 109.6030010  79.7895890  74.2191560 108.6855480  78.6050910  74.0020800
  99.8241480  84.3836070  79.8001090 100.3420150  83.5804330  79.7457980
  99.3725500  84.3215210  80.6417920 104.7110980  85.6502350  75.0728390
 105.0526680  86.3944580  74.5771710 103.8823690  85.9633470  75.4353220
 110.9864660  80.7890500  73.8620080 110.9028380  81.2204720  73.0116520
 111.7058850  81.2488850  74.2946900 107.5938390  84.9718190  80.4373900
 107.9462210  84.3746320  79.7775270 106.7100720  84.6462420  80.6082150
 103.6801670  85.7315880  77.8444310 104.3672800  86.2785090  78.2251900
 102.8934090  86.2756610  77.8793920  95.8194070  81.3488700  73.3361390
  96.6888920  81.6313500  73.6197310  95.3284390  82.1624570  73.2210200
 102.9828880  82.7361910  77.4569670 103.4391660  83.5467160  77.6829860
 102.6317090  82.4185050  78.2888160  98.8840660  73.0799560  77.9292190
  98.7555290  73.0717460  78.8777110  98.0602680  73.4182650  77.5783200
 106.5593570  86.2500600  83.4039420 107.2015800  85.5493760  83.5171590
 107.0842920  87.0299040  83.2236310 110.4049290  86.5349220  73.1278560
 110.1786870  85.8179660  73.7203200 110.0145490  86.2861660  72.2900310
 109.9865540  84.4521160  74.7892720 109.6987240  84.9133850  75.5770600
 110.7817710  83.9918930  75.0576940  97.8040580  83.1662170  75.4643450
  97.1968530  83.9061070  75.4738750  98.2789930  83.2561530  74.6381650
 107.3773370  77.3312990  85.1400340 107.7454190  76.5108200  85.4679910
 106.5171570  77.3914880  85.5555990 110.7435400  76.2869930  75.9487900
 110.1148560  76.3915600  75.2346130 110.2487320  76.5066710  76.7381780
 102.7119430  78.5655880  77.3645780 102.0035580  79.0342220  77.8059390
 102.9963910  77.9077890  77.9990970 106.7434860  75.2906540  78.8041570
 106.6202640  75.3092670  77.8551080 107.6919420  75.3385480  78.9239970
 100.9154450  76.8740960  74.7396490 101.7644980  77.3111110  74.6736680
 100.5485720  77.1861220  75.5668550 109.8364230  81.4453720  79.6528060
 108.8954370  81.4603950  79.8275750 110.1508300  80.6589680  80.0988360
  99.8145870  83.1273320  73.2132020 100.5809140  83.0154680  73.7757450
  99.8920560  82.4311290  72.5608790  98.5092630  80.5598390  73.8964910
  98.5896220  79.6125900  74.0082310  99.4012380  80.8905270  74.0025570
 102.9387050  85.1027500  72.6867370 102.8337690  84.4879850  73.4128750
 102.7711270  84.5793390  71.9030380 106.1789780  84.1647530  73.2909360
 105.6299880  84.6116830  73.9352100 106.8009040  83.6596780  73.8147030
 101.8464900  83.1238450  75.1874660 102.2681320  82.9578320  76.0306050
 101.9715740  82.3138680  74.6929800 104.3592540  82.1476060  72.4351760
 104.8798200  81.4325080  72.0692910 105.0060940  82.7861930  72.7352270
 103.2626060  74.6270610  85.1070320 102.8143360  74.6494870  84.2615870
 102.6291260  74.2289630  85.7040620 103.6685610  83.5224940  85.7282760
 104.0873720  84.3657670  85.5559000 102.7494240  83.6596980  85.4989540
 100.7423800  79.1971680  72.1332820 100.5412860  78.3339040  72.4946160
 100.5715850  79.1105040  71.1954420 108.2212110  74.0079910  74.6619700
 108.5014400  73.1647810  75.0179120 107.4477840  74.2403020  75.1758450
  99.5406600  76.2972300  72.1210700  99.8432500  76.3039730  71.2129850
 100.2801190  75.9470160  72.6178360 102.7591530  75.2406920  73.1066900
 102.4113530  74.5630910  72.5269350 102.9604300  74.7796430  73.9210290
  98.5636730  85.6014720  72.9540500  99.0011600  86.1444390  73.6098080
  99.0484460  84.7761670  72.9636840 100.3744450  86.7212760  78.0662730
 100.0739990  86.5977730  78.9666640 100.2681940  85.8621350  77.6578460
 112.5992830  83.2456640  75.2723610 113.3611740  83.8153290  75.3783300
 112.6147200  82.6783840  76.0431920  96.0997170  81.7694570  79.5031270
  95.4446010  81.5006210  78.8590970  96.9375120  81.6599050  79.0533250
 110.5886560  85.4843320  85.5295860 109.7746400  85.9140480  85.7921650
 110.9960760  86.0961730  84.9164910 112.6512000  83.5391010  72.4296130
 112.9260840  84.4469890  72.3015350 112.4622740  83.4753540  73.3658120
 109.0487610  76.5635860  73.7249760 109.4672490  76.3766840  72.8846420
 108.7423670  75.7114910  74.0352690 112.5477340  81.4760000  77.4225560
 112.1720940  80.7087930  76.9906850 111.8180460  81.8582700  77.9100490
  97.1373100  82.1547140  84.0434610  97.5046140  82.0674540  84.9230630
  96.5683920  81.3913690  83.9441470  95.3135250  78.9793500  75.4456600
  94.4099330  79.2423700  75.2708260  95.7975870  79.2504670  74.6656560
 111.8228300  79.7017490  80.7232800 112.3465780  79.2080140  80.0922970
 112.4087720  79.8367850  81.4680370 112.0018020  79.7857360  84.2452350
 111.0520730  79.7520900  84.3597340 112.1831030  80.6957470  84.0102120
  97.8562460  78.0359040  73.3550980  98.5654160  77.6142260  72.8698260
  97.1402400  78.1034270  72.7234330  97.5036620  74.0898370  72.3953630
  98.2264750  74.6307310  72.7134850  97.7761140  73.8161790  71.5195170
 111.3128270  78.9590840  76.6625210 111.8087390  78.7261710  77.4474090
 111.1144340  78.1202680  76.2462850  97.1928810  73.3404560  82.2976250
  97.8405000  72.7901940  81.8571410  97.6130650  73.5947710  83.1192060
  96.9460810  73.4960230  85.0401570  96.5975630  73.9524050  85.8059750
  96.6148510  72.6017360  85.1224000 107.8368230  72.9074310  84.5282570
 106.9628070  73.2409420  84.3255500 107.7278980  72.4347490  85.3534440
 108.7440210  75.1145180  85.9124290 108.4153570  74.2996940  85.5326020
 109.6922510  75.0714990  85.7889980 105.5843050  73.8244150  83.4675480
 104.8014840  74.2989650  83.7472240 105.2905980  72.9198980  83.3588660
 110.1364120  74.5267250  81.5124570 110.5772210  74.4712350  80.6646170
 109.8671710  75.4425260  81.5834750 112.0002690  74.1582490  79.5233390
 111.9391090  73.2143710  79.3764410 112.7794720  74.2662580  80.0686850
  96.9283460  74.1291630  75.9889200  97.6862820  74.2420510  75.4153230
  96.4660630  74.9660830  75.9432630 103.4697270  76.2430900  78.9791510
 102.6571780  75.8687790  78.6387390 103.9738910  75.4875980  79.2812700
 107.9722250  72.9073350  80.2174580 108.5751620  73.4793560  80.6923100
 107.2315240  73.4712790  79.9948480 111.1156850  73.3094910  75.4914860
 111.3107480  74.2078360  75.7582290 110.3286720  73.0781990  75.9847810
  99.3008610  74.6555680  74.5291170  99.8301370  73.8685480  74.3999120
  99.9336930  75.3346870  74.7626700 101.4946450  74.3930820  77.5836560
 100.8649190  73.6918130  77.7506690 100.9551590  75.1534950  77.3669720
 107.1275620  81.1060850  60.9604260 107.0469670  80.1915460  60.6895970
 106.7140040  81.6027920  60.2543970 105.2593660  82.8839870  62.8413530
 104.4835760  82.4040310  63.1312100 105.9106590  82.2045520  62.6669690
  99.2759490  83.1959680  63.7189290  98.4444370  82.9408390  64.1185800
  99.8840470  83.2670450  64.4547210  97.6851440  78.1561570  57.5031680
  96.7968140  78.4977540  57.4011560  97.9692630  77.9561890  56.6112510
  95.6484450  80.7567220  63.3871380  96.2200560  79.9889420  63.3875020
  95.6485990  81.0555980  62.4777990 104.7002650  85.5597060  62.8483690
 104.6310930  84.6187000  62.6872820 105.4622510  85.6498470  63.4206260
  96.8909320  76.1651580  65.1740310  96.7112160  75.2677330  65.4543070
  96.4889400  76.7123450  65.8487260 105.7307820  78.3667440  63.0752620
 106.1072640  77.4939320  62.9626290 105.6327330  78.7026140  62.1843060
  99.8612830  76.7393070  58.5370060  99.9679580  77.6396800  58.8438820
  98.9505190  76.6911040  58.2464710 109.5131940  75.8617880  60.0080960
 110.3341560  75.3714450  60.0506440 109.5466020  76.4515540  60.7612800
  97.5095990  78.6612080  63.7822650  98.1906100  78.9250450  64.4010050
  97.1944040  77.8212950  64.1160660 101.7020560  79.7079440  62.8695240
 102.2098780  80.2060410  63.5100260 102.2333800  78.9314640  62.6934600
  99.9856660  74.3478000  67.1358660  99.9875100  74.8650390  66.3304560
  99.1560970  73.8708180  67.1128590 106.3727750  84.4597310  58.6348560
 105.7545020  84.9246760  58.0711280 106.8851000  85.1524790  59.0518070
 101.2359510  83.9873180  65.3132160 100.9028890  84.6142100  65.9553230
 101.4126190  84.5135060  64.5333830 109.7493420  77.8018260  62.7808500
 109.0448990  78.0903150  63.3611610 110.1105580  78.6118370  62.4208060
  99.6671990  76.0587960  65.1429110 100.0088800  76.9030010  64.8482980
  98.7287800  76.2071700  65.2594450 100.4478610  85.9553980  67.1281340
 101.0652610  86.6305060  66.8465790  99.5871730  86.3641960  67.0368840
  95.7410950  85.1453840  56.0088190  95.3638930  85.6340940  55.2773090
  95.9984020  85.8179120  56.6394720 112.8180340  77.2473050  63.1717710
 111.8705250  77.2812030  63.3033140 113.1430330  78.0612000  63.5567070
 103.3499880  73.5470230  61.4673700 103.6574860  72.9917120  60.7509200
 102.4200580  73.6814690  61.2846690 110.1960360  85.9853740  58.8471330
 110.0856690  85.0428070  58.9720750 110.1928610  86.3469380  59.7334090
 108.3000380  84.1667360  65.0863770 108.7169170  83.9527470  64.2517230
 109.0240200  84.4240150  65.6572390 105.7380640  81.6119060  58.2033820
 104.8109920  81.5456440  58.4322290 105.8905460  82.5499190  58.0889060
 105.7249720  77.8836060  55.2000980 104.7853390  78.0450020  55.2853440
 106.0432980  78.6021740  54.6536970 112.2462480  82.5654580  65.1780010
 111.4181110  82.6347670  64.7030140 112.8412960  83.1508890  64.7095840
 109.7677930  83.1739360  58.7069070 109.1490350  82.8358910  58.0595370
 109.7502380  82.5299120  59.4148260 109.2104490  79.3523900  66.1234880
 108.7975670  80.1777610  66.3774870 108.4780440  78.7668940  65.9311240
 101.3437280  82.1383800  60.9853550 100.9394280  81.4261050  60.4899450
 101.4300400  81.7937040  61.8741590 101.8118980  85.8251360  63.1492760
 101.5147270  85.2196830  62.4700540 102.7618800  85.8628670  63.0382120
 100.0565900  78.9127010  64.7652590 100.6080490  79.0222350  63.9905840
 100.5709410  79.2864610  65.4807820 100.9037410  85.5633050  69.8000560
 100.0065940  85.7873020  70.0473960 100.9290280  85.6867990  68.8511960
 107.9442630  82.4126170  55.7141820 108.3835910  81.5748600  55.5679640
 108.6571050  83.0455570  55.8005960  99.7308630  82.4346370  68.3757930
  99.5916400  83.3069170  68.7445330  98.8489990  82.0919180  68.2305870
 111.5259770  73.6668980  54.0282860 111.2132430  73.7595810  54.9281930
 112.2872240  74.2450010  53.9780290  98.0441910  81.0328780  58.4860200
  97.9239510  81.7590870  57.8741470  97.7342800  80.2631690  58.0088110
  95.6827280  84.2043920  64.2928840  95.7607700  84.3392690  63.3484560
  96.2968960  83.4959810  64.4856960  96.9274910  85.9044110  60.7035020
  96.5202990  86.0458700  59.8488620  97.8187920  85.6204270  60.5006230
 112.8837050  86.3508020  69.0407260 113.0100110  86.1119900  68.1224440
 112.9258430  85.5192560  69.5129340 112.7361060  78.4040480  70.0057000
 112.1205330  78.9120150  69.4772460 112.4157480  77.5038810  69.9482940
  95.7386800  85.2458090  66.8323300  95.9017840  84.7763450  66.0142670
  96.2039250  84.7381650  67.4972140 100.5105570  74.3763850  61.8683870
 100.0673720  75.1573390  61.5368390 101.0690560  74.6993740  62.5754810
 104.7975380  77.2432370  67.4719190 104.3354750  77.4515390  68.2839130
 104.3953490  76.4291720  67.1689860 109.7979890  78.4641320  68.6015850
 108.9473480  78.1647070  68.9224920 109.6381680  78.7083330  67.6899670
 106.8929600  79.9643070  70.7014640 107.2183010  79.1306820  70.3616870
 107.6809930  80.4871590  70.8492970 103.6264390  73.9974550  56.7489700
 103.0018570  73.9934420  57.4743010 103.5394510  73.1305510  56.3525670
 102.5481470  74.9211180  63.7273470 102.8453800  75.8274010  63.6465490
 103.0967030  74.4329960  63.1133040 100.3019790  79.4997420  59.5965120
 100.0760710  79.2834590  60.5011740  99.5212320  79.9325880  59.2511090
 107.5317550  79.5060790  58.1955770 106.9326440  80.2296590  58.0119390
 108.0797160  79.4437570  57.4132220 102.7419000  80.3983000  70.2625390
 102.6462600  79.4577730  70.1125790 103.5850980  80.6198070  69.8673460
 106.1382420  78.1424330  60.2259050 106.5311990  78.4596530  59.4127740
 106.4999270  77.2636210  60.3403570  97.8729540  76.8096670  68.4159170
  97.4792930  77.6571880  68.6231950  97.1847940  76.1723040  68.6067810
 104.4474590  76.8931640  71.4855910 103.7572910  76.7003840  72.1202000
 105.1906890  77.1766280  72.0180210  95.1746590  74.7325130  62.4489250
  94.8859640  75.3027990  63.1614230  95.9192350  74.2529580  62.8120480
  95.3616820  78.6745250  53.6591970  95.2791490  79.6176010  53.8006960
  95.0099880  78.5320160  52.7804320 106.7237560  80.7330080  64.3209830
 105.9918680  81.2416890  64.6699930 106.3261900  79.9160060  64.0198610
 103.1614950  77.4084280  62.7262320 103.1651010  76.9674230  61.8766860
 104.0566070  77.7301610  62.8334140  99.0117330  77.2910770  61.6856530
  98.6717380  77.7686000  62.4423580  98.2494650  76.8375890  61.3257630
 103.2235100  78.4096360  55.7169080 103.3447920  78.3682840  56.6654900
 102.8383610  79.2720510  55.5615810 107.1863470  76.1863760  63.7332770
 107.2036210  76.6372410  64.5774620 106.9379050  75.2869400  63.9466210
 102.2356600  80.7197500  55.1152380 101.6673500  80.2715750  54.4888290
 102.9445600  81.0790280  54.5817530 110.6134220  73.5995940  69.5719150
 110.9379990  72.8685600  70.0977130 110.6490730  73.2809580  68.6700140
  97.3125780  84.6209520  68.9919110  96.9280570  83.9803190  69.5902070
  97.6237970  85.3245640  69.5613840 103.4622920  81.4686060  64.4727730
 103.8293050  80.9944630  65.2189070 103.2727980  82.3427630  64.8136070
  96.3263410  76.2129750  60.6021200  96.0410330  75.8485420  61.4399820
  96.2642270  75.4810210  59.9884340 101.2522290  80.5094700  66.7911940
 100.9479360  81.3886680  67.0162300 102.2068750  80.5694490  66.8269380
  99.7804080  84.7155690  57.3878790  99.0066340  84.1753310  57.2277510
 100.5098710  84.1962300  57.0496550 110.5392060  83.7121050  63.1805180
 111.2591180  84.2076340  62.7901290 110.3373880  83.0338940  62.5359050
 106.0002000  75.1059010  57.3234570 105.1866610  74.6072180  57.2479880
 105.8063950  75.9457260  56.9070920 105.9210860  83.7830110  69.0674180
 105.8548170  82.8625780  68.8131770 105.2916000  83.8805550  69.7818820
 108.7150390  79.4778660  55.6196730 109.6030010  79.7895890  55.4448070
 108.6855480  78.6050910  55.2277310  99.8241480  84.3836070  61.0257600
 100.3420150  83.5804330  60.9714490  99.3725500  84.3215210  61.8674430
 104.7110980  85.6502350  56.2984900 105.0526680  86.3944580  55.8028220
 103.8823690  85.9633470  56.6609730  97.3086020  81.3497440  67.9383300
  96.9500960  82.0151290  68.5256640  97.0140580  80.5180990  68.3095920
 100.5099140  81.8081680  70.8222850 100.2099280  81.9538860  69.9250670
 101.2810380  81.2486970  70.7296240 105.8527590  86.6050680  68.8177980
 105.8672130  85.6731640  68.5996890 105.1452690  86.6910440  69.4567750
 110.9864660  80.7890500  55.0876590 110.9028380  81.2204720  54.2373030
 111.7058850  81.2488850  55.5203410 112.0638800  83.2458020  68.1646560
 111.3386990  83.8386800  67.9675950 112.5914260  83.2381560  67.3659930
 107.5938390  84.9718190  61.6630410 107.9462210  84.3746320  61.0031780
 106.7100720  84.6462420  61.8338660 103.6801670  85.7315880  59.0700820
 104.3672800  86.2785090  59.4508410 102.8934090  86.2756610  59.1050430
  95.8194070  81.3488700  54.5617900  96.6888920  81.6313500  54.8453820
  95.3284390  82.1624570  54.4466710 102.9828880  82.7361910  58.6826180
 103.4391660  83.5467160  58.9086370 102.6317090  82.4185050  59.5144670
  98.8840660  73.0799560  59.1548700  98.7555290  73.0717460  60.1033620
  98.0602680  73.4182650  58.8039710 106.5593570  86.2500600  64.6295930
 107.2015800  85.5493760  64.7428100 107.0842920  87.0299040  64.4492820
 110.4049290  86.5349220  54.3535070 110.1786870  85.8179660  54.9459710
 110.0145490  86.2861660  53.5156820  95.8834590  74.8390680  68.6155400
  95.1693110  75.0387600  69.2208010  96.3029630  74.0630250  68.9870200
 109.9865540  84.4521160  56.0149230 109.6987240  84.9133850  56.8027110
 110.7817710  83.9918930  56.2833450  97.8040580  83.1662170  56.6899960
  97.1968530  83.9061070  56.6995260  98.2789930  83.2561530  55.8638160
 107.3773370  77.3312990  66.3656850 107.7454190  76.5108200  66.6936420
 106.5171570  77.3914880  66.7812500 110.7435400  76.2869930  57.1744410
 110.1148560  76.3915600  56.4602640 110.2487320  76.5066710  57.9638290
 102.7119430  78.5655880  58.5902290 102.0035580  79.0342220  59.0315900
 102.9963910  77.9077890  59.2247480 104.3375360  79.9852580  66.5894820
 104.8360610  80.4598400  67.2546670 104.4798310  79.0616100  66.7964850
 106.7434860  75.2906540  60.0298080 106.6202640  75.3092670  59.0807590
 107.6919420  75.3385480  60.1496480 100.9154450  76.8740960  55.9653000
 101.7644980  77.3111110  55.8993190 100.5485720  77.1861220  56.7925060
 111.5442220  76.2020540  67.4323210 111.0415820  76.9425940  67.7717020
 112.3598880  76.5904540  67.1160000 109.8364230  81.4453720  60.8784570
 108.8954370  81.4603950  61.0532260 110.1508300  80.6589680  61.3244870
  99.8145870  83.1273320  54.4388530 100.5809140  83.0154680  55.0013960
  99.8920560  82.4311290  53.7865300  98.5092630  80.5598390  55.1221420
  98.5896220  79.6125900  55.2338820  99.4012380  80.8905270  55.2282080
 107.1530250  86.0019720  71.3616950 106.5468410  86.0251320  70.6212700
 106.8484360  85.2702760  71.8984200  96.0363430  82.3813310  70.3577590
  96.5402450  81.8020590  70.9293820  95.2970850  82.6653540  70.8953960
 102.9387050  85.1027500  53.9123880 102.8337690  84.4879850  54.6385260
 102.7711270  84.5793390  53.1286890 103.0901370  83.7884300  69.8913110
 102.3247040  84.3569300  69.8067780 103.2717330  83.4960510  68.9981340
 106.1789780  84.1647530  54.5165870 105.6299880  84.6116830  55.1608610
 106.8009040  83.6596780  55.0403540 110.2324720  85.5189630  70.4488130
 110.9734190  85.8565390  69.9455590 109.4697400  85.6881690  69.8957900
  98.0686510  80.5242900  71.2527660  98.1091850  80.2256770  72.1612890
  98.9232010  80.9250510  71.0935180 101.8464900  83.1238450  56.4131170
 102.2681320  82.9578320  57.2562560 101.9715740  82.3138680  55.9186310
 100.0092320  79.1035000  69.2202150  99.4788780  78.6125950  68.5925490
 100.6780390  79.5319200  68.6860080 104.3592540  82.1476060  53.6608270
 104.8798200  81.4325080  53.2949420 105.0060940  82.7861930  53.9608780
 108.9070380  83.5704460  68.9843340 109.3211400  83.7249540  69.8333760
 107.9721380  83.6959680  69.1469120 109.3792550  80.9100620  70.9882490
 109.9613320  80.1552940  70.9002970 109.5554320  81.4408060  70.2113970
 100.4964620  76.0697370  69.2999440 100.4021490  75.4518120  68.5750310
  99.9162010  76.7963660  69.0729350 103.2626060  74.6270610  66.3326830
 102.8143360  74.6494870  65.4872380 102.6291260  74.2289630  66.9297130
 103.6685610  83.5224940  66.9539270 104.0873720  84.3657670  66.7815510
 102.7494240  83.6596980  66.7246050 106.0049510  81.2541120  68.3377110
 106.1245720  80.6582260  69.0771950 106.8643510  81.2910810  67.9178410
 108.3437410  81.8078310  66.9139620 107.8172630  82.3320930  66.3104760
 108.6868750  82.4405700  67.5449350 100.7423800  79.1971680  53.3589330
 100.5412860  78.3339040  53.7202670 100.5715850  79.1105040  52.4210930
 102.7718280  77.7962470  69.5952930 103.3617970  77.4878320  70.2830750
 101.9538520  77.3242220  69.7512830 107.5911710  77.4128280  69.8285950
 106.9027230  76.7509820  69.7635940 108.3117730  76.9666550  70.2734410
 108.2212110  74.0079910  55.8876210 108.5014400  73.1647810  56.2435630
 107.4477840  74.2403020  56.4014960  99.5406600  76.2972300  53.3467210
  99.8432500  76.3039730  52.4386360 100.2801190  75.9470160  53.8434870
 102.7591530  75.2406920  54.3323410 102.4113530  74.5630910  53.7525860
 102.9604300  74.7796430  55.1466800  98.5636730  85.6014720  54.1797010
  99.0011600  86.1444390  54.8354590  99.0484460  84.7761670  54.1893350
 100.3744450  86.7212760  59.2919240 100.0739990  86.5977730  60.1923150
 100.2681940  85.8621350  58.8834970 112.5992830  83.2456640  56.4980120
 113.3611740  83.8153290  56.6039810 112.6147200  82.6783840  57.2688430
  96.0997170  81.7694570  60.7287780  95.4446010  81.5006210  60.0847480
  96.9375120  81.6599050  60.2789760 110.5886560  85.4843320  66.7552370
 109.7746400  85.9140480  67.0178160 110.9960760  86.0961730  66.1421420
 112.6512000  83.5391010  53.6552640 112.9260840  84.4469890  53.5271860
 112.4622740  83.4753540  54.5914630 109.0487610  76.5635860  54.9506270
 109.4672490  76.3766840  54.1102930 108.7423670  75.7114910  55.2609200
 112.5477340  81.4760000  58.6482070 112.1720940  80.7087930  58.2163360
 111.8180460  81.8582700  59.1357000  97.1373100  82.1547140  65.2691120
  97.5046140  82.0674540  66.1487140  96.5683920  81.3913690  65.1697980
 111.9376960  80.6231520  68.2821590 111.7063050  80.3944270  67.3819540
 112.1981510  81.5431070  68.2366480  96.6889100  79.0656230  69.1749540
  95.7945150  79.0322990  69.5143250  97.2286650  79.2643020  69.9400790
 110.3765030  75.8487950  71.0601290 111.2535210  75.8571350  71.4435290
 110.3885870  75.1118790  70.4493640  95.3135250  78.9793500  56.6713110
  94.4099330  79.2423700  56.4964770  95.7975870  79.2504670  55.8913070
 111.8228300  79.7017490  61.9489310 112.3465780  79.2080140  61.3179480
 112.4087720  79.8367850  62.6936880 112.0018020  79.7857360  65.4708860
 111.0520730  79.7520900  65.5853850 112.1831030  80.6957470  65.2358630
  97.8562460  78.0359040  54.5807490  98.5654160  77.6142260  54.0954770
  97.1402400  78.1034270  53.9490840  97.5036620  74.0898370  53.6210140
  98.2264750  74.6307310  53.9391360  97.7761140  73.8161790  52.7451680
 111.3128270  78.9590840  57.8881720 111.8087390  78.7261710  58.6730600
 111.1144340  78.1202680  57.4719360  97.1928810  73.3404560  63.5232760
  97.8405000  72.7901940  63.0827920  97.6130650  73.5947710  64.3448570
 111.0881150  73.5345920  66.8802400 111.7253370  74.1480060  67.2461590
 111.2356040  73.5706580  65.9351630  96.9460810  73.4960230  66.2658080
  96.5975630  73.9524050  67.0316260  96.6148510  72.6017360  66.3480510
 104.4585630  74.6872110  69.7877500 104.3974520  75.2793940  70.5372910
 105.3986010  74.5798070  69.6427760 107.0960190  74.3442170  69.4269790
 107.7100600  74.6621460  68.7650870 107.6409750  73.8590760  70.0465650
  97.6181450  73.0236430  69.5408850  98.1664440  72.8424480  68.7774960
  97.6836760  72.2330540  70.0765160 107.8368230  72.9074310  65.7539080
 106.9628070  73.2409420  65.5512010 107.7278980  72.4347490  66.5790950
 108.7440210  75.1145180  67.1380800 108.4153570  74.2996940  66.7582530
 109.6922510  75.0714990  67.0146490 105.5843050  73.8244150  64.6931990
 104.8014840  74.2989650  64.9728750 105.2905980  72.9198980  64.5845170
 110.1364120  74.5267250  62.7381080 110.5772210  74.4712350  61.8902680
 109.8671710  75.4425260  62.8091260 112.0002690  74.1582490  60.7489900
 111.9391090  73.2143710  60.6020920 112.7794720  74.2662580  61.2943360
  96.9283460  74.1291630  57.2145710  97.6862820  74.2420510  56.6409740
  96.4660630  74.9660830  57.1689140 103.4697270  76.2430900  60.2048020
 102.6571780  75.8687790  59.8643900 103.9738910  75.4875980  60.5069210
 107.9722250  72.9073350  61.4431090 108.5751620  73.4793560  61.9179610
 107.2315240  73.4712790  61.2204990 111.1156850  73.3094910  56.7171370
 111.3107480  74.2078360  56.9838800 110.3286720  73.0781990  57.2104320
  99.3008610  74.6555680  55.7547680  99.8301370  73.8685480  55.6255630
  99.9336930  75.3346870  55.9883210 101.4946450  74.3930820  58.8093070
 100.8649190  73.6918130  58.9763200 100.9551590  75.1534950  58.5926230
 101.6202010  73.6714800  71.2445560 101.3386280  74.1748400  70.4806380
 102.0021710  72.8736550  70.8787690 108.2217470  73.0868380  71.8226030
 108.1082920  73.4062990  72.7177550 109.0387210  73.4880890  71.5263310
 107.1275620  81.1060850  42.1860770 107.0469670  80.1915460  41.9152480
 106.7140040  81.6027920  41.4800480 105.2593660  82.8839870  44.0670040
 104.4835760  82.4040310  44.3568610 105.9106590  82.2045520  43.8926200
  99.2759490  83.1959680  44.9445800  98.4444370  82.9408390  45.3442310
  99.8840470  83.2670450  45.6803720  97.6851440  78.1561570  38.7288190
  96.7968140  78.4977540  38.6268070  97.9692630  77.9561890  37.8369020
  95.6484450  80.7567220  44.6127890  96.2200560  79.9889420  44.6131530
  95.6485990  81.0555980  43.7034500 104.7002650  85.5597060  44.0740200
 104.6310930  84.6187000  43.9129330 105.4622510  85.6498470  44.6462770
  96.8909320  76.1651580  46.3996820  96.7112160  75.2677330  46.6799580
  96.4889400  76.7123450  47.0743770 105.7307820  78.3667440  44.3009130
 106.1072640  77.4939320  44.1882800 105.6327330  78.7026140  43.4099570
  99.8612830  76.7393070  39.7626570  99.9679580  77.6396800  40.0695330
  98.9505190  76.6911040  39.4721220 109.5131940  75.8617880  41.2337470
 110.3341560  75.3714450  41.2762950 109.5466020  76.4515540  41.9869310
  97.5095990  78.6612080  45.0079160  98.1906100  78.9250450  45.6266560
  97.1944040  77.8212950  45.3417170 101.7020560  79.7079440  44.0951750
 102.2098780  80.2060410  44.7356770 102.2333800  78.9314640  43.9191110
  99.9856660  74.3478000  48.3615170  99.9875100  74.8650390  47.5561070
  99.1560970  73.8708180  48.3385100 106.3727750  84.4597310  39.8605070
 105.7545020  84.9246760  39.2967790 106.8851000  85.1524790  40.2774580
 101.2359510  83.9873180  46.5388670 100.9028890  84.6142100  47.1809740
 101.4126190  84.5135060  45.7590340 109.7493420  77.8018260  44.0065010
 109.0448990  78.0903150  44.5868120 110.1105580  78.6118370  43.6464570
  99.6671990  76.0587960  46.3685620 100.0088800  76.9030010  46.0739490
  98.7287800  76.2071700  46.4850960 100.4478610  85.9553980  48.3537850
 101.0652610  86.6305060  48.0722300  99.5871730  86.3641960  48.2625350
  95.7410950  85.1453840  37.2344700  95.3638930  85.6340940  36.5029600
  95.9984020  85.8179120  37.8651230 112.8180340  77.2473050  44.3974220
 111.8705250  77.2812030  44.5289650 113.1430330  78.0612000  44.7823580
 103.3499880  73.5470230  42.6930210 103.6574860  72.9917120  41.9765710
 102.4200580  73.6814690  42.5103200 110.1960360  85.9853740  40.0727840
 110.0856690  85.0428070  40.1977260 110.1928610  86.3469380  40.9590600
 108.3000380  84.1667360  46.3120280 108.7169170  83.9527470  45.4773740
 109.0240200  84.4240150  46.8828900 105.7380640  81.6119060  39.4290330
 104.8109920  81.5456440  39.6578800 105.8905460  82.5499190  39.3145570
 105.7249720  77.8836060  36.4257490 104.7853390  78.0450020  36.5109950
 106.0432980  78.6021740  35.8793480 112.2462480  82.5654580  46.4036520
 111.4181110  82.6347670  45.9286650 112.8412960  83.1508890  45.9352350
 109.7677930  83.1739360  39.9325580 109.1490350  82.8358910  39.2851880
 109.7502380  82.5299120  40.6404770 109.2104490  79.3523900  47.3491390
 108.7975670  80.1777610  47.6031380 108.4780440  78.7668940  47.1567750
 101.3437280  82.1383800  42.2110060 100.9394280  81.4261050  41.7155960
 101.4300400  81.7937040  43.0998100 101.8118980  85.8251360  44.3749270
 101.5147270  85.2196830  43.6957050 102.7618800  85.8628670  44.2638630
 100.0565900  78.9127010  45.9909100 100.6080490  79.0222350  45.2162350
 100.5709410  79.2864610  46.7064330 100.9037410  85.5633050  51.0257070
 100.0065940  85.7873020  51.2730470 100.9290280  85.6867990  50.0768470
 107.9442630  82.4126170  36.9398330 108.3835910  81.5748600  36.7936150
 108.6571050  83.0455570  37.0262470  99.7308630  82.4346370  49.6014440
  99.5916400  83.3069170  49.9701840  98.8489990  82.0919180  49.4562380
 111.5259770  73.6668980  35.2539370 111.2132430  73.7595810  36.1538440
 112.2872240  74.2450010  35.2036800  98.0441910  81.0328780  39.7116710
  97.9239510  81.7590870  39.0997980  97.7342800  80.2631690  39.2344620
  95.6827280  84.2043920  45.5185350  95.7607700  84.3392690  44.5741070
  96.2968960  83.4959810  45.7113470  96.9274910  85.9044110  41.9291530
  96.5202990  86.0458700  41.0745130  97.8187920  85.6204270  41.7262740
 112.8837050  86.3508020  50.2663770 113.0100110  86.1119900  49.3480950
 112.9258430  85.5192560  50.7385850 112.7361060  78.4040480  51.2313510
 112.1205330  78.9120150  50.7028970 112.4157480  77.5038810  51.1739450
  95.7386800  85.2458090  48.0579810  95.9017840  84.7763450  47.2399180
  96.2039250  84.7381650  48.7228650 100.5105570  74.3763850  43.0940380
 100.0673720  75.1573390  42.7624900 101.0690560  74.6993740  43.8011320
 104.7975380  77.2432370  48.6975700 104.3354750  77.4515390  49.5095640
 104.3953490  76.4291720  48.3946370 109.7979890  78.4641320  49.8272360
 108.9473480  78.1647070  50.1481430 109.6381680  78.7083330  48.9156180
 106.8929600  79.9643070  51.9271150 107.2183010  79.1306820  51.5873380
 107.6809930  80.4871590  52.0749480 103.6264390  73.9974550  37.9746210
 103.0018570  73.9934420  38.6999520 103.5394510  73.1305510  37.5782180
 102.5481470  74.9211180  44.9529980 102.8453800  75.8274010  44.8722000
 103.0967030  74.4329960  44.3389550 100.3019790  79.4997420  40.8221630
 100.0760710  79.2834590  41.7268250  99.5212320  79.9325880  40.4767600
 107.5317550  79.5060790  39.4212280 106.9326440  80.2296590  39.2375900
 108.0797160  79.4437570  38.6388730 102.7419000  80.3983000  51.4881900
 102.6462600  79.4577730  51.3382300 103.5850980  80.6198070  51.0929970
 106.1382420  78.1424330  41.4515560 106.5311990  78.4596530  40.6384250
 106.4999270  77.2636210  41.5660080  97.8729540  76.8096670  49.6415680
  97.4792930  77.6571880  49.8488460  97.1847940  76.1723040  49.8324320
 104.4474590  76.8931640  52.7112420 103.7572910  76.7003840  53.3458510
 105.1906890  77.1766280  53.2436720  95.1746590  74.7325130  43.6745760
  94.8859640  75.3027990  44.3870740  95.9192350  74.2529580  44.0376990
  95.3616820  78.6745250  34.8848480  95.2791490  79.6176010  35.0263470
  95.0099880  78.5320160  34.0060830 106.7237560  80.7330080  45.5466340
 105.9918680  81.2416890  45.8956440 106.3261900  79.9160060  45.2455120
 103.1614950  77.4084280  43.9518830 103.1651010  76.9674230  43.1023370
 104.0566070  77.7301610  44.0590650  99.0117330  77.2910770  42.9113040
  98.6717380  77.7686000  43.6680090  98.2494650  76.8375890  42.5514140
 103.2235100  78.4096360  36.9425590 103.3447920  78.3682840  37.8911410
 102.8383610  79.2720510  36.7872320 107.1863470  76.1863760  44.9589280
 107.2036210  76.6372410  45.8031130 106.9379050  75.2869400  45.1722720
 102.2356600  80.7197500  36.3408890 101.6673500  80.2715750  35.7144800
 102.9445600  81.0790280  35.8074040 110.6134220  73.5995940  50.7975660
 110.9379990  72.8685600  51.3233640 110.6490730  73.2809580  49.8956650
  97.3125780  84.6209520  50.2175620  96.9280570  83.9803190  50.8158580
  97.6237970  85.3245640  50.7870350 103.4622920  81.4686060  45.6984240
 103.8293050  80.9944630  46.4445580 103.2727980  82.3427630  46.0392580
  96.3263410  76.2129750  41.8277710  96.0410330  75.8485420  42.6656330
  96.2642270  75.4810210  41.2140850 101.2522290  80.5094700  48.0168450
 100.9479360  81.3886680  48.2418810 102.2068750  80.5694490  48.0525890
  99.7804080  84.7155690  38.6135300  99.0066340  84.1753310  38.4534020
 100.5098710  84.1962300  38.2753060 110.5392060  83.7121050  44.4061690
 111.2591180  84.2076340  44.0157800 110.3373880  83.0338940  43.7615560
 106.0002000  75.1059010  38.5491080 105.1866610  74.6072180  38.4736390
 105.8063950  75.9457260  38.1327430 105.9210860  83.7830110  50.2930690
 105.8548170  82.8625780  50.0388280 105.2916000  83.8805550  51.0075330
 108.7150390  79.4778660  36.8453240 109.6030010  79.7895890  36.6704580
 108.6855480  78.6050910  36.4533820  99.8241480  84.3836070  42.2514110
 100.3420150  83.5804330  42.1971000  99.3725500  84.3215210  43.0930940
 104.7110980  85.6502350  37.5241410 105.0526680  86.3944580  37.0284730
 103.8823690  85.9633470  37.8866240  97.3086020  81.3497440  49.1639810
  96.9500960  82.0151290  49.7513150  97.0140580  80.5180990  49.5352430
 100.5099140  81.8081680  52.0479360 100.2099280  81.9538860  51.1507180
 101.2810380  81.2486970  51.9552750 105.8527590  86.6050680  50.0434490
 105.8672130  85.6731640  49.8253400 105.1452690  86.6910440  50.6824260
 110.9864660  80.7890500  36.3133100 110.9028380  81.2204720  35.4629540
 111.7058850  81.2488850  36.7459920 112.0638800  83.2458020  49.3903070
 111.3386990  83.8386800  49.1932460 112.5914260  83.2381560  48.5916440
 107.5938390  84.9718190  42.8886920 107.9462210  84.3746320  42.2288290
 106.7100720  84.6462420  43.0595170 103.6801670  85.7315880  40.2957330
 104.3672800  86.2785090  40.6764920 102.8934090  86.2756610  40.3306940
  95.8194070  81.3488700  35.7874410  96.6888920  81.6313500  36.0710330
  95.3284390  82.1624570  35.6723220 102.9828880  82.7361910  39.9082690
 103.4391660  83.5467160  40.1342880 102.6317090  82.4185050  40.7401180
  98.8840660  73.0799560  40.3805210  98.7555290  73.0717460  41.3290130
  98.0602680  73.4182650  40.0296220 106.5593570  86.2500600  45.8552440
 107.2015800  85.5493760  45.9684610 107.0842920  87.0299040  45.6749330
 110.4049290  86.5349220  35.5791580 110.1786870  85.8179660  36.1716220
 110.0145490  86.2861660  34.7413330  95.8834590  74.8390680  49.8411910
  95.1693110  75.0387600  50.4464520  96.3029630  74.0630250  50.2126710
 109.9865540  84.4521160  37.2405740 109.6987240  84.9133850  38.0283620
 110.7817710  83.9918930  37.5089960  97.8040580  83.1662170  37.9156470
  97.1968530  83.9061070  37.9251770  98.2789930  83.2561530  37.0894670
 107.3773370  77.3312990  47.5913360 107.7454190  76.5108200  47.9192930
 106.5171570  77.3914880  48.0069010 110.7435400  76.2869930  38.4000920
 110.1148560  76.3915600  37.6859150 110.2487320  76.5066710  39.1894800
 102.7119430  78.5655880  39.8158800 102.0035580  79.0342220  40.2572410
 102.9963910  77.9077890  40.4503990 104.3375360  79.9852580  47.8151330
 104.8360610  80.4598400  48.4803180 104.4798310  79.0616100  48.0221360
 106.7434860  75.2906540  41.2554590 106.6202640  75.3092670  40.3064100
 107.6919420  75.3385480  41.3752990 100.9154450  76.8740960  37.1909510
 101.7644980  77.3111110  37.1249700 100.5485720  77.1861220  38.0181570
 111.5442220  76.2020540  48.6579720 111.0415820  76.9425940  48.9973530
 112.3598880  76.5904540  48.3416510 109.8364230  81.4453720  42.1041080
 108.8954370  81.4603950  42.2788770 110.1508300  80.6589680  42.5501380
  99.8145870  83.1273320  35.6645040 100.5809140  83.0154680  36.2270470
  99.8920560  82.4311290  35.0121810  98.5092630  80.5598390  36.3477930
  98.5896220  79.6125900  36.4595330  99.4012380  80.8905270  36.4538590
 107.1530250  86.0019720  52.5873460 106.5468410  86.0251320  51.8469210
 106.8484360  85.2702760  53.1240710  96.0363430  82.3813310  51.5834100
  96.5402450  81.8020590  52.1550330  95.2970850  82.6653540  52.1210470
 102.9387050  85.1027500  35.1380390 102.8337690  84.4879850  35.8641770
 102.7711270  84.5793390  34.3543400 103.0901370  83.7884300  51.1169620
 102.3247040  84.3569300  51.0324290 103.2717330  83.4960510  50.2237850
 106.1789780  84.1647530  35.7422380 105.6299880  84.6116830  36.3865120
 106.8009040  83.6596780  36.2660050 110.2324720  85.5189630  51.6744640
 110.9734190  85.8565390  51.1712100 109.4697400  85.6881690  51.1214410
  98.0686510  80.5242900  52.4784170  98.1091850  80.2256770  53.3869400
  98.9232010  80.9250510  52.3191690 101.8464900  83.1238450  37.6387680
 102.2681320  82.9578320  38.4819070 101.9715740  82.3138680  37.1442820
 100.0092320  79.1035000  50.4458660  99.4788780  78.6125950  49.8182000
 100.6780390  79.5319200  49.9116590 104.3592540  82.1476060  34.8864780
 104.8798200  81.4325080  34.5205930 105.0060940  82.7861930  35.1865290
 108.9070380  83.5704460  50.2099850 109.3211400  83.7249540  51.0590270
 107.9721380  83.6959680  50.3725630 109.3792550  80.9100620  52.2139000
 109.9613320  80.1552940  52.1259480 109.5554320  81.4408060  51.4370480
 100.4964620  76.0697370  50.5255950 100.4021490  75.4518120  49.8006820
  99.9162010  76.7963660  50.2985860 103.2626060  74.6270610  47.5583340
 102.8143360  74.6494870  46.7128890 102.6291260  74.2289630  48.1553640
 103.6685610  83.5224940  48.1795780 104.0873720  84.3657670  48.0072020
 102.7494240  83.6596980  47.9502560 106.0049510  81.2541120  49.5633620
 106.1245720  80.6582260  50.3028460 106.8643510  81.2910810  49.1434920
 108.3437410  81.8078310  48.1396130 107.8172630  82.3320930  47.5361270
 108.6868750  82.4405700  48.7705860 100.7423800  79.1971680  34.5845840
 100.5412860  78.3339040  34.9459180 100.5715850  79.1105040  33.6467440
 102.7718280  77.7962470  50.8209440 103.3617970  77.4878320  51.5087260
 101.9538520  77.3242220  50.9769340 107.5911710  77.4128280  51.0542460
 106.9027230  76.7509820  50.9892450 108.3117730  76.9666550  51.4990920
 108.2212110  74.0079910  37.1132720 108.5014400  73.1647810  37.4692140
 107.4477840  74.2403020  37.6271470  99.5406600  76.2972300  34.5723720
  99.8432500  76.3039730  33.6642870 100.2801190  75.9470160  35.0691380
 102.7591530  75.2406920  35.5579920 102.4113530  74.5630910  34.9782370
 102.9604300  74.7796430  36.3723310  98.5636730  85.6014720  35.4053520
  99.0011600  86.1444390  36.0611100  99.0484460  84.7761670  35.4149860
 100.3744450  86.7212760  40.5175750 100.0739990  86.5977730  41.4179660
 100.2681940  85.8621350  40.1091480 112.5992830  83.2456640  37.7236630
 113.3611740  83.8153290  37.8296320 112.6147200  82.6783840  38.4944940
  96.0997170  81.7694570  41.9544290  95.4446010  81.5006210  41.3103990
  96.9375120  81.6599050  41.5046270 110.5886560  85.4843320  47.9808880
 109.7746400  85.9140480  48.2434670 110.9960760  86.0961730  47.3677930
 112.6512000  83.5391010  34.8809150 112.9260840  84.4469890  34.7528370
 112.4622740  83.4753540  35.8171140 109.0487610  76.5635860  36.1762780
 109.4672490  76.3766840  35.3359440 108.7423670  75.7114910  36.4865710
 112.5477340  81.4760000  39.8738580 112.1720940  80.7087930  39.4419870
 111.8180460  81.8582700  40.3613510  97.1373100  82.1547140  46.4947630
  97.5046140  82.0674540  47.3743650  96.5683920  81.3913690  46.3954490
 111.9376960  80.6231520  49.5078100 111.7063050  80.3944270  48.6076050
 112.1981510  81.5431070  49.4622990  96.6889100  79.0656230  50.4006050
  95.7945150  79.0322990  50.7399760  97.2286650  79.2643020  51.1657300
 110.3765030  75.8487950  52.2857800 111.2535210  75.8571350  52.6691800
 110.3885870  75.1118790  51.6750150  95.3135250  78.9793500  37.8969620
  94.4099330  79.2423700  37.7221280  95.7975870  79.2504670  37.1169580
 111.8228300  79.7017490  43.1745820 112.3465780  79.2080140  42.5435990
 112.4087720  79.8367850  43.9193390 112.0018020  79.7857360  46.6965370
 111.0520730  79.7520900  46.8110360 112.1831030  80.6957470  46.4615140
  97.8562460  78.0359040  35.8064000  98.5654160  77.6142260  35.3211280
  97.1402400  78.1034270  35.1747350  97.5036620  74.0898370  34.8466650
  98.2264750  74.6307310  35.1647870  97.7761140  73.8161790  33.9708190
 111.3128270  78.9590840  39.1138230 111.8087390  78.7261710  39.8987110
 111.1144340  78.1202680  38.6975870  97.1928810  73.3404560  44.7489270
  97.8405000  72.7901940  44.3084430  97.6130650  73.5947710  45.5705080
 111.0881150  73.5345920  48.1058910 111.7253370  74.1480060  48.4718100
 111.2356040  73.5706580  47.1608140  96.9460810  73.4960230  47.4914590
  96.5975630  73.9524050  48.2572770  96.6148510  72.6017360  47.5737020
 104.4585630  74.6872110  51.0134010 104.3974520  75.2793940  51.7629420
 105.3986010  74.5798070  50.8684270 107.0960190  74.3442170  50.6526300
 107.7100600  74.6621460  49.9907380 107.6409750  73.8590760  51.2722160
  97.6181450  73.0236430  50.7665360  98.1664440  72.8424480  50.0031470
  97.6836760  72.2330540  51.3021670 107.8368230  72.9074310  46.9795590
 106.9628070  73.2409420  46.7768520 107.7278980  72.4347490  47.8047460
 108.7440210  75.1145180  48.3637310 108.4153570  74.2996940  47.9839040
 109.6922510  75.0714990  48.2403000 105.5843050  73.8244150  45.9188500
 104.8014840  74.2989650  46.1985260 105.2905980  72.9198980  45.8101680
 110.1364120  74.5267250  43.9637590 110.5772210  74.4712350  43.1159190
 109.8671710  75.4425260  44.0347770 112.0002690  74.1582490  41.9746410
 111.9391090  73.2143710  41.8277430 112.7794720  74.2662580  42.5199870
  96.9283460  74.1291630  38.4402220  97.6862820  74.2420510  37.8666250
  96.4660630  74.9660830  38.3945650 103.4697270  76.2430900  41.4304530
 102.6571780  75.8687790  41.0900410 103.9738910  75.4875980  41.7325720
 107.9722250  72.9073350  42.6687600 108.5751620  73.4793560  43.1436120
 107.2315240  73.4712790  42.4461500 111.1156850  73.3094910  37.9427880
 111.3107480  74.2078360  38.2095310 110.3286720  73.0781990  38.4360830
  99.3008610  74.6555680  36.9804190  99.8301370  73.8685480  36.8512140
  99.9336930  75.3346870  37.2139720 101.4946450  74.3930820  40.0349580
 100.8649190  73.6918130  40.2019710 100.9551590  75.1534950  39.8182740
 101.6202010  73.6714800  52.4702070 101.3386280  74.1748400  51.7062890
 102.0021710  72.8736550  52.1044200 108.2217470  73.0868380  53.0482540
 108.1082920  73.4062990  53.9434060 109.0387210  73.4880890  52.7519820
 107.1275620  81.1060850  23.4117280 107.0469670  80.1915460  23.1408990
 106.7140040  81.6027920  22.7056990 105.2593660  82.8839870  25.2926550
 104.4835760  82.4040310  25.5825120 105.9106590  82.2045520  25.1182710
  99.2759490  83.1959680  26.1702310  98.4444370  82.9408390  26.5698820
  99.8840470  83.2670450  26.9060230  97.6851440  78.1561570  19.9544700
  96.7968140  78.4977540  19.8524580  97.9692630  77.9561890  19.0625530
  95.6484450  80.7567220  25.8384400  96.2200560  79.9889420  25.8388040
  95.6485990  81.0555980  24.9291010 104.7002650  85.5597060  25.2996710
 104.6310930  84.6187000  25.1385840 105.4622510  85.6498470  25.8719280
  96.8909320  76.1651580  27.6253330  96.7112160  75.2677330  27.9056090
  96.4889400  76.7123450  28.3000280 105.7307820  78.3667440  25.5265640
 106.1072640  77.4939320  25.4139310 105.6327330  78.7026140  24.6356080
  99.8612830  76.7393070  20.9883080  99.9679580  77.6396800  21.2951840
  98.9505190  76.6911040  20.6977730 109.5131940  75.8617880  22.4593980
 110.3341560  75.3714450  22.5019460 109.5466020  76.4515540  23.2125820
  97.5095990  78.6612080  26.2335670  98.1906100  78.9250450  26.8523070
  97.1944040  77.8212950  26.5673680 101.7020560  79.7079440  25.3208260
 102.2098780  80.2060410  25.9613280 102.2333800  78.9314640  25.1447620
  99.9856660  74.3478000  29.5871680  99.9875100  74.8650390  28.7817580
  99.1560970  73.8708180  29.5641610 106.3727750  84.4597310  21.0861580
 105.7545020  84.9246760  20.5224300 106.8851000  85.1524790  21.5031090
 101.2359510  83.9873180  27.7645180 100.9028890  84.6142100  28.4066250
 101.4126190  84.5135060  26.9846850 109.7493420  77.8018260  25.2321520
 109.0448990  78.0903150  25.8124630 110.1105580  78.6118370  24.8721080
  99.6671990  76.0587960  27.5942130 100.0088800  76.9030010  27.2996000
  98.7287800  76.2071700  27.7107470 100.4478610  85.9553980  29.5794360
 101.0652610  86.6305060  29.2978810  99.5871730  86.3641960  29.4881860
  95.7410950  85.1453840  18.4601210  95.3638930  85.6340940  17.7286110
  95.9984020  85.8179120  19.0907740 112.8180340  77.2473050  25.6230730
 111.8705250  77.2812030  25.7546160 113.1430330  78.0612000  26.0080090
 103.3499880  73.5470230  23.9186720 103.6574860  72.9917120  23.2022220
 102.4200580  73.6814690  23.7359710 110.1960360  85.9853740  21.2984350
 110.0856690  85.0428070  21.4233770 110.1928610  86.3469380  22.1847110
 108.3000380  84.1667360  27.5376790 108.7169170  83.9527470  26.7030250
 109.0240200  84.4240150  28.1085410 105.7380640  81.6119060  20.6546840
 104.8109920  81.5456440  20.8835310 105.8905460  82.5499190  20.5402080
 105.7249720  77.8836060  17.6514000 104.7853390  78.0450020  17.7366460
 106.0432980  78.6021740  17.1049990 112.2462480  82.5654580  27.6293030
 111.4181110  82.6347670  27.1543160 112.8412960  83.1508890  27.1608860
 109.7677930  83.1739360  21.1582090 109.1490350  82.8358910  20.5108390
 109.7502380  82.5299120  21.8661280 109.2104490  79.3523900  28.5747900
 108.7975670  80.1777610  28.8287890 108.4780440  78.7668940  28.3824260
 101.3437280  82.1383800  23.4366570 100.9394280  81.4261050  22.9412470
 101.4300400  81.7937040  24.3254610 101.8118980  85.8251360  25.6005780
 101.5147270  85.2196830  24.9213560 102.7618800  85.8628670  25.4895140
 100.0565900  78.9127010  27.2165610 100.6080490  79.0222350  26.4418860
 100.5709410  79.2864610  27.9320840 100.9037410  85.5633050  32.2513580
 100.0065940  85.7873020  32.4986980 100.9290280  85.6867990  31.3024980
 107.9442630  82.4126170  18.1654840 108.3835910  81.5748600  18.0192660
 108.6571050  83.0455570  18.2518980  99.7308630  82.4346370  30.8270950
  99.5916400  83.3069170  31.1958350  98.8489990  82.0919180  30.6818890
 111.5259770  73.6668980  16.4795880 111.2132430  73.7595810  17.3794950
 112.2872240  74.2450010  16.4293310  98.0441910  81.0328780  20.9373220
  97.9239510  81.7590870  20.3254490  97.7342800  80.2631690  20.4601130
  95.6827280  84.2043920  26.7441860  95.7607700  84.3392690  25.7997580
  96.2968960  83.4959810  26.9369980  96.9274910  85.9044110  23.1548040
  96.5202990  86.0458700  22.3001640  97.8187920  85.6204270  22.9519250
 112.8837050  86.3508020  31.4920280 113.0100110  86.1119900  30.5737460
 112.9258430  85.5192560  31.9642360 112.7361060  78.4040480  32.4570020
 112.1205330  78.9120150  31.9285480 112.4157480  77.5038810  32.3995960
  95.7386800  85.2458090  29.2836320  95.9017840  84.7763450  28.4655690
  96.2039250  84.7381650  29.9485160 100.5105570  74.3763850  24.3196890
 100.0673720  75.1573390  23.9881410 101.0690560  74.6993740  25.0267830
 104.7975380  77.2432370  29.9232210 104.3354750  77.4515390  30.7352150
 104.3953490  76.4291720  29.6202880 109.7979890  78.4641320  31.0528870
 108.9473480  78.1647070  31.3737940 109.6381680  78.7083330  30.1412690
 106.8929600  79.9643070  33.1527660 107.2183010  79.1306820  32.8129890
 107.6809930  80.4871590  33.3005990 103.6264390  73.9974550  19.2002720
 103.0018570  73.9934420  19.9256030 103.5394510  73.1305510  18.8038690
 102.5481470  74.9211180  26.1786490 102.8453800  75.8274010  26.0978510
 103.0967030  74.4329960  25.5646060 100.3019790  79.4997420  22.0478140
 100.0760710  79.2834590  22.9524760  99.5212320  79.9325880  21.7024110
 107.5317550  79.5060790  20.6468790 106.9326440  80.2296590  20.4632410
 108.0797160  79.4437570  19.8645240 102.7419000  80.3983000  32.7138410
 102.6462600  79.4577730  32.5638810 103.5850980  80.6198070  32.3186480
 106.1382420  78.1424330  22.6772070 106.5311990  78.4596530  21.8640760
 106.4999270  77.2636210  22.7916590  97.8729540  76.8096670  30.8672190
  97.4792930  77.6571880  31.0744970  97.1847940  76.1723040  31.0580830
 104.4474590  76.8931640  33.9368930 103.7572910  76.7003840  34.5715020
 105.1906890  77.1766280  34.4693230  95.1746590  74.7325130  24.9002270
  94.8859640  75.3027990  25.6127250  95.9192350  74.2529580  25.2633500
  95.3616820  78.6745250  16.1104990  95.2791490  79.6176010  16.2519980
  95.0099880  78.5320160  15.2317340 106.7237560  80.7330080  26.7722850
 105.9918680  81.2416890  27.1212950 106.3261900  79.9160060  26.4711630
 103.1614950  77.4084280  25.1775340 103.1651010  76.9674230  24.3279880
 104.0566070  77.7301610  25.2847160  99.0117330  77.2910770  24.1369550
  98.6717380  77.7686000  24.8936600  98.2494650  76.8375890  23.7770650
 103.2235100  78.4096360  18.1682100 103.3447920  78.3682840  19.1167920
 102.8383610  79.2720510  18.0128830 107.1863470  76.1863760  26.1845790
 107.2036210  76.6372410  27.0287640 106.9379050  75.2869400  26.3979230
 102.2356600  80.7197500  17.5665400 101.6673500  80.2715750  16.9401310
 102.9445600  81.0790280  17.0330550 110.6134220  73.5995940  32.0232170
 110.9379990  72.8685600  32.5490150 110.6490730  73.2809580  31.1213160
  97.3125780  84.6209520  31.4432130  96.9280570  83.9803190  32.0415090
  97.6237970  85.3245640  32.0126860 103.4622920  81.4686060  26.9240750
 103.8293050  80.9944630  27.6702090 103.2727980  82.3427630  27.2649090
  96.3263410  76.2129750  23.0534220  96.0410330  75.8485420  23.8912840
  96.2642270  75.4810210  22.4397360 101.2522290  80.5094700  29.2424960
 100.9479360  81.3886680  29.4675320 102.2068750  80.5694490  29.2782400
  99.7804080  84.7155690  19.8391810  99.0066340  84.1753310  19.6790530
 100.5098710  84.1962300  19.5009570 110.5392060  83.7121050  25.6318200
 111.2591180  84.2076340  25.2414310 110.3373880  83.0338940  24.9872070
 106.0002000  75.1059010  19.7747590 105.1866610  74.6072180  19.6992900
 105.8063950  75.9457260  19.3583940 105.9210860  83.7830110  31.5187200
 105.8548170  82.8625780  31.2644790 105.2916000  83.8805550  32.2331840
 108.7150390  79.4778660  18.0709750 109.6030010  79.7895890  17.8961090
 108.6855480  78.6050910  17.6790330  99.8241480  84.3836070  23.4770620
 100.3420150  83.5804330  23.4227510  99.3725500  84.3215210  24.3187450
 104.7110980  85.6502350  18.7497920 105.0526680  86.3944580  18.2541240
 103.8823690  85.9633470  19.1122750  97.3086020  81.3497440  30.3896320
  96.9500960  82.0151290  30.9769660  97.0140580  80.5180990  30.7608940
 100.5099140  81.8081680  33.2735870 100.2099280  81.9538860  32.3763690
 101.2810380  81.2486970  33.1809260 105.8527590  86.6050680  31.2691000
 105.8672130  85.6731640  31.0509910 105.1452690  86.6910440  31.9080770
 110.9864660  80.7890500  17.5389610 110.9028380  81.2204720  16.6886050
 111.7058850  81.2488850  17.9716430 112.0638800  83.2458020  30.6159580
 111.3386990  83.8386800  30.4188970 112.5914260  83.2381560  29.8172950
 107.5938390  84.9718190  24.1143430 107.9462210  84.3746320  23.4544800
 106.7100720  84.6462420  24.2851680 103.6801670  85.7315880  21.5213840
 104.3672800  86.2785090  21.9021430 102.8934090  86.2756610  21.5563450
  95.8194070  81.3488700  17.0130920  96.6888920  81.6313500  17.2966840
  95.3284390  82.1624570  16.8979730 102.9828880  82.7361910  21.1339200
 103.4391660  83.5467160  21.3599390 102.6317090  82.4185050  21.9657690
  98.8840660  73.0799560  21.6061720  98.7555290  73.0717460  22.5546640
  98.0602680  73.4182650  21.2552730 106.5593570  86.2500600  27.0808950
 107.2015800  85.5493760  27.1941120 107.0842920  87.0299040  26.9005840
 110.4049290  86.5349220  16.8048090 110.1786870  85.8179660  17.3972730
 110.0145490  86.2861660  15.9669840  95.8834590  74.8390680  31.0668420
  95.1693110  75.0387600  31.6721030  96.3029630  74.0630250  31.4383220
 109.9865540  84.4521160  18.4662250 109.6987240  84.9133850  19.2540130
 110.7817710  83.9918930  18.7346470  97.8040580  83.1662170  19.1412980
  97.1968530  83.9061070  19.1508280  98.2789930  83.2561530  18.3151180
 107.3773370  77.3312990  28.8169870 107.7454190  76.5108200  29.1449440
 106.5171570  77.3914880  29.2325520 110.7435400  76.2869930  19.6257430
 110.1148560  76.3915600  18.9115660 110.2487320  76.5066710  20.4151310
 102.7119430  78.5655880  21.0415310 102.0035580  79.0342220  21.4828920
 102.9963910  77.9077890  21.6760500 104.3375360  79.9852580  29.0407840
 104.8360610  80.4598400  29.7059690 104.4798310  79.0616100  29.2477870
 106.7434860  75.2906540  22.4811100 106.6202640  75.3092670  21.5320610
 107.6919420  75.3385480  22.6009500 100.9154450  76.8740960  18.4166020
 101.7644980  77.3111110  18.3506210 100.5485720  77.1861220  19.2438080
 111.5442220  76.2020540  29.8836230 111.0415820  76.9425940  30.2230040
 112.3598880  76.5904540  29.5673020 109.8364230  81.4453720  23.3297590
 108.8954370  81.4603950  23.5045280 110.1508300  80.6589680  23.7757890
  99.8145870  83.1273320  16.8901550 100.5809140  83.0154680  17.4526980
  99.8920560  82.4311290  16.2378320  98.5092630  80.5598390  17.5734440
  98.5896220  79.6125900  17.6851840  99.4012380  80.8905270  17.6795100
 107.1530250  86.0019720  33.8129970 106.5468410  86.0251320  33.0725720
 106.8484360  85.2702760  34.3497220  96.0363430  82.3813310  32.8090610
  96.5402450  81.8020590  33.3806840  95.2970850  82.6653540  33.3466980
 102.9387050  85.1027500  16.3636900 102.8337690  84.4879850  17.0898280
 102.7711270  84.5793390  15.5799910 103.0901370  83.7884300  32.3426130
 102.3247040  84.3569300  32.2580800 103.2717330  83.4960510  31.4494360
 106.1789780  84.1647530  16.9678890 105.6299880  84.6116830  17.6121630
 106.8009040  83.6596780  17.4916560 110.2324720  85.5189630  32.9001150
 110.9734190  85.8565390  32.3968610 109.4697400  85.6881690  32.3470920
  98.0686510  80.5242900  33.7040680  98.1091850  80.2256770  34.6125910
  98.9232010  80.9250510  33.5448200 101.8464900  83.1238450  18.8644190
 102.2681320  82.9578320  19.7075580 101.9715740  82.3138680  18.3699330
 100.0092320  79.1035000  31.6715170  99.4788780  78.6125950  31.0438510
 100.6780390  79.5319200  31.1373100 104.3592540  82.1476060  16.1121290
 104.8798200  81.4325080  15.7462440 105.0060940  82.7861930  16.4121800
 108.9070380  83.5704460  31.4356360 109.3211400  83.7249540  32.2846780
 107.9721380  83.6959680  31.5982140 109.3792550  80.9100620  33.4395510
 109.9613320  80.1552940  33.3515990 109.5554320  81.4408060  32.6626990
 100.4964620  76.0697370  31.7512460 100.4021490  75.4518120  31.0263330
  99.9162010  76.7963660  31.5242370 103.2626060  74.6270610  28.7839850
 102.8143360  74.6494870  27.9385400 102.6291260  74.2289630  29.3810150
 103.6685610  83.5224940  29.4052290 104.0873720  84.3657670  29.2328530
 102.7494240  83.6596980  29.1759070 106.0049510  81.2541120  30.7890130
 106.1245720  80.6582260  31.5284970 106.8643510  81.2910810  30.3691430
 108.3437410  81.8078310  29.3652640 107.8172630  82.3320930  28.7617780
 108.6868750  82.4405700  29.9962370 100.7423800  79.1971680  15.8102350
 100.5412860  78.3339040  16.1715690 100.5715850  79.1105040  14.8723950
 102.7718280  77.7962470  32.0465950 103.3617970  77.4878320  32.7343770
 101.9538520  77.3242220  32.2025850 107.5911710  77.4128280  32.2798970
 106.9027230  76.7509820  32.2148960 108.3117730  76.9666550  32.7247430
 108.2212110  74.0079910  18.3389230 108.5014400  73.1647810  18.6948650
 107.4477840  74.2403020  18.8527980  99.5406600  76.2972300  15.7980230
  99.8432500  76.3039730  14.8899380 100.2801190  75.9470160  16.2947890
 102.7591530  75.2406920  16.7836430 102.4113530  74.5630910  16.2038880
 102.9604300  74.7796430  17.5979820  98.5636730  85.6014720  16.6310030
  99.0011600  86.1444390  17.2867610  99.0484460  84.7761670  16.6406370
 100.3744450  86.7212760  21.7432260 100.0739990  86.5977730  22.6436170
 100.2681940  85.8621350  21.3347990 112.5992830  83.2456640  18.9493140
 113.3611740  83.8153290  19.0552830 112.6147200  82.6783840  19.7201450
  96.0997170  81.7694570  23.1800800  95.4446010  81.5006210  22.5360500
  96.9375120  81.6599050  22.7302780 110.5886560  85.4843320  29.2065390
 109.7746400  85.9140480  29.4691180 110.9960760  86.0961730  28.5934440
 112.6512000  83.5391010  16.1065660 112.9260840  84.4469890  15.9784880
 112.4622740  83.4753540  17.0427650 109.0487610  76.5635860  17.4019290
 109.4672490  76.3766840  16.5615950 108.7423670  75.7114910  17.7122220
 112.5477340  81.4760000  21.0995090 112.1720940  80.7087930  20.6676380
 111.8180460  81.8582700  21.5870020  97.1373100  82.1547140  27.7204140
  97.5046140  82.0674540  28.6000160  96.5683920  81.3913690  27.6211000
 111.9376960  80.6231520  30.7334610 111.7063050  80.3944270  29.8332560
 112.1981510  81.5431070  30.6879500  96.6889100  79.0656230  31.6262560
  95.7945150  79.0322990  31.9656270  97.2286650  79.2643020  32.3913810
 110.3765030  75.8487950  33.5114310 111.2535210  75.8571350  33.8948310
 110.3885870  75.1118790  32.9006660  95.3135250  78.9793500  19.1226130
  94.4099330  79.2423700  18.9477790  95.7975870  79.2504670  18.3426090
 111.8228300  79.7017490  24.4002330 112.3465780  79.2080140  23.7692500
 112.4087720  79.8367850  25.1449900 112.0018020  79.7857360  27.9221880
 111.0520730  79.7520900  28.0366870 112.1831030  80.6957470  27.6871650
  97.8562460  78.0359040  17.0320510  98.5654160  77.6142260  16.5467790
  97.1402400  78.1034270  16.4003860  97.5036620  74.0898370  16.0723160
  98.2264750  74.6307310  16.3904380  97.7761140  73.8161790  15.1964700
 111.3128270  78.9590840  20.3394740 111.8087390  78.7261710  21.1243620
 111.1144340  78.1202680  19.9232380  97.1928810  73.3404560  25.9745780
  97.8405000  72.7901940  25.5340940  97.6130650  73.5947710  26.7961590
 111.0881150  73.5345920  29.3315420 111.7253370  74.1480060  29.6974610
 111.2356040  73.5706580  28.3864650  96.9460810  73.4960230  28.7171100
  96.5975630  73.9524050  29.4829280  96.6148510  72.6017360  28.7993530
 104.4585630  74.6872110  32.2390520 104.3974520  75.2793940  32.9885930
 105.3986010  74.5798070  32.0940780 107.0960190  74.3442170  31.8782810
 107.7100600  74.6621460  31.2163890 107.6409750  73.8590760  32.4978670
  97.6181450  73.0236430  31.9921870  98.1664440  72.8424480  31.2287980
  97.6836760  72.2330540  32.5278180 107.8368230  72.9074310  28.2052100
 106.9628070  73.2409420  28.0025030 107.7278980  72.4347490  29.0303970
 108.7440210  75.1145180  29.5893820 108.4153570  74.2996940  29.2095550
 109.6922510  75.0714990  29.4659510 105.5843050  73.8244150  27.1445010
 104.8014840  74.2989650  27.4241770 105.2905980  72.9198980  27.0358190
 110.1364120  74.5267250  25.1894100 110.5772210  74.4712350  24.3415700
 109.8671710  75.4425260  25.2604280 112.0002690  74.1582490  23.2002920
 111.9391090  73.2143710  23.0533940 112.7794720  74.2662580  23.7456380
  96.9283460  74.1291630  19.6658730  97.6862820  74.2420510  19.0922760
  96.4660630  74.9660830  19.6202160 103.4697270  76.2430900  22.6561040
 102.6571780  75.8687790  22.3156920 103.9738910  75.4875980  22.9582230
 107.9722250  72.9073350  23.8944110 108.5751620  73.4793560  24.3692630
 107.2315240  73.4712790  23.6718010 111.1156850  73.3094910  19.1684390
 111.3107480  74.2078360  19.4351820 110.3286720  73.0781990  19.6617340
  99.3008610  74.6555680  18.2060700  99.8301370  73.8685480  18.0768650
  99.9336930  75.3346870  18.4396230 101.4946450  74.3930820  21.2606090
 100.8649190  73.6918130  21.4276220 100.9551590  75.1534950  21.0439250
 101.6202010  73.6714800  33.6958580 101.3386280  74.1748400  32.9319400
 102.0021710  72.8736550  33.3300710 108.2217470  73.0868380  34.2739050
 108.1082920  73.4062990  35.1690570 109.0387210  73.4880890  33.9776330
 107.1275620  81.1060850   4.6373790 107.0469670  80.1915460   4.3665500
 106.7140040  81.6027920   3.9313500 105.2593660  82.8839870   6.5183060
 104.4835760  82.4040310   6.8081630 105.9106590  82.2045520   6.3439220
  99.2759490  83.1959680   7.3958820  98.4444370  82.9408390   7.7955330
  99.8840470  83.2670450   8.1316740  95.6484450  80.7567220   7.0640910
  96.2200560  79.9889420   7.0644550  95.6485990  81.0555980   6.1547520
 104.7002650  85.5597060   6.5253220 104.6310930  84.6187000   6.3642350
 105.4622510  85.6498470   7.0975790  96.8909320  76.1651580   8.8509840
  96.7112160  75.2677330   9.1312600  96.4889400  76.7123450   9.5256790
 105.7307820  78.3667440   6.7522150 106.1072640  77.4939320   6.6395820
 105.6327330  78.7026140   5.8612590  99.8612830  76.7393070   2.2139590
  99.9679580  77.6396800   2.5208350  98.9505190  76.6911040   1.9234240
 109.5131940  75.8617880   3.6850490 110.3341560  75.3714450   3.7275970
 109.5466020  76.4515540   4.4382330  97.5095990  78.6612080   7.4592180
  98.1906100  78.9250450   8.0779580  97.1944040  77.8212950   7.7930190
 101.7020560  79.7079440   6.5464770 102.2098780  80.2060410   7.1869790
 102.2333800  78.9314640   6.3704130  99.9856660  74.3478000  10.8128190
  99.9875100  74.8650390  10.0074090  99.1560970  73.8708180  10.7898120
 106.3727750  84.4597310   2.3118090 105.7545020  84.9246760   1.7480810
 106.8851000  85.1524790   2.7287600 101.2359510  83.9873180   8.9901690
 100.9028890  84.6142100   9.6322760 101.4126190  84.5135060   8.2103360
 109.7493420  77.8018260   6.4578030 109.0448990  78.0903150   7.0381140
 110.1105580  78.6118370   6.0977590  99.6671990  76.0587960   8.8198640
 100.0088800  76.9030010   8.5252510  98.7287800  76.2071700   8.9363980
 100.4478610  85.9553980  10.8050870 101.0652610  86.6305060  10.5235320
  99.5871730  86.3641960  10.7138370 112.8180340  77.2473050   6.8487240
 111.8705250  77.2812030   6.9802670 113.1430330  78.0612000   7.2336600
 103.3499880  73.5470230   5.1443230 103.6574860  72.9917120   4.4278730
 102.4200580  73.6814690   4.9616220 110.1960360  85.9853740   2.5240860
 110.0856690  85.0428070   2.6490280 110.1928610  86.3469380   3.4103620
 108.3000380  84.1667360   8.7633300 108.7169170  83.9527470   7.9286760
 109.0240200  84.4240150   9.3341920 105.7380640  81.6119060   1.8803350
 104.8109920  81.5456440   2.1091820 105.8905460  82.5499190   1.7658590
 112.2462480  82.5654580   8.8549540 111.4181110  82.6347670   8.3799670
 112.8412960  83.1508890   8.3865370 109.7677930  83.1739360   2.3838600
 109.1490350  82.8358910   1.7364900 109.7502380  82.5299120   3.0917790
 109.2104490  79.3523900   9.8004410 108.7975670  80.1777610  10.0544400
 108.4780440  78.7668940   9.6080770 101.3437280  82.1383800   4.6623080
 100.9394280  81.4261050   4.1668980 101.4300400  81.7937040   5.5511120
 101.8118980  85.8251360   6.8262290 101.5147270  85.2196830   6.1470070
 102.7618800  85.8628670   6.7151650 100.0565900  78.9127010   8.4422120
 100.6080490  79.0222350   7.6675370 100.5709410  79.2864610   9.1577350
 100.9037410  85.5633050  13.4770090 100.0065940  85.7873020  13.7243490
 100.9290280  85.6867990  12.5281490  99.7308630  82.4346370  12.0527460
  99.5916400  83.3069170  12.4214860  98.8489990  82.0919180  11.9075400
  95.6827280  84.2043920   7.9698370  95.7607700  84.3392690   7.0254090
  96.2968960  83.4959810   8.1626490  96.9274910  85.9044110   4.3804550
  96.5202990  86.0458700   3.5258150  97.8187920  85.6204270   4.1775760
 112.8837050  86.3508020  12.7176790 113.0100110  86.1119900  11.7993970
 112.9258430  85.5192560  13.1898870 112.7361060  78.4040480  13.6826530
 112.1205330  78.9120150  13.1541990 112.4157480  77.5038810  13.6252470
  95.7386800  85.2458090  10.5092830  95.9017840  84.7763450   9.6912200
  96.2039250  84.7381650  11.1741670 100.5105570  74.3763850   5.5453400
 100.0673720  75.1573390   5.2137920 101.0690560  74.6993740   6.2524340
 104.7975380  77.2432370  11.1488720 104.3354750  77.4515390  11.9608660
 104.3953490  76.4291720  10.8459390 109.7979890  78.4641320  12.2785380
 108.9473480  78.1647070  12.5994450 109.6381680  78.7083330  11.3669200
 106.8929600  79.9643070  14.3784170 107.2183010  79.1306820  14.0386400
 107.6809930  80.4871590  14.5262500 102.5481470  74.9211180   7.4043000
 102.8453800  75.8274010   7.3235020 103.0967030  74.4329960   6.7902570
 100.3019790  79.4997420   3.2734650 100.0760710  79.2834590   4.1781270
  99.5212320  79.9325880   2.9280620 102.7419000  80.3983000  13.9394920
 102.6462600  79.4577730  13.7895320 103.5850980  80.6198070  13.5442990
 106.1382420  78.1424330   3.9028580 106.5311990  78.4596530   3.0897270
 106.4999270  77.2636210   4.0173100  97.8729540  76.8096670  12.0928700
  97.4792930  77.6571880  12.3001480  97.1847940  76.1723040  12.2837340
 104.4474590  76.8931640  15.1625440 103.7572910  76.7003840  15.7971530
 105.1906890  77.1766280  15.6949740  95.1746590  74.7325130   6.1258780
  94.8859640  75.3027990   6.8383760  95.9192350  74.2529580   6.4890010
 106.7237560  80.7330080   7.9979360 105.9918680  81.2416890   8.3469460
 106.3261900  79.9160060   7.6968140 103.1614950  77.4084280   6.4031850
 103.1651010  76.9674230   5.5536390 104.0566070  77.7301610   6.5103670
  99.0117330  77.2910770   5.3626060  98.6717380  77.7686000   6.1193110
  98.2494650  76.8375890   5.0027160 107.1863470  76.1863760   7.4102300
 107.2036210  76.6372410   8.2544150 106.9379050  75.2869400   7.6235740
 110.6134220  73.5995940  13.2488680 110.9379990  72.8685600  13.7746660
 110.6490730  73.2809580  12.3469670  97.3125780  84.6209520  12.6688640
  96.9280570  83.9803190  13.2671600  97.6237970  85.3245640  13.2383370
 103.4622920  81.4686060   8.1497260 103.8293050  80.9944630   8.8958600
 103.2727980  82.3427630   8.4905600  96.3263410  76.2129750   4.2790730
  96.0410330  75.8485420   5.1169350  96.2642270  75.4810210   3.6653870
 101.2522290  80.5094700  10.4681470 100.9479360  81.3886680  10.6931830
 102.2068750  80.5694490  10.5038910 110.5392060  83.7121050   6.8574710
 111.2591180  84.2076340   6.4670820 110.3373880  83.0338940   6.2128580
 105.9210860  83.7830110  12.7443710 105.8548170  82.8625780  12.4901300
 105.2916000  83.8805550  13.4588350  99.8241480  84.3836070   4.7027130
 100.3420150  83.5804330   4.6484020  99.3725500  84.3215210   5.5443960
  97.3086020  81.3497440  11.6152830  96.9500960  82.0151290  12.2026170
  97.0140580  80.5180990  11.9865450 100.5099140  81.8081680  14.4992380
 100.2099280  81.9538860  13.6020200 101.2810380  81.2486970  14.4065770
 105.8527590  86.6050680  12.4947510 105.8672130  85.6731640  12.2766420
 105.1452690  86.6910440  13.1337280 112.0638800  83.2458020  11.8416090
 111.3386990  83.8386800  11.6445480 112.5914260  83.2381560  11.0429460
 107.5938390  84.9718190   5.3399940 107.9462210  84.3746320   4.6801310
 106.7100720  84.6462420   5.5108190 103.6801670  85.7315880   2.7470350
 104.3672800  86.2785090   3.1277940 102.8934090  86.2756610   2.7819960
 102.9828880  82.7361910   2.3595710 103.4391660  83.5467160   2.5855900
 102.6317090  82.4185050   3.1914200  98.8840660  73.0799560   2.8318230
  98.7555290  73.0717460   3.7803150  98.0602680  73.4182650   2.4809240
 106.5593570  86.2500600   8.3065460 107.2015800  85.5493760   8.4197630
 107.0842920  87.0299040   8.1262350  95.8834590  74.8390680  12.2924930
  95.1693110  75.0387600  12.8977540  96.3029630  74.0630250  12.6639730
 107.3773370  77.3312990  10.0426380 107.7454190  76.5108200  10.3705950
 106.5171570  77.3914880  10.4582030 102.7119430  78.5655880   2.2671820
 102.0035580  79.0342220   2.7085430 102.9963910  77.9077890   2.9017010
 104.3375360  79.9852580  10.2664350 104.8360610  80.4598400  10.9316200
 104.4798310  79.0616100  10.4734380 106.7434860  75.2906540   3.7067610
 106.6202640  75.3092670   2.7577120 107.6919420  75.3385480   3.8266010
 111.5442220  76.2020540  11.1092740 111.0415820  76.9425940  11.4486550
 112.3598880  76.5904540  10.7929530 109.8364230  81.4453720   4.5554100
 108.8954370  81.4603950   4.7301790 110.1508300  80.6589680   5.0014400
 107.1530250  86.0019720  15.0386480 106.5468410  86.0251320  14.2982230
 106.8484360  85.2702760  15.5753730  96.0363430  82.3813310  14.0347120
  96.5402450  81.8020590  14.6063350  95.2970850  82.6653540  14.5723490
 103.0901370  83.7884300  13.5682640 102.3247040  84.3569300  13.4837310
 103.2717330  83.4960510  12.6750870 110.2324720  85.5189630  14.1257660
 110.9734190  85.8565390  13.6225120 109.4697400  85.6881690  13.5727430
  98.0686510  80.5242900  14.9297190  98.1091850  80.2256770  15.8382420
  98.9232010  80.9250510  14.7704710 100.0092320  79.1035000  12.8971680
  99.4788780  78.6125950  12.2695020 100.6780390  79.5319200  12.3629610
 108.9070380  83.5704460  12.6612870 109.3211400  83.7249540  13.5103290
 107.9721380  83.6959680  12.8238650 109.3792550  80.9100620  14.6652020
 109.9613320  80.1552940  14.5772500 109.5554320  81.4408060  13.8883500
 100.4964620  76.0697370  12.9768970 100.4021490  75.4518120  12.2519840
  99.9162010  76.7963660  12.7498880 103.2626060  74.6270610  10.0096360
 102.8143360  74.6494870   9.1641910 102.6291260  74.2289630  10.6066660
 103.6685610  83.5224940  10.6308800 104.0873720  84.3657670  10.4585040
 102.7494240  83.6596980  10.4015580 106.0049510  81.2541120  12.0146640
 106.1245720  80.6582260  12.7541480 106.8643510  81.2910810  11.5947940
 108.3437410  81.8078310  10.5909150 107.8172630  82.3320930   9.9874290
 108.6868750  82.4405700  11.2218880 102.7718280  77.7962470  13.2722460
 103.3617970  77.4878320  13.9600280 101.9538520  77.3242220  13.4282360
 107.5911710  77.4128280  13.5055480 106.9027230  76.7509820  13.4405470
 108.3117730  76.9666550  13.9503940 100.3744450  86.7212760   2.9688770
 100.0739990  86.5977730   3.8692680 100.2681940  85.8621350   2.5604500
  96.0997170  81.7694570   4.4057310  95.4446010  81.5006210   3.7617010
  96.9375120  81.6599050   3.9559290 110.5886560  85.4843320  10.4321900
 109.7746400  85.9140480  10.6947690 110.9960760  86.0961730   9.8190950
 112.5477340  81.4760000   2.3251600 112.1720940  80.7087930   1.8932890
 111.8180460  81.8582700   2.8126530  97.1373100  82.1547140   8.9460650
  97.5046140  82.0674540   9.8256670  96.5683920  81.3913690   8.8467510
 111.9376960  80.6231520  11.9591120 111.7063050  80.3944270  11.0589070
 112.1981510  81.5431070  11.9136010  96.6889100  79.0656230  12.8519070
  95.7945150  79.0322990  13.1912780  97.2286650  79.2643020  13.6170320
 110.3765030  75.8487950  14.7370820 111.2535210  75.8571350  15.1204820
 110.3885870  75.1118790  14.1263170 111.8228300  79.7017490   5.6258840
 112.3465780  79.2080140   4.9949010 112.4087720  79.8367850   6.3706410
 112.0018020  79.7857360   9.1478390 111.0520730  79.7520900   9.2623380
 112.1831030  80.6957470   8.9128160  97.1928810  73.3404560   7.2002290
  97.8405000  72.7901940   6.7597450  97.6130650  73.5947710   8.0218100
 111.0881150  73.5345920  10.5571930 111.7253370  74.1480060  10.9231120
 111.2356040  73.5706580   9.6121160  96.9460810  73.4960230   9.9427610
  96.5975630  73.9524050  10.7085790  96.6148510  72.6017360  10.0250040
 104.4585630  74.6872110  13.4647030 104.3974520  75.2793940  14.2142440
 105.3986010  74.5798070  13.3197290 107.0960190  74.3442170  13.1039320
 107.7100600  74.6621460  12.4420400 107.6409750  73.8590760  13.7235180
  97.6181450  73.0236430  13.2178380  98.1664440  72.8424480  12.4544490
  97.6836760  72.2330540  13.7534690 107.8368230  72.9074310   9.4308610
 106.9628070  73.2409420   9.2281540 107.7278980  72.4347490  10.2560480
 108.7440210  75.1145180  10.8150330 108.4153570  74.2996940  10.4352060
 109.6922510  75.0714990  10.6916020 105.5843050  73.8244150   8.3701520
 104.8014840  74.2989650   8.6498280 105.2905980  72.9198980   8.2614700
 110.1364120  74.5267250   6.4150610 110.5772210  74.4712350   5.5672210
 109.8671710  75.4425260   6.4860790 112.0002690  74.1582490   4.4259430
 111.9391090  73.2143710   4.2790450 112.7794720  74.2662580   4.9712890
 103.4697270  76.2430900   3.8817550 102.6571780  75.8687790   3.5413430
 103.9738910  75.4875980   4.1838740 107.9722250  72.9073350   5.1200620
 108.5751620  73.4793560   5.5949140 107.2315240  73.4712790   4.8974520
 101.4946450  74.3930820   2.4862600 100.8649190  73.6918130   2.6532730
 100.9551590  75.1534950   2.2695760 101.6202010  73.6714800  14.9215090
 101.3386280  74.1748400  14.1575910 102.0021710  72.8736550  14.5557220
 108.2217470  73.0868380  15.4995560 108.1082920  73.4062990  16.3947080
 109.0387210  73.4880890  15.2032840 107.1275620  62.3317360  79.7347750
 107.0469670  61.4171970  79.4639460 106.7140040  62.8284430  79.0287460
 105.2593660  64.1096380  81.6157020 104.4835760  63.6296820  81.9055590
 105.9106590  63.4302030  81.4413180  99.2759490  64.4216190  82.4932780
  98.4444370  64.1664900  82.8929290  99.8840470  64.4926960  83.2290700
 109.2801090  68.5156570  80.3956150 108.8182620  67.7443810  80.7243320
 110.0926640  68.5422640  80.9008600  99.2560750  68.4556280  82.6890800
  99.5588790  67.5654020  82.5101020 100.0004340  69.0126500  82.4613050
  97.6851440  59.3818080  76.2775170  96.7968140  59.7234050  76.1755050
  97.9692630  59.1818400  75.3856000  95.6484450  61.9823730  82.1614870
  96.2200560  61.2145930  82.1618510  95.6485990  62.2812490  81.2521480
 105.5064400  70.8014580  80.0160140 104.8875840  71.2572080  79.4454580
 106.3616180  70.9566040  79.6149840 104.7002650  66.7853570  81.6227180
 104.6310930  65.8443510  81.4616310 105.4622510  66.8754980  82.1949750
  96.8909320  57.3908090  83.9483800  96.7112160  56.4933840  84.2286560
  96.4889400  57.9379960  84.6230750 105.7307820  59.5923950  81.8496110
 106.1072640  58.7195830  81.7369780 105.6327330  59.9282650  80.9586550
  99.8612830  57.9649580  77.3113550  99.9679580  58.8653310  77.6182310
  98.9505190  57.9167550  77.0208200 109.5131940  57.0874390  78.7824450
 110.3341560  56.5970960  78.8249930 109.5466020  57.6772050  79.5356290
  97.5095990  59.8868590  82.5566140  98.1906100  60.1506960  83.1753540
  97.1944040  59.0469460  82.8904150 101.7020560  60.9335950  81.6438730
 102.2098780  61.4316920  82.2843750 102.2333800  60.1571150  81.4678090
  99.9856660  55.5734510  85.9102150  99.9875100  56.0906900  85.1048050
  99.1560970  55.0964690  85.8872080 106.3727750  65.6853820  77.4092050
 105.7545020  66.1503270  76.8454770 106.8851000  66.3781300  77.8261560
 101.2359510  65.2129690  84.0875650 100.9028890  65.8398610  84.7296720
 101.4126190  65.7391570  83.3077320 109.7493420  59.0274770  81.5551990
 109.0448990  59.3159660  82.1355100 110.1105580  59.8374880  81.1951550
  99.6671990  57.2844470  83.9172600 100.0088800  58.1286520  83.6226470
  98.7287800  57.4328210  84.0337940 100.4478610  67.1810490  85.9024830
 101.0652610  67.8561570  85.6209280  99.5871730  67.5898470  85.8112330
  95.7410950  66.3710350  74.7831680  95.3638930  66.8597450  74.0516580
  95.9984020  67.0435630  75.4138210 111.3656200  68.6449900  83.8179470
 110.6819720  69.3149010  83.8096140 111.9050490  68.8430550  83.0524330
 112.8180340  58.4729560  81.9461200 111.8705250  58.5068540  82.0776630
 113.1430330  59.2868510  82.3310560 103.3499880  54.7726740  80.2417190
 103.6574860  54.2173630  79.5252690 102.4200580  54.9071200  80.0590180
 108.9014940  70.4894030  82.5324650 108.9142100  70.0856320  81.6646910
 108.3490160  71.2641320  82.4286080 110.1960360  67.2110250  77.6214820
 110.0856690  66.2684580  77.7464240 110.1928610  67.5725890  78.5077580
 108.3000380  65.3923870  83.8607260 108.7169170  65.1783980  83.0260720
 109.0240200  65.6496660  84.4315880 105.7380640  62.8375570  76.9777310
 104.8109920  62.7712950  77.2065780 105.8905460  63.7755700  76.8632550
 105.7249720  59.1092570  73.9744470 104.7853390  59.2706530  74.0596930
 106.0432980  59.8278250  73.4280460 112.2462480  63.7911090  83.9523500
 111.4181110  63.8604180  83.4773630 112.8412960  64.3765400  83.4839330
 109.7677930  64.3995870  77.4812560 109.1490350  64.0615420  76.8338860
 109.7502380  63.7555630  78.1891750 109.2104490  60.5780410  84.8978370
 108.7975670  61.4034120  85.1518360 108.4780440  59.9925450  84.7054730
 101.3437280  63.3640310  79.7597040 100.9394280  62.6517560  79.2642940
 101.4300400  63.0193550  80.6485080 101.8118980  67.0507870  81.9236250
 101.5147270  66.4453340  81.2444030 102.7618800  67.0885180  81.8125610
 100.0565900  60.1383520  83.5396080 100.6080490  60.2478860  82.7649330
 100.5709410  60.5121120  84.2551310 109.9004590  70.6239740  85.5859350
 109.4235150  71.4311930  85.3931960 109.2166380  69.9718070  85.7385560
 107.9442630  63.6382680  74.4885310 108.3835910  62.8005110  74.3423130
 108.6571050  64.2712080  74.5749450 106.0538010  68.5778750  78.4566550
 106.4933920  69.3203080  78.0421940 105.9924900  68.8205320  79.3805510
 111.5259770  54.8925490  72.8026350 111.2132430  54.9852320  73.7025420
 112.2872240  55.4706520  72.7523780  98.0441910  62.2585290  77.2603690
  97.9239510  62.9847380  76.6484960  97.7342800  61.4888200  76.7831600
  95.6827280  65.4300430  83.0672330  95.7607700  65.5649200  82.1228050
  96.2968960  64.7216320  83.2600450  96.9274910  67.1300620  79.4778510
  96.5202990  67.2715210  78.6232110  97.8187920  66.8460780  79.2749720
 108.7208190  71.5647870  75.8129560 108.5609330  71.2750810  76.7111390
 108.5554900  70.7888000  75.2774790 101.1996570  71.3446400  77.5901180
 101.0239050  70.4281940  77.3768980 100.3452310  71.7033690  77.8298980
 108.4234320  69.0735430  74.3727560 107.7299480  69.0712720  73.7129840
 109.1657180  68.6494750  73.9421730 107.9884250  70.6998140  78.4476050
 108.4441200  69.9187520  78.7614670 108.3276770  71.4104960  78.9917230
 100.5105570  55.6020360  80.6427360 100.0673720  56.3829900  80.3111880
 101.0690560  55.9250250  81.3498300 103.6264390  55.2231060  75.5233190
 103.0018570  55.2190930  76.2486500 103.5394510  54.3562020  75.1269160
 102.5481470  56.1467690  82.5016960 102.8453800  57.0530520  82.4208980
 103.0967030  55.6586470  81.8876530 100.3019790  60.7253930  78.3708610
 100.0760710  60.5091100  79.2755230  99.5212320  61.1582390  78.0254580
 107.5317550  60.7317300  76.9699260 106.9326440  61.4553100  76.7862880
 108.0797160  60.6694080  76.1875710 106.1382420  59.3680840  79.0002540
 106.5311990  59.6853040  78.1871230 106.4999270  58.4892720  79.1147060
  95.1746590  55.9581640  81.2232740  94.8859640  56.5284500  81.9357720
  95.9192350  55.4786090  81.5863970  95.3616820  59.9001760  72.4335460
  95.2791490  60.8432520  72.5750450  95.0099880  59.7576670  71.5547810
 106.7237560  61.9586590  83.0953320 105.9918680  62.4673400  83.4443420
 106.3261900  61.1416570  82.7942100 103.1614950  58.6340790  81.5005810
 103.1651010  58.1930740  80.6510350 104.0566070  58.9558120  81.6077630
  99.0117330  58.5167280  80.4600020  98.6717380  58.9942510  81.2167070
  98.2494650  58.0632400  80.1001120 103.2235100  59.6352870  74.4912570
 103.3447920  59.5939350  75.4398390 102.8383610  60.4977020  74.3359300
 107.1863470  57.4120270  82.5076260 107.2036210  57.8628920  83.3518110
 106.9379050  56.5125910  82.7209700 102.2356600  61.9454010  73.8895870
 101.6673500  61.4972260  73.2631780 102.9445600  62.3046790  73.3561020
 103.4622920  62.6942570  83.2471220 103.8293050  62.2201140  83.9932560
 103.2727980  63.5684140  83.5879560  96.3263410  57.4386260  79.3764690
  96.0410330  57.0741930  80.2143310  96.2642270  56.7066720  78.7627830
 101.2522290  61.7351210  85.5655430 100.9479360  62.6143190  85.7905790
 102.2068750  61.7951000  85.6012870  99.7804080  65.9412200  76.1622280
  99.0066340  65.4009820  76.0021000 100.5098710  65.4218810  75.8240040
 110.5392060  64.9377560  81.9548670 111.2591180  65.4332850  81.5644780
 110.3373880  64.2595450  81.3102540 106.0002000  56.3315520  76.0978060
 105.1866610  55.8328690  76.0223370 105.8063950  57.1713770  75.6814410
 108.7150390  60.7035170  74.3940220 109.6030010  61.0152400  74.2191560
 108.6855480  59.8307420  74.0020800  99.8241480  65.6092580  79.8001090
 100.3420150  64.8060840  79.7457980  99.3725500  65.5471720  80.6417920
 104.7110980  66.8758860  75.0728390 105.0526680  67.6201090  74.5771710
 103.8823690  67.1889980  75.4353220 110.9864660  62.0147010  73.8620080
 110.9028380  62.4461230  73.0116520 111.7058850  62.4745360  74.2946900
 112.0151910  68.8689270  76.5902210 111.3728070  68.2144890  76.8645930
 111.6282570  69.2744360  75.8142880 107.5938390  66.1974700  80.4373900
 107.9462210  65.6002830  79.7775270 106.7100720  65.8718930  80.6082150
 103.6801670  66.9572390  77.8444310 104.3672800  67.5041600  78.2251900
 102.8934090  67.5013120  77.8793920  95.8194070  62.5745210  73.3361390
  96.6888920  62.8570010  73.6197310  95.3284390  63.3881080  73.2210200
 102.9828880  63.9618420  77.4569670 103.4391660  64.7723670  77.6829860
 102.6317090  63.6441560  78.2888160 105.2861490  69.4724760  84.6861970
 105.9303710  69.6784140  85.3635390 105.6490930  68.7113160  84.2332820
  98.8840660  54.3056070  77.9292190  98.7555290  54.2973970  78.8777110
  98.0602680  54.6439160  77.5783200 106.5593570  67.4757110  83.4039420
 107.2015800  66.7750270  83.5171590 107.0842920  68.2555550  83.2236310
 110.4049290  67.7605730  73.1278560 110.1786870  67.0436170  73.7203200
 110.0145490  67.5118170  72.2900310  96.1865320  71.7872590  73.9023020
  96.5462960  72.3861930  73.2480290  96.0457660  72.3332480  74.6758050
 109.9865540  65.6777670  74.7892720 109.6987240  66.1390360  75.5770600
 110.7817710  65.2175440  75.0576940 102.2033940  69.1703790  74.7196690
 102.1944040  69.9033480  74.1041200 101.2832300  68.9235370  74.8123650
  97.8040580  64.3918680  75.4643450  97.1968530  65.1317580  75.4738750
  98.2789930  64.4818040  74.6381650 107.3773370  58.5569500  85.1400340
 107.7454190  57.7364710  85.4679910 106.5171570  58.6171390  85.5555990
 110.7435400  57.5126440  75.9487900 110.1148560  57.6172110  75.2346130
 110.2487320  57.7323220  76.7381780 105.1893540  69.2332030  73.3821880
 105.2905520  69.0296020  72.4523860 104.2895280  68.9790310  73.5869660
 102.7119430  59.7912390  77.3645780 102.0035580  60.2598730  77.8059390
 102.9963910  59.1334400  77.9990970 106.7434860  56.5163050  78.8041570
 106.6202640  56.5349180  77.8551080 107.6919420  56.5641990  78.9239970
 103.8311650  71.7518350  78.0769550 104.0853150  71.7139740  77.1548920
 102.8824130  71.6251680  78.0697800 100.9154450  58.0997470  74.7396490
 101.7644980  58.5367620  74.6736680 100.5485720  58.4117730  75.5668550
 109.8364230  62.6710230  79.6528060 108.8954370  62.6860460  79.8275750
 110.1508300  61.8846190  80.0988360  99.8145870  64.3529830  73.2132020
 100.5809140  64.2411190  73.7757450  99.8920560  63.6567800  72.5608790
  98.5092630  61.7854900  73.8964910  98.5896220  60.8382410  74.0082310
  99.4012380  62.1161780  74.0025570 111.8389810  69.8419080  81.3282320
 111.9637230  70.6650250  81.8006130 112.7055370  69.6309810  80.9806470
  99.3107340  71.9350290  80.9999450 100.0469820  71.3865750  81.2708020
  99.6948260  72.8006300  80.8605440  96.1952820  68.0023860  76.8740960
  95.2692600  68.2445000  76.8646370  96.6609250  68.8298120  76.7525710
 102.4209650  71.1080600  72.8225020 103.2138260  71.3969430  72.3706810
 101.9014000  70.6772770  72.1437500 111.4739820  70.3350730  74.2461760
 111.1881330  69.9215870  73.4315940 111.2759370  71.2638440  74.1262280
 102.9387050  66.3284010  72.6867370 102.8337690  65.7136360  73.4128750
 102.7711270  65.8049900  71.9030380 106.1789780  65.3904040  73.2909360
 105.6299880  65.8373340  73.9352100 106.8009040  64.8853290  73.8147030
 101.8464900  64.3494960  75.1874660 102.2681320  64.1834830  76.0306050
 101.9715740  63.5395190  74.6929800 104.3592540  63.3732570  72.4351760
 104.8798200  62.6581590  72.0692910 105.0060940  64.0118440  72.7352270
 103.2626060  55.8527120  85.1070320 102.8143360  55.8751380  84.2615870
 102.6291260  55.4546140  85.7040620 103.6685610  64.7481450  85.7282760
 104.0873720  65.5914180  85.5559000 102.7494240  64.8853490  85.4989540
 100.7423800  60.4228190  72.1332820 100.5412860  59.5595550  72.4946160
 100.5715850  60.3361550  71.1954420 108.2212110  55.2336420  74.6619700
 108.5014400  54.3904320  75.0179120 107.4477840  55.4659530  75.1758450
  99.5406600  57.5228810  72.1210700  99.8432500  57.5296240  71.2129850
 100.2801190  57.1726670  72.6178360 102.7591530  56.4663430  73.1066900
 102.4113530  55.7887420  72.5269350 102.9604300  56.0052940  73.9210290
 104.9240570  71.4544180  74.7253500 105.8191360  71.7929150  74.7472260
 104.9558200  70.7323590  74.0977780  98.5636730  66.8271230  72.9540500
  99.0011600  67.3700900  73.6098080  99.0484460  66.0018180  72.9636840
  95.7782530  69.6160260  80.4060760  96.1085540  68.7481320  80.1739400
  96.2073530  69.8218780  81.2365720 100.3744450  67.9469270  78.0662730
 100.0739990  67.8234240  78.9666640 100.2681940  67.0877860  77.6578460
  96.2672740  70.4830850  83.1442390  95.8303730  70.6631650  83.9766540
  96.8350420  71.2405470  83.0024110 113.1436370  67.7265670  72.7689410
 112.3129330  67.7942320  73.2396640 113.3208200  68.6169790  72.4656270
 112.5992830  64.4713150  75.2723610 113.3611740  65.0409800  75.3783300
 112.6147200  63.9040350  76.0431920  96.0997170  62.9951080  79.5031270
  95.4446010  62.7262720  78.8590970  96.9375120  62.8855560  79.0533250
 110.5886560  66.7099830  85.5295860 109.7746400  67.1396990  85.7921650
 110.9960760  67.3218240  84.9164910 112.6512000  64.7647520  72.4296130
 112.9260840  65.6726400  72.3015350 112.4622740  64.7010050  73.3658120
 109.0487610  57.7892370  73.7249760 109.4672490  57.6023350  72.8846420
 108.7423670  56.9371420  74.0352690 112.5477340  62.7016510  77.4225560
 112.1720940  61.9344440  76.9906850 111.8180460  63.0839210  77.9100490
  97.1373100  63.3803650  84.0434610  97.5046140  63.2931050  84.9230630
  96.5683920  62.6170200  83.9441470  95.3135250  60.2050010  75.4456600
  94.4099330  60.4680210  75.2708260  95.7975870  60.4761180  74.6656560
 111.8228300  60.9274000  80.7232800 112.3465780  60.4336650  80.0922970
 112.4087720  61.0624360  81.4680370 112.0018020  61.0113870  84.2452350
 111.0520730  60.9777410  84.3597340 112.1831030  61.9213980  84.0102120
  97.8562460  59.2615550  73.3550980  98.5654160  58.8398770  72.8698260
  97.1402400  59.3290780  72.7234330  97.5036620  55.3154880  72.3953630
  98.2264750  55.8563820  72.7134850  97.7761140  55.0418300  71.5195170
 111.3128270  60.1847350  76.6625210 111.8087390  59.9518220  77.4474090
 111.1144340  59.3459190  76.2462850  97.1928810  54.5661070  82.2976250
  97.8405000  54.0158450  81.8571410  97.6130650  54.8204220  83.1192060
 110.6462610  71.4618430  79.0564130 111.2421680  71.1403000  78.3798550
 110.9040760  70.9890250  79.8477400  96.9460810  54.7216740  85.0401570
  96.5975630  55.1780560  85.8059750  96.6148510  53.8273870  85.1224000
 102.2531210  69.4495930  84.8064480 102.0122570  69.7170490  83.9195000
 103.1933850  69.6201660  84.8615340 107.8368230  54.1330820  84.5282570
 106.9628070  54.4665930  84.3255500 107.7278980  53.6604000  85.3534440
 108.7440210  56.3401690  85.9124290 108.4153570  55.5253450  85.5326020
 109.6922510  56.2971500  85.7889980 111.1974820  72.1113730  82.8861860
 110.7377790  72.8629540  82.5119880 110.5687280  71.3920200  82.8276660
  98.0225440  68.2056970  85.2760580  97.2959500  67.5862260  85.2086530
  98.0834590  68.5997580  84.4058660 101.6270540  70.4201970  82.0609990
 102.1435560  69.8089330  81.5358250 102.2767920  70.9230750  82.5521000
 104.3666040  71.3110460  82.8878970 104.6543850  71.0564760  82.0111980
 104.8789260  70.7587820  83.4784540 105.5843050  55.0500660  83.4675480
 104.8014840  55.5246160  83.7472240 105.2905980  54.1455490  83.3588660
 110.1364120  55.7523760  81.5124570 110.5772210  55.6968860  80.6646170
 109.8671710  56.6681770  81.5834750 112.0002690  55.3839000  79.5233390
 111.9391090  54.4400220  79.3764410 112.7794720  55.4919090  80.0686850
  96.3055440  71.5231360  78.4857340  96.1377480  70.8902040  79.1839230
  95.4389950  71.7290760  78.1351530  96.9283460  55.3548140  75.9889200
  97.6862820  55.4677020  75.4153230  96.4660630  56.1917340  75.9432630
 103.4697270  57.4687410  78.9791510 102.6571780  57.0944300  78.6387390
 103.9738910  56.7132490  79.2812700 107.9722250  54.1329860  80.2174580
 108.5751620  54.7050070  80.6923100 107.2315240  54.6969300  79.9948480
 111.1156850  54.5351420  75.4914860 111.3107480  55.4334870  75.7582290
 110.3286720  54.3038500  75.9847810  97.9118140  70.2164590  75.9307480
  97.3865760  70.5972620  75.2269440  97.8362720  70.8415360  76.6517190
  99.3008610  55.8812190  74.5291170  99.8301370  55.0941990  74.3999120
  99.9336930  56.5603380  74.7626700 101.4946450  55.6187330  77.5836560
 100.8649190  54.9174640  77.7506690 100.9551590  56.3791460  77.3669720
 112.6683460  71.7752130  77.2521420 112.8435650  71.0889870  76.6082340
 111.9705030  72.2999180  76.8598090 100.5111110  72.1646970  74.8056730
 101.2429930  71.8806250  74.2580620 100.7704780  71.9260250  75.6956110
  99.6725900  68.2811700  74.8103060  99.0434780  68.7496800  75.3588890
  99.7873730  67.4360920  75.2449250 107.1275620  62.3317360  60.9604260
 107.0469670  61.4171970  60.6895970 106.7140040  62.8284430  60.2543970
 105.2593660  64.1096380  62.8413530 104.4835760  63.6296820  63.1312100
 105.9106590  63.4302030  62.6669690  99.2759490  64.4216190  63.7189290
  98.4444370  64.1664900  64.1185800  99.8840470  64.4926960  64.4547210
 109.2801090  68.5156570  61.6212660 108.8182620  67.7443810  61.9499830
 110.0926640  68.5422640  62.1265110  99.2560750  68.4556280  63.9147310
  99.5588790  67.5654020  63.7357530 100.0004340  69.0126500  63.6869560
  97.6851440  59.3818080  57.5031680  96.7968140  59.7234050  57.4011560
  97.9692630  59.1818400  56.6112510  95.6484450  61.9823730  63.3871380
  96.2200560  61.2145930  63.3875020  95.6485990  62.2812490  62.4777990
 105.5064400  70.8014580  61.2416650 104.8875840  71.2572080  60.6711090
 106.3616180  70.9566040  60.8406350 104.7002650  66.7853570  62.8483690
 104.6310930  65.8443510  62.6872820 105.4622510  66.8754980  63.4206260
  96.8909320  57.3908090  65.1740310  96.7112160  56.4933840  65.4543070
  96.4889400  57.9379960  65.8487260 105.7307820  59.5923950  63.0752620
 106.1072640  58.7195830  62.9626290 105.6327330  59.9282650  62.1843060
  99.8612830  57.9649580  58.5370060  99.9679580  58.8653310  58.8438820
  98.9505190  57.9167550  58.2464710 109.5131940  57.0874390  60.0080960
 110.3341560  56.5970960  60.0506440 109.5466020  57.6772050  60.7612800
  97.5095990  59.8868590  63.7822650  98.1906100  60.1506960  64.4010050
  97.1944040  59.0469460  64.1160660 101.7020560  60.9335950  62.8695240
 102.2098780  61.4316920  63.5100260 102.2333800  60.1571150  62.6934600
  99.9856660  55.5734510  67.1358660  99.9875100  56.0906900  66.3304560
  99.1560970  55.0964690  67.1128590 106.3727750  65.6853820  58.6348560
 105.7545020  66.1503270  58.0711280 106.8851000  66.3781300  59.0518070
 101.2359510  65.2129690  65.3132160 100.9028890  65.8398610  65.9553230
 101.4126190  65.7391570  64.5333830 109.7493420  59.0274770  62.7808500
 109.0448990  59.3159660  63.3611610 110.1105580  59.8374880  62.4208060
  99.6671990  57.2844470  65.1429110 100.0088800  58.1286520  64.8482980
  98.7287800  57.4328210  65.2594450 100.4478610  67.1810490  67.1281340
 101.0652610  67.8561570  66.8465790  99.5871730  67.5898470  67.0368840
  95.7410950  66.3710350  56.0088190  95.3638930  66.8597450  55.2773090
  95.9984020  67.0435630  56.6394720 111.3656200  68.6449900  65.0435980
 110.6819720  69.3149010  65.0352650 111.9050490  68.8430550  64.2780840
 112.8180340  58.4729560  63.1717710 111.8705250  58.5068540  63.3033140
 113.1430330  59.2868510  63.5567070 103.3499880  54.7726740  61.4673700
 103.6574860  54.2173630  60.7509200 102.4200580  54.9071200  61.2846690
 108.9014940  70.4894030  63.7581160 108.9142100  70.0856320  62.8903420
 108.3490160  71.2641320  63.6542590 110.1960360  67.2110250  58.8471330
 110.0856690  66.2684580  58.9720750 110.1928610  67.5725890  59.7334090
 108.3000380  65.3923870  65.0863770 108.7169170  65.1783980  64.2517230
 109.0240200  65.6496660  65.6572390 105.7380640  62.8375570  58.2033820
 104.8109920  62.7712950  58.4322290 105.8905460  63.7755700  58.0889060
 105.7249720  59.1092570  55.2000980 104.7853390  59.2706530  55.2853440
 106.0432980  59.8278250  54.6536970 112.2462480  63.7911090  65.1780010
 111.4181110  63.8604180  64.7030140 112.8412960  64.3765400  64.7095840
 109.7677930  64.3995870  58.7069070 109.1490350  64.0615420  58.0595370
 109.7502380  63.7555630  59.4148260 109.2104490  60.5780410  66.1234880
 108.7975670  61.4034120  66.3774870 108.4780440  59.9925450  65.9311240
 101.3437280  63.3640310  60.9853550 100.9394280  62.6517560  60.4899450
 101.4300400  63.0193550  61.8741590 101.8118980  67.0507870  63.1492760
 101.5147270  66.4453340  62.4700540 102.7618800  67.0885180  63.0382120
 100.0565900  60.1383520  64.7652590 100.6080490  60.2478860  63.9905840
 100.5709410  60.5121120  65.4807820 109.9004590  70.6239740  66.8115860
 109.4235150  71.4311930  66.6188470 109.2166380  69.9718070  66.9642070
 100.9037410  66.7889560  69.8000560 100.0065940  67.0129530  70.0473960
 100.9290280  66.9124500  68.8511960 107.9442630  63.6382680  55.7141820
 108.3835910  62.8005110  55.5679640 108.6571050  64.2712080  55.8005960
  99.7308630  63.6602880  68.3757930  99.5916400  64.5325680  68.7445330
  98.8489990  63.3175690  68.2305870 106.0538010  68.5778750  59.6823060
 106.4933920  69.3203080  59.2678450 105.9924900  68.8205320  60.6062020
 101.5288980  69.6024580  70.5843080 101.5004410  70.0067530  69.7171510
 101.3653950  68.6734940  70.4214680 111.5259770  54.8925490  54.0282860
 111.2132430  54.9852320  54.9281930 112.2872240  55.4706520  53.9780290
  98.0441910  62.2585290  58.4860200  97.9239510  62.9847380  57.8741470
  97.7342800  61.4888200  58.0088110  95.6827280  65.4300430  64.2928840
  95.7607700  65.5649200  63.3484560  96.2968960  64.7216320  64.4856960
  96.9274910  67.1300620  60.7035020  96.5202990  67.2715210  59.8488620
  97.8187920  66.8460780  60.5006230 112.8837050  67.5764530  69.0407260
 113.0100110  67.3376410  68.1224440 112.9258430  66.7449070  69.5129340
 106.7453790  71.2792530  67.6102070 107.2598460  71.1900540  68.4124500
 105.9022870  71.6252230  67.9029980 108.7208190  71.5647870  57.0386070
 108.5609330  71.2750810  57.9367900 108.5554900  70.7888000  56.5031300
 101.1996570  71.3446400  58.8157690 101.0239050  70.4281940  58.6025490
 100.3452310  71.7033690  59.0555490 108.4234320  69.0735430  55.5984070
 107.7299480  69.0712720  54.9386350 109.1657180  68.6494750  55.1678240
 107.9884250  70.6998140  59.6732560 108.4441200  69.9187520  59.9871180
 108.3276770  71.4104960  60.2173740 112.7361060  59.6296990  70.0057000
 112.1205330  60.1376660  69.4772460 112.4157480  58.7295320  69.9482940
  95.7386800  66.4714600  66.8323300  95.9017840  66.0019960  66.0142670
  96.2039250  65.9638160  67.4972140 100.5105570  55.6020360  61.8683870
 100.0673720  56.3829900  61.5368390 101.0690560  55.9250250  62.5754810
 104.7975380  58.4688880  67.4719190 104.3354750  58.6771900  68.2839130
 104.3953490  57.6548230  67.1689860 109.7979890  59.6897830  68.6015850
 108.9473480  59.3903580  68.9224920 109.6381680  59.9339840  67.6899670
 106.8929600  61.1899580  70.7014640 107.2183010  60.3563330  70.3616870
 107.6809930  61.7128100  70.8492970 103.6264390  55.2231060  56.7489700
 103.0018570  55.2190930  57.4743010 103.5394510  54.3562020  56.3525670
 102.5481470  56.1467690  63.7273470 102.8453800  57.0530520  63.6465490
 103.0967030  55.6586470  63.1133040 100.3019790  60.7253930  59.5965120
 100.0760710  60.5091100  60.5011740  99.5212320  61.1582390  59.2511090
 107.5317550  60.7317300  58.1955770 106.9326440  61.4553100  58.0119390
 108.0797160  60.6694080  57.4132220 102.7419000  61.6239510  70.2625390
 102.6462600  60.6834240  70.1125790 103.5850980  61.8454580  69.8673460
 106.1382420  59.3680840  60.2259050 106.5311990  59.6853040  59.4127740
 106.4999270  58.4892720  60.3403570  97.8729540  58.0353180  68.4159170
  97.4792930  58.8828390  68.6231950  97.1847940  57.3979550  68.6067810
 104.4474590  58.1188150  71.4855910 103.7572910  57.9260350  72.1202000
 105.1906890  58.4022790  72.0180210  95.1746590  55.9581640  62.4489250
  94.8859640  56.5284500  63.1614230  95.9192350  55.4786090  62.8120480
  95.3616820  59.9001760  53.6591970  95.2791490  60.8432520  53.8006960
  95.0099880  59.7576670  52.7804320 106.7237560  61.9586590  64.3209830
 105.9918680  62.4673400  64.6699930 106.3261900  61.1416570  64.0198610
 103.1614950  58.6340790  62.7262320 103.1651010  58.1930740  61.8766860
 104.0566070  58.9558120  62.8334140  99.0117330  58.5167280  61.6856530
  98.6717380  58.9942510  62.4423580  98.2494650  58.0632400  61.3257630
 103.2235100  59.6352870  55.7169080 103.3447920  59.5939350  56.6654900
 102.8383610  60.4977020  55.5615810 107.1863470  57.4120270  63.7332770
 107.2036210  57.8628920  64.5774620 106.9379050  56.5125910  63.9466210
 102.2356600  61.9454010  55.1152380 101.6673500  61.4972260  54.4888290
 102.9445600  62.3046790  54.5817530 110.6134220  54.8252450  69.5719150
 110.9379990  54.0942110  70.0977130 110.6490730  54.5066090  68.6700140
  97.3125780  65.8466030  68.9919110  96.9280570  65.2059700  69.5902070
  97.6237970  66.5502150  69.5613840 103.4622920  62.6942570  64.4727730
 103.8293050  62.2201140  65.2189070 103.2727980  63.5684140  64.8136070
  96.3263410  57.4386260  60.6021200  96.0410330  57.0741930  61.4399820
  96.2642270  56.7066720  59.9884340 101.2522290  61.7351210  66.7911940
 100.9479360  62.6143190  67.0162300 102.2068750  61.7951000  66.8269380
  99.7804080  65.9412200  57.3878790  99.0066340  65.4009820  57.2277510
 100.5098710  65.4218810  57.0496550 110.5392060  64.9377560  63.1805180
 111.2591180  65.4332850  62.7901290 110.3373880  64.2595450  62.5359050
 106.0002000  56.3315520  57.3234570 105.1866610  55.8328690  57.2479880
 105.8063950  57.1713770  56.9070920 105.9210860  65.0086620  69.0674180
 105.8548170  64.0882290  68.8131770 105.2916000  65.1062060  69.7818820
 108.7150390  60.7035170  55.6196730 109.6030010  61.0152400  55.4448070
 108.6855480  59.8307420  55.2277310  99.8241480  65.6092580  61.0257600
 100.3420150  64.8060840  60.9714490  99.3725500  65.5471720  61.8674430
 104.7110980  66.8758860  56.2984900 105.0526680  67.6201090  55.8028220
 103.8823690  67.1889980  56.6609730  97.3086020  62.5753950  67.9383300
  96.9500960  63.2407800  68.5256640  97.0140580  61.7437500  68.3095920
 100.5099140  63.0338190  70.8222850 100.2099280  63.1795370  69.9250670
 101.2810380  62.4743480  70.7296240 105.8527590  67.8307190  68.8177980
 105.8672130  66.8988150  68.5996890 105.1452690  67.9166950  69.4567750
 110.9864660  62.0147010  55.0876590 110.9028380  62.4461230  54.2373030
 111.7058850  62.4745360  55.5203410 112.0638800  64.4714530  68.1646560
 111.3386990  65.0643310  67.9675950 112.5914260  64.4638070  67.3659930
 112.0151910  68.8689270  57.8158720 111.3728070  68.2144890  58.0902440
 111.6282570  69.2744360  57.0399390 107.5938390  66.1974700  61.6630410
 107.9462210  65.6002830  61.0031780 106.7100720  65.8718930  61.8338660
 103.6801670  66.9572390  59.0700820 104.3672800  67.5041600  59.4508410
 102.8934090  67.5013120  59.1050430  95.8194070  62.5745210  54.5617900
  96.6888920  62.8570010  54.8453820  95.3284390  63.3881080  54.4466710
 102.9828880  63.9618420  58.6826180 103.4391660  64.7723670  58.9086370
 102.6317090  63.6441560  59.5144670 105.2861490  69.4724760  65.9118480
 105.9303710  69.6784140  66.5891900 105.6490930  68.7113160  65.4589330
  98.8840660  54.3056070  59.1548700  98.7555290  54.2973970  60.1033620
  98.0602680  54.6439160  58.8039710 106.5593570  67.4757110  64.6295930
 107.2015800  66.7750270  64.7428100 107.0842920  68.2555550  64.4492820
 110.4049290  67.7605730  54.3535070 110.1786870  67.0436170  54.9459710
 110.0145490  67.5118170  53.5156820 108.3331190  68.2752010  67.8331990
 108.6687430  68.8618700  68.5109910 107.4131530  68.1444720  68.0629780
  96.1865320  71.7872590  55.1279530  96.5462960  72.3861930  54.4736800
  96.0457660  72.3332480  55.9014560  95.8834590  56.0647190  68.6155400
  95.1693110  56.2644110  69.2208010  96.3029630  55.2886760  68.9870200
 109.9865540  65.6777670  56.0149230 109.6987240  66.1390360  56.8027110
 110.7817710  65.2175440  56.2833450  96.1707180  70.0527450  69.6021930
  96.2798300  69.1122190  69.4617320  95.5187740  70.3182200  68.9535660
 104.1619770  68.3243340  71.0020050 103.8416640  67.6052580  71.5465740
 103.4878130  68.9998410  71.0756110 102.2033940  69.1703790  55.9453200
 102.1944040  69.9033480  55.3297710 101.2832300  68.9235370  56.0380160
  97.8040580  64.3918680  56.6899960  97.1968530  65.1317580  56.6995260
  98.2789930  64.4818040  55.8638160 107.3773370  58.5569500  66.3656850
 107.7454190  57.7364710  66.6936420 106.5171570  58.6171390  66.7812500
 110.7435400  57.5126440  57.1744410 110.1148560  57.6172110  56.4602640
 110.2487320  57.7323220  57.9638290 105.1893540  69.2332030  54.6078390
 105.2905520  69.0296020  53.6780370 104.2895280  68.9790310  54.8126170
 102.7119430  59.7912390  58.5902290 102.0035580  60.2598730  59.0315900
 102.9963910  59.1334400  59.2247480 104.3375360  61.2109090  66.5894820
 104.8360610  61.6854910  67.2546670 104.4798310  60.2872610  66.7964850
 106.7434860  56.5163050  60.0298080 106.6202640  56.5349180  59.0807590
 107.6919420  56.5641990  60.1496480 103.8311650  71.7518350  59.3026060
 104.0853150  71.7139740  58.3805430 102.8824130  71.6251680  59.2954310
 100.9154450  58.0997470  55.9653000 101.7644980  58.5367620  55.8993190
 100.5485720  58.4117730  56.7925060 111.5442220  57.4277050  67.4323210
 111.0415820  58.1682450  67.7717020 112.3598880  57.8161050  67.1160000
 109.8364230  62.6710230  60.8784570 108.8954370  62.6860460  61.0532260
 110.1508300  61.8846190  61.3244870  99.8145870  64.3529830  54.4388530
 100.5809140  64.2411190  55.0013960  99.8920560  63.6567800  53.7865300
  98.5092630  61.7854900  55.1221420  98.5896220  60.8382410  55.2338820
  99.4012380  62.1161780  55.2282080 111.8389810  69.8419080  62.5538830
 111.9637230  70.6650250  63.0262640 112.7055370  69.6309810  62.2062980
  99.3107340  71.9350290  62.2255960 100.0469820  71.3865750  62.4964530
  99.6948260  72.8006300  62.0861950  96.1952820  68.0023860  58.0997470
  95.2692600  68.2445000  58.0902880  96.6609250  68.8298120  57.9782220
  98.3165620  71.1196360  71.4141540  99.1178350  71.4408410  71.8276940
  97.8017440  70.7591940  72.1361450 102.4209650  71.1080600  54.0481530
 103.2138260  71.3969430  53.5963320 101.9014000  70.6772770  53.3694010
 107.1530250  67.2276230  71.3616950 106.5468410  67.2507830  70.6212700
 106.8484360  66.4959270  71.8984200 108.5830620  70.9556520  69.9726360
 109.5352370  70.8714540  69.9226600 108.4358840  71.6198230  70.6460150
 111.4739820  70.3350730  55.4718270 111.1881330  69.9215870  54.6572450
 111.2759370  71.2638440  55.3518790  96.0363430  63.6069820  70.3577590
  96.5402450  63.0277100  70.9293820  95.2970850  63.8910050  70.8953960
 102.9387050  66.3284010  53.9123880 102.8337690  65.7136360  54.6385260
 102.7711270  65.8049900  53.1286890 103.0901370  65.0140810  69.8913110
 102.3247040  65.5825810  69.8067780 103.2717330  64.7217020  68.9981340
 106.1789780  65.3904040  54.5165870 105.6299880  65.8373340  55.1608610
 106.8009040  64.8853290  55.0403540 110.2324720  66.7446140  70.4488130
 110.9734190  67.0821900  69.9455590 109.4697400  66.9138200  69.8957900
  98.0686510  61.7499410  71.2527660  98.1091850  61.4513280  72.1612890
  98.9232010  62.1507020  71.0935180 101.8464900  64.3494960  56.4131170
 102.2681320  64.1834830  57.2562560 101.9715740  63.5395190  55.9186310
 100.0092320  60.3291510  69.2202150  99.4788780  59.8382460  68.5925490
 100.6780390  60.7575710  68.6860080 104.3592540  63.3732570  53.6608270
 104.8798200  62.6581590  53.2949420 105.0060940  64.0118440  53.9608780
 108.9070380  64.7960970  68.9843340 109.3211400  64.9506050  69.8333760
 107.9721380  64.9216190  69.1469120 109.3792550  62.1357130  70.9882490
 109.9613320  61.3809450  70.9002970 109.5554320  62.6664570  70.2113970
 100.4964620  57.2953880  69.2999440 100.4021490  56.6774630  68.5750310
  99.9162010  58.0220170  69.0729350 103.2626060  55.8527120  66.3326830
 102.8143360  55.8751380  65.4872380 102.6291260  55.4546140  66.9297130
 103.6685610  64.7481450  66.9539270 104.0873720  65.5914180  66.7815510
 102.7494240  64.8853490  66.7246050 106.0049510  62.4797630  68.3377110
 106.1245720  61.8838770  69.0771950 106.8643510  62.5167320  67.9178410
 108.3437410  63.0334820  66.9139620 107.8172630  63.5577440  66.3104760
 108.6868750  63.6662210  67.5449350 100.7423800  60.4228190  53.3589330
 100.5412860  59.5595550  53.7202670 100.5715850  60.3361550  52.4210930
 101.5193030  71.0534460  68.0697000 100.9814120  71.7780520  67.7505700
 101.7726990  70.5764800  67.2794340 102.7718280  59.0218980  69.5952930
 103.3617970  58.7134830  70.2830750 101.9538520  58.5498730  69.7512830
 107.5911710  58.6384790  69.8285950 106.9027230  57.9766330  69.7635940
 108.3117730  58.1923060  70.2734410 108.2212110  55.2336420  55.8876210
 108.5014400  54.3904320  56.2435630 107.4477840  55.4659530  56.4014960
  99.5406600  57.5228810  53.3467210  99.8432500  57.5296240  52.4386360
 100.2801190  57.1726670  53.8434870 104.3755240  72.2885670  68.3283650
 104.3013940  73.1920810  68.6356020 103.4734080  71.9697570  68.3005720
 102.7591530  56.4663430  54.3323410 102.4113530  55.7887420  53.7525860
 102.9604300  56.0052940  55.1466800 104.9240570  71.4544180  55.9510010
 105.8191360  71.7929150  55.9728770 104.9558200  70.7323590  55.3234290
  98.5636730  66.8271230  54.1797010  99.0011600  67.3700900  54.8354590
  99.0484460  66.0018180  54.1893350  95.7782530  69.6160260  61.6317270
  96.1085540  68.7481320  61.3995910  96.2073530  69.8218780  62.4622230
 100.3744450  67.9469270  59.2919240 100.0739990  67.8234240  60.1923150
 100.2681940  67.0877860  58.8834970  96.2672740  70.4830850  64.3698900
  95.8303730  70.6631650  65.2023050  96.8350420  71.2405470  64.2280620
 111.9034920  69.9847850  68.6576210 111.3036910  70.0440410  67.9140130
 112.0328820  69.0452830  68.7873060 113.1436370  67.7265670  53.9945920
 112.3129330  67.7942320  54.4653150 113.3208200  68.6169790  53.6912780
 112.5992830  64.4713150  56.4980120 113.3611740  65.0409800  56.6039810
 112.6147200  63.9040350  57.2688430  96.0997170  62.9951080  60.7287780
  95.4446010  62.7262720  60.0847480  96.9375120  62.8855560  60.2789760
 110.5886560  66.7099830  66.7552370 109.7746400  67.1396990  67.0178160
 110.9960760  67.3218240  66.1421420 112.6512000  64.7647520  53.6552640
 112.9260840  65.6726400  53.5271860 112.4622740  64.7010050  54.5914630
 109.0487610  57.7892370  54.9506270 109.4672490  57.6023350  54.1102930
 108.7423670  56.9371420  55.2609200 112.5477340  62.7016510  58.6482070
 112.1720940  61.9344440  58.2163360 111.8180460  63.0839210  59.1357000
  97.1373100  63.3803650  65.2691120  97.5046140  63.2931050  66.1487140
  96.5683920  62.6170200  65.1697980 111.9376960  61.8488030  68.2821590
 111.7063050  61.6200780  67.3819540 112.1981510  62.7687580  68.2366480
  96.6889100  60.2912740  69.1749540  95.7945150  60.2579500  69.5143250
  97.2286650  60.4899530  69.9400790 110.3765030  57.0744460  71.0601290
 111.2535210  57.0827860  71.4435290 110.3885870  56.3375300  70.4493640
  95.3135250  60.2050010  56.6713110  94.4099330  60.4680210  56.4964770
  95.7975870  60.4761180  55.8913070 111.8228300  60.9274000  61.9489310
 112.3465780  60.4336650  61.3179480 112.4087720  61.0624360  62.6936880
 112.0018020  61.0113870  65.4708860 111.0520730  60.9777410  65.5853850
 112.1831030  61.9213980  65.2358630  97.8562460  59.2615550  54.5807490
  98.5654160  58.8398770  54.0954770  97.1402400  59.3290780  53.9490840
  97.5036620  55.3154880  53.6210140  98.2264750  55.8563820  53.9391360
  97.7761140  55.0418300  52.7451680 111.3128270  60.1847350  57.8881720
 111.8087390  59.9518220  58.6730600 111.1144340  59.3459190  57.4719360
  97.1928810  54.5661070  63.5232760  97.8405000  54.0158450  63.0827920
  97.6130650  54.8204220  64.3448570 111.0881150  54.7602430  66.8802400
 111.7253370  55.3736570  67.2461590 111.2356040  54.7963090  65.9351630
 110.6462610  71.4618430  60.2820640 111.2421680  71.1403000  59.6055060
 110.9040760  70.9890250  61.0733910  96.9460810  54.7216740  66.2658080
  96.5975630  55.1780560  67.0316260  96.6148510  53.8273870  66.3480510
  98.5525180  67.8936340  70.4311270  98.5094810  67.5229250  71.3125730
  98.6836190  68.8313910  70.5713090 102.2531210  69.4495930  66.0320990
 102.0122570  69.7170490  65.1451510 103.1933850  69.6201660  66.0871850
 104.4585630  55.9128620  69.7877500 104.3974520  56.5050450  70.5372910
 105.3986010  55.8054580  69.6427760 107.0960190  55.5698680  69.4269790
 107.7100600  55.8877970  68.7650870 107.6409750  55.0847270  70.0465650
  97.6181450  54.2492940  69.5408850  98.1664440  54.0680990  68.7774960
  97.6836760  53.4587050  70.0765160  98.3913210  70.8398590  67.5509050
  97.7973530  70.7083290  68.2899090  98.3837050  70.0036730  67.0851150
 107.8368230  54.1330820  65.7539080 106.9628070  54.4665930  65.5512010
 107.7278980  53.6604000  66.5790950 108.7440210  56.3401690  67.1380800
 108.4153570  55.5253450  66.7582530 109.6922510  56.2971500  67.0146490
 111.1974820  72.1113730  64.1118370 110.7377790  72.8629540  63.7376390
 110.5687280  71.3920200  64.0533170  98.0225440  68.2056970  66.5017090
  97.2959500  67.5862260  66.4343040  98.0834590  68.5997580  65.6315170
 101.6270540  70.4201970  63.2866500 102.1435560  69.8089330  62.7614760
 102.2767920  70.9230750  63.7777510 104.3666040  71.3110460  64.1135480
 104.6543850  71.0564760  63.2368490 104.8789260  70.7587820  64.7041050
 105.5843050  55.0500660  64.6931990 104.8014840  55.5246160  64.9728750
 105.2905980  54.1455490  64.5845170 110.1364120  55.7523760  62.7381080
 110.5772210  55.6968860  61.8902680 109.8671710  56.6681770  62.8091260
 112.0002690  55.3839000  60.7489900 111.9391090  54.4400220  60.6020920
 112.7794720  55.4919090  61.2943360  96.3055440  71.5231360  59.7113850
  96.1377480  70.8902040  60.4095740  95.4389950  71.7290760  59.3608040
  96.9283460  55.3548140  57.2145710  97.6862820  55.4677020  56.6409740
  96.4660630  56.1917340  57.1689140 103.4697270  57.4687410  60.2048020
 102.6571780  57.0944300  59.8643900 103.9738910  56.7132490  60.5069210
 107.9722250  54.1329860  61.4431090 108.5751620  54.7050070  61.9179610
 107.2315240  54.6969300  61.2204990 111.1156850  54.5351420  56.7171370
 111.3107480  55.4334870  56.9838800 110.3286720  54.3038500  57.2104320
  97.9118140  70.2164590  57.1563990  97.3865760  70.5972620  56.4525950
  97.8362720  70.8415360  57.8773700  99.3008610  55.8812190  55.7547680
  99.8301370  55.0941990  55.6255630  99.9336930  56.5603380  55.9883210
 101.4946450  55.6187330  58.8093070 100.8649190  54.9174640  58.9763200
 100.9551590  56.3791460  58.5926230 104.4338400  72.2326560  71.4803680
 105.3605710  71.9970830  71.5239640 104.4188830  73.0598560  70.9989710
 112.6683460  71.7752130  58.4777930 112.8435650  71.0889870  57.8338850
 111.9705030  72.2999180  58.0854600 101.6202010  54.8971310  71.2445560
 101.3386280  55.4004910  70.4806380 102.0021710  54.0993060  70.8787690
 100.5111110  72.1646970  56.0313240 101.2429930  71.8806250  55.4837130
 100.7704780  71.9260250  56.9212620  99.6725900  68.2811700  56.0359570
  99.0434780  68.7496800  56.5845400  99.7873730  67.4360920  56.4705760
 108.2217470  54.3124890  71.8226030 108.1082920  54.6319500  72.7177550
 109.0387210  54.7137400  71.5263310 111.0015960  71.4596420  71.3044720
 111.7941280  70.9645650  71.0970680 111.2949110  72.1386560  71.9120330
 107.1275620  62.3317360  42.1860770 107.0469670  61.4171970  41.9152480
 106.7140040  62.8284430  41.4800480 105.2593660  64.1096380  44.0670040
 104.4835760  63.6296820  44.3568610 105.9106590  63.4302030  43.8926200
  99.2759490  64.4216190  44.9445800  98.4444370  64.1664900  45.3442310
  99.8840470  64.4926960  45.6803720 109.2801090  68.5156570  42.8469170
 108.8182620  67.7443810  43.1756340 110.0926640  68.5422640  43.3521620
  99.2560750  68.4556280  45.1403820  99.5588790  67.5654020  44.9614040
 100.0004340  69.0126500  44.9126070  97.6851440  59.3818080  38.7288190
  96.7968140  59.7234050  38.6268070  97.9692630  59.1818400  37.8369020
  95.6484450  61.9823730  44.6127890  96.2200560  61.2145930  44.6131530
  95.6485990  62.2812490  43.7034500 105.5064400  70.8014580  42.4673160
 104.8875840  71.2572080  41.8967600 106.3616180  70.9566040  42.0662860
 104.7002650  66.7853570  44.0740200 104.6310930  65.8443510  43.9129330
 105.4622510  66.8754980  44.6462770  96.8909320  57.3908090  46.3996820
  96.7112160  56.4933840  46.6799580  96.4889400  57.9379960  47.0743770
 105.7307820  59.5923950  44.3009130 106.1072640  58.7195830  44.1882800
 105.6327330  59.9282650  43.4099570  99.8612830  57.9649580  39.7626570
  99.9679580  58.8653310  40.0695330  98.9505190  57.9167550  39.4721220
 109.5131940  57.0874390  41.2337470 110.3341560  56.5970960  41.2762950
 109.5466020  57.6772050  41.9869310  97.5095990  59.8868590  45.0079160
  98.1906100  60.1506960  45.6266560  97.1944040  59.0469460  45.3417170
 101.7020560  60.9335950  44.0951750 102.2098780  61.4316920  44.7356770
 102.2333800  60.1571150  43.9191110  99.9856660  55.5734510  48.3615170
  99.9875100  56.0906900  47.5561070  99.1560970  55.0964690  48.3385100
 106.3727750  65.6853820  39.8605070 105.7545020  66.1503270  39.2967790
 106.8851000  66.3781300  40.2774580 101.2359510  65.2129690  46.5388670
 100.9028890  65.8398610  47.1809740 101.4126190  65.7391570  45.7590340
 109.7493420  59.0274770  44.0065010 109.0448990  59.3159660  44.5868120
 110.1105580  59.8374880  43.6464570  99.6671990  57.2844470  46.3685620
 100.0088800  58.1286520  46.0739490  98.7287800  57.4328210  46.4850960
 100.4478610  67.1810490  48.3537850 101.0652610  67.8561570  48.0722300
  99.5871730  67.5898470  48.2625350  95.7410950  66.3710350  37.2344700
  95.3638930  66.8597450  36.5029600  95.9984020  67.0435630  37.8651230
 111.3656200  68.6449900  46.2692490 110.6819720  69.3149010  46.2609160
 111.9050490  68.8430550  45.5037350 112.8180340  58.4729560  44.3974220
 111.8705250  58.5068540  44.5289650 113.1430330  59.2868510  44.7823580
 103.3499880  54.7726740  42.6930210 103.6574860  54.2173630  41.9765710
 102.4200580  54.9071200  42.5103200 108.9014940  70.4894030  44.9837670
 108.9142100  70.0856320  44.1159930 108.3490160  71.2641320  44.8799100
 110.1960360  67.2110250  40.0727840 110.0856690  66.2684580  40.1977260
 110.1928610  67.5725890  40.9590600 108.3000380  65.3923870  46.3120280
 108.7169170  65.1783980  45.4773740 109.0240200  65.6496660  46.8828900
 105.7380640  62.8375570  39.4290330 104.8109920  62.7712950  39.6578800
 105.8905460  63.7755700  39.3145570 105.7249720  59.1092570  36.4257490
 104.7853390  59.2706530  36.5109950 106.0432980  59.8278250  35.8793480
 112.2462480  63.7911090  46.4036520 111.4181110  63.8604180  45.9286650
 112.8412960  64.3765400  45.9352350 109.7677930  64.3995870  39.9325580
 109.1490350  64.0615420  39.2851880 109.7502380  63.7555630  40.6404770
 109.2104490  60.5780410  47.3491390 108.7975670  61.4034120  47.6031380
 108.4780440  59.9925450  47.1567750 101.3437280  63.3640310  42.2110060
 100.9394280  62.6517560  41.7155960 101.4300400  63.0193550  43.0998100
 101.8118980  67.0507870  44.3749270 101.5147270  66.4453340  43.6957050
 102.7618800  67.0885180  44.2638630 100.0565900  60.1383520  45.9909100
 100.6080490  60.2478860  45.2162350 100.5709410  60.5121120  46.7064330
 109.9004590  70.6239740  48.0372370 109.4235150  71.4311930  47.8444980
 109.2166380  69.9718070  48.1898580 100.9037410  66.7889560  51.0257070
 100.0065940  67.0129530  51.2730470 100.9290280  66.9124500  50.0768470
 107.9442630  63.6382680  36.9398330 108.3835910  62.8005110  36.7936150
 108.6571050  64.2712080  37.0262470  99.7308630  63.6602880  49.6014440
  99.5916400  64.5325680  49.9701840  98.8489990  63.3175690  49.4562380
 106.0538010  68.5778750  40.9079570 106.4933920  69.3203080  40.4934960
 105.9924900  68.8205320  41.8318530 101.5288980  69.6024580  51.8099590
 101.5004410  70.0067530  50.9428020 101.3653950  68.6734940  51.6471190
 111.5259770  54.8925490  35.2539370 111.2132430  54.9852320  36.1538440
 112.2872240  55.4706520  35.2036800  98.0441910  62.2585290  39.7116710
  97.9239510  62.9847380  39.0997980  97.7342800  61.4888200  39.2344620
  95.6827280  65.4300430  45.5185350  95.7607700  65.5649200  44.5741070
  96.2968960  64.7216320  45.7113470  96.9274910  67.1300620  41.9291530
  96.5202990  67.2715210  41.0745130  97.8187920  66.8460780  41.7262740
 112.8837050  67.5764530  50.2663770 113.0100110  67.3376410  49.3480950
 112.9258430  66.7449070  50.7385850 106.7453790  71.2792530  48.8358580
 107.2598460  71.1900540  49.6381010 105.9022870  71.6252230  49.1286490
 108.7208190  71.5647870  38.2642580 108.5609330  71.2750810  39.1624410
 108.5554900  70.7888000  37.7287810 101.1996570  71.3446400  40.0414200
 101.0239050  70.4281940  39.8282000 100.3452310  71.7033690  40.2812000
 108.4234320  69.0735430  36.8240580 107.7299480  69.0712720  36.1642860
 109.1657180  68.6494750  36.3934750 107.9884250  70.6998140  40.8989070
 108.4441200  69.9187520  41.2127690 108.3276770  71.4104960  41.4430250
 112.7361060  59.6296990  51.2313510 112.1205330  60.1376660  50.7028970
 112.4157480  58.7295320  51.1739450  95.7386800  66.4714600  48.0579810
  95.9017840  66.0019960  47.2399180  96.2039250  65.9638160  48.7228650
 100.5105570  55.6020360  43.0940380 100.0673720  56.3829900  42.7624900
 101.0690560  55.9250250  43.8011320 104.7975380  58.4688880  48.6975700
 104.3354750  58.6771900  49.5095640 104.3953490  57.6548230  48.3946370
 109.7979890  59.6897830  49.8272360 108.9473480  59.3903580  50.1481430
 109.6381680  59.9339840  48.9156180 106.8929600  61.1899580  51.9271150
 107.2183010  60.3563330  51.5873380 107.6809930  61.7128100  52.0749480
 103.6264390  55.2231060  37.9746210 103.0018570  55.2190930  38.6999520
 103.5394510  54.3562020  37.5782180 102.5481470  56.1467690  44.9529980
 102.8453800  57.0530520  44.8722000 103.0967030  55.6586470  44.3389550
 100.3019790  60.7253930  40.8221630 100.0760710  60.5091100  41.7268250
  99.5212320  61.1582390  40.4767600 107.5317550  60.7317300  39.4212280
 106.9326440  61.4553100  39.2375900 108.0797160  60.6694080  38.6388730
 102.7419000  61.6239510  51.4881900 102.6462600  60.6834240  51.3382300
 103.5850980  61.8454580  51.0929970 106.1382420  59.3680840  41.4515560
 106.5311990  59.6853040  40.6384250 106.4999270  58.4892720  41.5660080
  97.8729540  58.0353180  49.6415680  97.4792930  58.8828390  49.8488460
  97.1847940  57.3979550  49.8324320 104.4474590  58.1188150  52.7112420
 103.7572910  57.9260350  53.3458510 105.1906890  58.4022790  53.2436720
  95.1746590  55.9581640  43.6745760  94.8859640  56.5284500  44.3870740
  95.9192350  55.4786090  44.0376990  95.3616820  59.9001760  34.8848480
  95.2791490  60.8432520  35.0263470  95.0099880  59.7576670  34.0060830
 106.7237560  61.9586590  45.5466340 105.9918680  62.4673400  45.8956440
 106.3261900  61.1416570  45.2455120 103.1614950  58.6340790  43.9518830
 103.1651010  58.1930740  43.1023370 104.0566070  58.9558120  44.0590650
  99.0117330  58.5167280  42.9113040  98.6717380  58.9942510  43.6680090
  98.2494650  58.0632400  42.5514140 103.2235100  59.6352870  36.9425590
 103.3447920  59.5939350  37.8911410 102.8383610  60.4977020  36.7872320
 107.1863470  57.4120270  44.9589280 107.2036210  57.8628920  45.8031130
 106.9379050  56.5125910  45.1722720 102.2356600  61.9454010  36.3408890
 101.6673500  61.4972260  35.7144800 102.9445600  62.3046790  35.8074040
 110.6134220  54.8252450  50.7975660 110.9379990  54.0942110  51.3233640
 110.6490730  54.5066090  49.8956650  97.3125780  65.8466030  50.2175620
  96.9280570  65.2059700  50.8158580  97.6237970  66.5502150  50.7870350
 103.4622920  62.6942570  45.6984240 103.8293050  62.2201140  46.4445580
 103.2727980  63.5684140  46.0392580  96.3263410  57.4386260  41.8277710
  96.0410330  57.0741930  42.6656330  96.2642270  56.7066720  41.2140850
 101.2522290  61.7351210  48.0168450 100.9479360  62.6143190  48.2418810
 102.2068750  61.7951000  48.0525890  99.7804080  65.9412200  38.6135300
  99.0066340  65.4009820  38.4534020 100.5098710  65.4218810  38.2753060
 110.5392060  64.9377560  44.4061690 111.2591180  65.4332850  44.0157800
 110.3373880  64.2595450  43.7615560 106.0002000  56.3315520  38.5491080
 105.1866610  55.8328690  38.4736390 105.8063950  57.1713770  38.1327430
 105.9210860  65.0086620  50.2930690 105.8548170  64.0882290  50.0388280
 105.2916000  65.1062060  51.0075330 108.7150390  60.7035170  36.8453240
 109.6030010  61.0152400  36.6704580 108.6855480  59.8307420  36.4533820
  99.8241480  65.6092580  42.2514110 100.3420150  64.8060840  42.1971000
  99.3725500  65.5471720  43.0930940 104.7110980  66.8758860  37.5241410
 105.0526680  67.6201090  37.0284730 103.8823690  67.1889980  37.8866240
  97.3086020  62.5753950  49.1639810  96.9500960  63.2407800  49.7513150
  97.0140580  61.7437500  49.5352430 100.5099140  63.0338190  52.0479360
 100.2099280  63.1795370  51.1507180 101.2810380  62.4743480  51.9552750
 105.8527590  67.8307190  50.0434490 105.8672130  66.8988150  49.8253400
 105.1452690  67.9166950  50.6824260 110.9864660  62.0147010  36.3133100
 110.9028380  62.4461230  35.4629540 111.7058850  62.4745360  36.7459920
 112.0638800  64.4714530  49.3903070 111.3386990  65.0643310  49.1932460
 112.5914260  64.4638070  48.5916440 112.0151910  68.8689270  39.0415230
 111.3728070  68.2144890  39.3158950 111.6282570  69.2744360  38.2655900
 107.5938390  66.1974700  42.8886920 107.9462210  65.6002830  42.2288290
 106.7100720  65.8718930  43.0595170 103.6801670  66.9572390  40.2957330
 104.3672800  67.5041600  40.6764920 102.8934090  67.5013120  40.3306940
  95.8194070  62.5745210  35.7874410  96.6888920  62.8570010  36.0710330
  95.3284390  63.3881080  35.6723220 102.9828880  63.9618420  39.9082690
 103.4391660  64.7723670  40.1342880 102.6317090  63.6441560  40.7401180
 105.2861490  69.4724760  47.1374990 105.9303710  69.6784140  47.8148410
 105.6490930  68.7113160  46.6845840  98.8840660  54.3056070  40.3805210
  98.7555290  54.2973970  41.3290130  98.0602680  54.6439160  40.0296220
 106.5593570  67.4757110  45.8552440 107.2015800  66.7750270  45.9684610
 107.0842920  68.2555550  45.6749330 110.4049290  67.7605730  35.5791580
 110.1786870  67.0436170  36.1716220 110.0145490  67.5118170  34.7413330
 108.3331190  68.2752010  49.0588500 108.6687430  68.8618700  49.7366420
 107.4131530  68.1444720  49.2886290  96.1865320  71.7872590  36.3536040
  96.5462960  72.3861930  35.6993310  96.0457660  72.3332480  37.1271070
  95.8834590  56.0647190  49.8411910  95.1693110  56.2644110  50.4464520
  96.3029630  55.2886760  50.2126710 109.9865540  65.6777670  37.2405740
 109.6987240  66.1390360  38.0283620 110.7817710  65.2175440  37.5089960
  96.1707180  70.0527450  50.8278440  96.2798300  69.1122190  50.6873830
  95.5187740  70.3182200  50.1792170 104.1619770  68.3243340  52.2276560
 103.8416640  67.6052580  52.7722250 103.4878130  68.9998410  52.3012620
 102.2033940  69.1703790  37.1709710 102.1944040  69.9033480  36.5554220
 101.2832300  68.9235370  37.2636670  97.8040580  64.3918680  37.9156470
  97.1968530  65.1317580  37.9251770  98.2789930  64.4818040  37.0894670
 107.3773370  58.5569500  47.5913360 107.7454190  57.7364710  47.9192930
 106.5171570  58.6171390  48.0069010 110.7435400  57.5126440  38.4000920
 110.1148560  57.6172110  37.6859150 110.2487320  57.7323220  39.1894800
 105.1893540  69.2332030  35.8334900 105.2905520  69.0296020  34.9036880
 104.2895280  68.9790310  36.0382680 102.7119430  59.7912390  39.8158800
 102.0035580  60.2598730  40.2572410 102.9963910  59.1334400  40.4503990
 104.3375360  61.2109090  47.8151330 104.8360610  61.6854910  48.4803180
 104.4798310  60.2872610  48.0221360 106.7434860  56.5163050  41.2554590
 106.6202640  56.5349180  40.3064100 107.6919420  56.5641990  41.3752990
 103.8311650  71.7518350  40.5282570 104.0853150  71.7139740  39.6061940
 102.8824130  71.6251680  40.5210820 100.9154450  58.0997470  37.1909510
 101.7644980  58.5367620  37.1249700 100.5485720  58.4117730  38.0181570
 111.5442220  57.4277050  48.6579720 111.0415820  58.1682450  48.9973530
 112.3598880  57.8161050  48.3416510 109.8364230  62.6710230  42.1041080
 108.8954370  62.6860460  42.2788770 110.1508300  61.8846190  42.5501380
  99.8145870  64.3529830  35.6645040 100.5809140  64.2411190  36.2270470
  99.8920560  63.6567800  35.0121810  98.5092630  61.7854900  36.3477930
  98.5896220  60.8382410  36.4595330  99.4012380  62.1161780  36.4538590
 111.8389810  69.8419080  43.7795340 111.9637230  70.6650250  44.2519150
 112.7055370  69.6309810  43.4319490  99.3107340  71.9350290  43.4512470
 100.0469820  71.3865750  43.7221040  99.6948260  72.8006300  43.3118460
  96.1952820  68.0023860  39.3253980  95.2692600  68.2445000  39.3159390
  96.6609250  68.8298120  39.2038730  98.3165620  71.1196360  52.6398050
  99.1178350  71.4408410  53.0533450  97.8017440  70.7591940  53.3617960
 102.4209650  71.1080600  35.2738040 103.2138260  71.3969430  34.8219830
 101.9014000  70.6772770  34.5950520 107.1530250  67.2276230  52.5873460
 106.5468410  67.2507830  51.8469210 106.8484360  66.4959270  53.1240710
 108.5830620  70.9556520  51.1982870 109.5352370  70.8714540  51.1483110
 108.4358840  71.6198230  51.8716660 111.4739820  70.3350730  36.6974780
 111.1881330  69.9215870  35.8828960 111.2759370  71.2638440  36.5775300
  96.0363430  63.6069820  51.5834100  96.5402450  63.0277100  52.1550330
  95.2970850  63.8910050  52.1210470 102.9387050  66.3284010  35.1380390
 102.8337690  65.7136360  35.8641770 102.7711270  65.8049900  34.3543400
 103.0901370  65.0140810  51.1169620 102.3247040  65.5825810  51.0324290
 103.2717330  64.7217020  50.2237850 106.1789780  65.3904040  35.7422380
 105.6299880  65.8373340  36.3865120 106.8009040  64.8853290  36.2660050
 110.2324720  66.7446140  51.6744640 110.9734190  67.0821900  51.1712100
 109.4697400  66.9138200  51.1214410  98.0686510  61.7499410  52.4784170
  98.1091850  61.4513280  53.3869400  98.9232010  62.1507020  52.3191690
 101.8464900  64.3494960  37.6387680 102.2681320  64.1834830  38.4819070
 101.9715740  63.5395190  37.1442820 100.0092320  60.3291510  50.4458660
  99.4788780  59.8382460  49.8182000 100.6780390  60.7575710  49.9116590
 104.3592540  63.3732570  34.8864780 104.8798200  62.6581590  34.5205930
 105.0060940  64.0118440  35.1865290 108.9070380  64.7960970  50.2099850
 109.3211400  64.9506050  51.0590270 107.9721380  64.9216190  50.3725630
 109.3792550  62.1357130  52.2139000 109.9613320  61.3809450  52.1259480
 109.5554320  62.6664570  51.4370480 100.4964620  57.2953880  50.5255950
 100.4021490  56.6774630  49.8006820  99.9162010  58.0220170  50.2985860
 103.2626060  55.8527120  47.5583340 102.8143360  55.8751380  46.7128890
 102.6291260  55.4546140  48.1553640 103.6685610  64.7481450  48.1795780
 104.0873720  65.5914180  48.0072020 102.7494240  64.8853490  47.9502560
 106.0049510  62.4797630  49.5633620 106.1245720  61.8838770  50.3028460
 106.8643510  62.5167320  49.1434920 108.3437410  63.0334820  48.1396130
 107.8172630  63.5577440  47.5361270 108.6868750  63.6662210  48.7705860
 100.7423800  60.4228190  34.5845840 100.5412860  59.5595550  34.9459180
 100.5715850  60.3361550  33.6467440 101.5193030  71.0534460  49.2953510
 100.9814120  71.7780520  48.9762210 101.7726990  70.5764800  48.5050850
 102.7718280  59.0218980  50.8209440 103.3617970  58.7134830  51.5087260
 101.9538520  58.5498730  50.9769340 107.5911710  58.6384790  51.0542460
 106.9027230  57.9766330  50.9892450 108.3117730  58.1923060  51.4990920
 108.2212110  55.2336420  37.1132720 108.5014400  54.3904320  37.4692140
 107.4477840  55.4659530  37.6271470  99.5406600  57.5228810  34.5723720
  99.8432500  57.5296240  33.6642870 100.2801190  57.1726670  35.0691380
 104.3755240  72.2885670  49.5540160 104.3013940  73.1920810  49.8612530
 103.4734080  71.9697570  49.5262230 102.7591530  56.4663430  35.5579920
 102.4113530  55.7887420  34.9782370 102.9604300  56.0052940  36.3723310
 104.9240570  71.4544180  37.1766520 105.8191360  71.7929150  37.1985280
 104.9558200  70.7323590  36.5490800  98.5636730  66.8271230  35.4053520
  99.0011600  67.3700900  36.0611100  99.0484460  66.0018180  35.4149860
  95.7782530  69.6160260  42.8573780  96.1085540  68.7481320  42.6252420
  96.2073530  69.8218780  43.6878740 100.3744450  67.9469270  40.5175750
 100.0739990  67.8234240  41.4179660 100.2681940  67.0877860  40.1091480
  96.2672740  70.4830850  45.5955410  95.8303730  70.6631650  46.4279560
  96.8350420  71.2405470  45.4537130 111.9034920  69.9847850  49.8832720
 111.3036910  70.0440410  49.1396640 112.0328820  69.0452830  50.0129570
 113.1436370  67.7265670  35.2202430 112.3129330  67.7942320  35.6909660
 113.3208200  68.6169790  34.9169290 112.5992830  64.4713150  37.7236630
 113.3611740  65.0409800  37.8296320 112.6147200  63.9040350  38.4944940
  96.0997170  62.9951080  41.9544290  95.4446010  62.7262720  41.3103990
  96.9375120  62.8855560  41.5046270 110.5886560  66.7099830  47.9808880
 109.7746400  67.1396990  48.2434670 110.9960760  67.3218240  47.3677930
 112.6512000  64.7647520  34.8809150 112.9260840  65.6726400  34.7528370
 112.4622740  64.7010050  35.8171140 109.0487610  57.7892370  36.1762780
 109.4672490  57.6023350  35.3359440 108.7423670  56.9371420  36.4865710
 112.5477340  62.7016510  39.8738580 112.1720940  61.9344440  39.4419870
 111.8180460  63.0839210  40.3613510  97.1373100  63.3803650  46.4947630
  97.5046140  63.2931050  47.3743650  96.5683920  62.6170200  46.3954490
 111.9376960  61.8488030  49.5078100 111.7063050  61.6200780  48.6076050
 112.1981510  62.7687580  49.4622990  96.6889100  60.2912740  50.4006050
  95.7945150  60.2579500  50.7399760  97.2286650  60.4899530  51.1657300
 110.3765030  57.0744460  52.2857800 111.2535210  57.0827860  52.6691800
 110.3885870  56.3375300  51.6750150  95.3135250  60.2050010  37.8969620
  94.4099330  60.4680210  37.7221280  95.7975870  60.4761180  37.1169580
 111.8228300  60.9274000  43.1745820 112.3465780  60.4336650  42.5435990
 112.4087720  61.0624360  43.9193390 112.0018020  61.0113870  46.6965370
 111.0520730  60.9777410  46.8110360 112.1831030  61.9213980  46.4615140
  97.8562460  59.2615550  35.8064000  98.5654160  58.8398770  35.3211280
  97.1402400  59.3290780  35.1747350  97.5036620  55.3154880  34.8466650
  98.2264750  55.8563820  35.1647870  97.7761140  55.0418300  33.9708190
 111.3128270  60.1847350  39.1138230 111.8087390  59.9518220  39.8987110
 111.1144340  59.3459190  38.6975870  97.1928810  54.5661070  44.7489270
  97.8405000  54.0158450  44.3084430  97.6130650  54.8204220  45.5705080
 111.0881150  54.7602430  48.1058910 111.7253370  55.3736570  48.4718100
 111.2356040  54.7963090  47.1608140 110.6462610  71.4618430  41.5077150
 111.2421680  71.1403000  40.8311570 110.9040760  70.9890250  42.2990420
  96.9460810  54.7216740  47.4914590  96.5975630  55.1780560  48.2572770
  96.6148510  53.8273870  47.5737020  98.5525180  67.8936340  51.6567780
  98.5094810  67.5229250  52.5382240  98.6836190  68.8313910  51.7969600
 102.2531210  69.4495930  47.2577500 102.0122570  69.7170490  46.3708020
 103.1933850  69.6201660  47.3128360 104.4585630  55.9128620  51.0134010
 104.3974520  56.5050450  51.7629420 105.3986010  55.8054580  50.8684270
 107.0960190  55.5698680  50.6526300 107.7100600  55.8877970  49.9907380
 107.6409750  55.0847270  51.2722160  97.6181450  54.2492940  50.7665360
  98.1664440  54.0680990  50.0031470  97.6836760  53.4587050  51.3021670
  98.3913210  70.8398590  48.7765560  97.7973530  70.7083290  49.5155600
  98.3837050  70.0036730  48.3107660 107.8368230  54.1330820  46.9795590
 106.9628070  54.4665930  46.7768520 107.7278980  53.6604000  47.8047460
 108.7440210  56.3401690  48.3637310 108.4153570  55.5253450  47.9839040
 109.6922510  56.2971500  48.2403000 111.1974820  72.1113730  45.3374880
 110.7377790  72.8629540  44.9632900 110.5687280  71.3920200  45.2789680
  98.0225440  68.2056970  47.7273600  97.2959500  67.5862260  47.6599550
  98.0834590  68.5997580  46.8571680 101.6270540  70.4201970  44.5123010
 102.1435560  69.8089330  43.9871270 102.2767920  70.9230750  45.0034020
 104.3666040  71.3110460  45.3391990 104.6543850  71.0564760  44.4625000
 104.8789260  70.7587820  45.9297560 105.5843050  55.0500660  45.9188500
 104.8014840  55.5246160  46.1985260 105.2905980  54.1455490  45.8101680
 110.1364120  55.7523760  43.9637590 110.5772210  55.6968860  43.1159190
 109.8671710  56.6681770  44.0347770 112.0002690  55.3839000  41.9746410
 111.9391090  54.4400220  41.8277430 112.7794720  55.4919090  42.5199870
  96.3055440  71.5231360  40.9370360  96.1377480  70.8902040  41.6352250
  95.4389950  71.7290760  40.5864550  96.9283460  55.3548140  38.4402220
  97.6862820  55.4677020  37.8666250  96.4660630  56.1917340  38.3945650
 103.4697270  57.4687410  41.4304530 102.6571780  57.0944300  41.0900410
 103.9738910  56.7132490  41.7325720 107.9722250  54.1329860  42.6687600
 108.5751620  54.7050070  43.1436120 107.2315240  54.6969300  42.4461500
 111.1156850  54.5351420  37.9427880 111.3107480  55.4334870  38.2095310
 110.3286720  54.3038500  38.4360830  97.9118140  70.2164590  38.3820500
  97.3865760  70.5972620  37.6782460  97.8362720  70.8415360  39.1030210
  99.3008610  55.8812190  36.9804190  99.8301370  55.0941990  36.8512140
  99.9336930  56.5603380  37.2139720 101.4946450  55.6187330  40.0349580
 100.8649190  54.9174640  40.2019710 100.9551590  56.3791460  39.8182740
 104.4338400  72.2326560  52.7060190 105.3605710  71.9970830  52.7496150
 104.4188830  73.0598560  52.2246220 112.6683460  71.7752130  39.7034440
 112.8435650  71.0889870  39.0595360 111.9705030  72.2999180  39.3111110
 101.6202010  54.8971310  52.4702070 101.3386280  55.4004910  51.7062890
 102.0021710  54.0993060  52.1044200 100.5111110  72.1646970  37.2569750
 101.2429930  71.8806250  36.7093640 100.7704780  71.9260250  38.1469130
  99.6725900  68.2811700  37.2616080  99.0434780  68.7496800  37.8101910
  99.7873730  67.4360920  37.6962270 108.2217470  54.3124890  53.0482540
 108.1082920  54.6319500  53.9434060 109.0387210  54.7137400  52.7519820
 111.0015960  71.4596420  52.5301230 111.7941280  70.9645650  52.3227190
 111.2949110  72.1386560  53.1376840 107.1275620  62.3317360  23.4117280
 107.0469670  61.4171970  23.1408990 106.7140040  62.8284430  22.7056990
 105.2593660  64.1096380  25.2926550 104.4835760  63.6296820  25.5825120
 105.9106590  63.4302030  25.1182710  99.2759490  64.4216190  26.1702310
  98.4444370  64.1664900  26.5698820  99.8840470  64.4926960  26.9060230
 109.2801090  68.5156570  24.0725680 108.8182620  67.7443810  24.4012850
 110.0926640  68.5422640  24.5778130  99.2560750  68.4556280  26.3660330
  99.5588790  67.5654020  26.1870550 100.0004340  69.0126500  26.1382580
  97.6851440  59.3818080  19.9544700  96.7968140  59.7234050  19.8524580
  97.9692630  59.1818400  19.0625530  95.6484450  61.9823730  25.8384400
  96.2200560  61.2145930  25.8388040  95.6485990  62.2812490  24.9291010
 105.5064400  70.8014580  23.6929670 104.8875840  71.2572080  23.1224110
 106.3616180  70.9566040  23.2919370 104.7002650  66.7853570  25.2996710
 104.6310930  65.8443510  25.1385840 105.4622510  66.8754980  25.8719280
  96.8909320  57.3908090  27.6253330  96.7112160  56.4933840  27.9056090
  96.4889400  57.9379960  28.3000280 105.7307820  59.5923950  25.5265640
 106.1072640  58.7195830  25.4139310 105.6327330  59.9282650  24.6356080
  99.8612830  57.9649580  20.9883080  99.9679580  58.8653310  21.2951840
  98.9505190  57.9167550  20.6977730 109.5131940  57.0874390  22.4593980
 110.3341560  56.5970960  22.5019460 109.5466020  57.6772050  23.2125820
  97.5095990  59.8868590  26.2335670  98.1906100  60.1506960  26.8523070
  97.1944040  59.0469460  26.5673680 101.7020560  60.9335950  25.3208260
 102.2098780  61.4316920  25.9613280 102.2333800  60.1571150  25.1447620
  99.9856660  55.5734510  29.5871680  99.9875100  56.0906900  28.7817580
  99.1560970  55.0964690  29.5641610 106.3727750  65.6853820  21.0861580
 105.7545020  66.1503270  20.5224300 106.8851000  66.3781300  21.5031090
 101.2359510  65.2129690  27.7645180 100.9028890  65.8398610  28.4066250
 101.4126190  65.7391570  26.9846850 109.7493420  59.0274770  25.2321520
 109.0448990  59.3159660  25.8124630 110.1105580  59.8374880  24.8721080
  99.6671990  57.2844470  27.5942130 100.0088800  58.1286520  27.2996000
  98.7287800  57.4328210  27.7107470 100.4478610  67.1810490  29.5794360
 101.0652610  67.8561570  29.2978810  99.5871730  67.5898470  29.4881860
  95.7410950  66.3710350  18.4601210  95.3638930  66.8597450  17.7286110
  95.9984020  67.0435630  19.0907740 111.3656200  68.6449900  27.4949000
 110.6819720  69.3149010  27.4865670 111.9050490  68.8430550  26.7293860
 112.8180340  58.4729560  25.6230730 111.8705250  58.5068540  25.7546160
 113.1430330  59.2868510  26.0080090 103.3499880  54.7726740  23.9186720
 103.6574860  54.2173630  23.2022220 102.4200580  54.9071200  23.7359710
 108.9014940  70.4894030  26.2094180 108.9142100  70.0856320  25.3416440
 108.3490160  71.2641320  26.1055610 110.1960360  67.2110250  21.2984350
 110.0856690  66.2684580  21.4233770 110.1928610  67.5725890  22.1847110
 108.3000380  65.3923870  27.5376790 108.7169170  65.1783980  26.7030250
 109.0240200  65.6496660  28.1085410 105.7380640  62.8375570  20.6546840
 104.8109920  62.7712950  20.8835310 105.8905460  63.7755700  20.5402080
 105.7249720  59.1092570  17.6514000 104.7853390  59.2706530  17.7366460
 106.0432980  59.8278250  17.1049990 112.2462480  63.7911090  27.6293030
 111.4181110  63.8604180  27.1543160 112.8412960  64.3765400  27.1608860
 109.7677930  64.3995870  21.1582090 109.1490350  64.0615420  20.5108390
 109.7502380  63.7555630  21.8661280 109.2104490  60.5780410  28.5747900
 108.7975670  61.4034120  28.8287890 108.4780440  59.9925450  28.3824260
 101.3437280  63.3640310  23.4366570 100.9394280  62.6517560  22.9412470
 101.4300400  63.0193550  24.3254610 101.8118980  67.0507870  25.6005780
 101.5147270  66.4453340  24.9213560 102.7618800  67.0885180  25.4895140
 100.0565900  60.1383520  27.2165610 100.6080490  60.2478860  26.4418860
 100.5709410  60.5121120  27.9320840 109.9004590  70.6239740  29.2628880
 109.4235150  71.4311930  29.0701490 109.2166380  69.9718070  29.4155090
 100.9037410  66.7889560  32.2513580 100.0065940  67.0129530  32.4986980
 100.9290280  66.9124500  31.3024980 107.9442630  63.6382680  18.1654840
 108.3835910  62.8005110  18.0192660 108.6571050  64.2712080  18.2518980
  99.7308630  63.6602880  30.8270950  99.5916400  64.5325680  31.1958350
  98.8489990  63.3175690  30.6818890 106.0538010  68.5778750  22.1336080
 106.4933920  69.3203080  21.7191470 105.9924900  68.8205320  23.0575040
 101.5288980  69.6024580  33.0356100 101.5004410  70.0067530  32.1684530
 101.3653950  68.6734940  32.8727700 111.5259770  54.8925490  16.4795880
 111.2132430  54.9852320  17.3794950 112.2872240  55.4706520  16.4293310
  98.0441910  62.2585290  20.9373220  97.9239510  62.9847380  20.3254490
  97.7342800  61.4888200  20.4601130  95.6827280  65.4300430  26.7441860
  95.7607700  65.5649200  25.7997580  96.2968960  64.7216320  26.9369980
  96.9274910  67.1300620  23.1548040  96.5202990  67.2715210  22.3001640
  97.8187920  66.8460780  22.9519250 112.8837050  67.5764530  31.4920280
 113.0100110  67.3376410  30.5737460 112.9258430  66.7449070  31.9642360
 106.7453790  71.2792530  30.0615090 107.2598460  71.1900540  30.8637520
 105.9022870  71.6252230  30.3543000 108.7208190  71.5647870  19.4899090
 108.5609330  71.2750810  20.3880920 108.5554900  70.7888000  18.9544320
 101.1996570  71.3446400  21.2670710 101.0239050  70.4281940  21.0538510
 100.3452310  71.7033690  21.5068510 108.4234320  69.0735430  18.0497090
 107.7299480  69.0712720  17.3899370 109.1657180  68.6494750  17.6191260
 107.9884250  70.6998140  22.1245580 108.4441200  69.9187520  22.4384200
 108.3276770  71.4104960  22.6686760 112.7361060  59.6296990  32.4570020
 112.1205330  60.1376660  31.9285480 112.4157480  58.7295320  32.3995960
  95.7386800  66.4714600  29.2836320  95.9017840  66.0019960  28.4655690
  96.2039250  65.9638160  29.9485160 100.5105570  55.6020360  24.3196890
 100.0673720  56.3829900  23.9881410 101.0690560  55.9250250  25.0267830
 104.7975380  58.4688880  29.9232210 104.3354750  58.6771900  30.7352150
 104.3953490  57.6548230  29.6202880 109.7979890  59.6897830  31.0528870
 108.9473480  59.3903580  31.3737940 109.6381680  59.9339840  30.1412690
 106.8929600  61.1899580  33.1527660 107.2183010  60.3563330  32.8129890
 107.6809930  61.7128100  33.3005990 103.6264390  55.2231060  19.2002720
 103.0018570  55.2190930  19.9256030 103.5394510  54.3562020  18.8038690
 102.5481470  56.1467690  26.1786490 102.8453800  57.0530520  26.0978510
 103.0967030  55.6586470  25.5646060 100.3019790  60.7253930  22.0478140
 100.0760710  60.5091100  22.9524760  99.5212320  61.1582390  21.7024110
 107.5317550  60.7317300  20.6468790 106.9326440  61.4553100  20.4632410
 108.0797160  60.6694080  19.8645240 102.7419000  61.6239510  32.7138410
 102.6462600  60.6834240  32.5638810 103.5850980  61.8454580  32.3186480
 106.1382420  59.3680840  22.6772070 106.5311990  59.6853040  21.8640760
 106.4999270  58.4892720  22.7916590  97.8729540  58.0353180  30.8672190
  97.4792930  58.8828390  31.0744970  97.1847940  57.3979550  31.0580830
 104.4474590  58.1188150  33.9368930 103.7572910  57.9260350  34.5715020
 105.1906890  58.4022790  34.4693230  95.1746590  55.9581640  24.9002270
  94.8859640  56.5284500  25.6127250  95.9192350  55.4786090  25.2633500
  95.3616820  59.9001760  16.1104990  95.2791490  60.8432520  16.2519980
  95.0099880  59.7576670  15.2317340 106.7237560  61.9586590  26.7722850
 105.9918680  62.4673400  27.1212950 106.3261900  61.1416570  26.4711630
 103.1614950  58.6340790  25.1775340 103.1651010  58.1930740  24.3279880
 104.0566070  58.9558120  25.2847160  99.0117330  58.5167280  24.1369550
  98.6717380  58.9942510  24.8936600  98.2494650  58.0632400  23.7770650
 103.2235100  59.6352870  18.1682100 103.3447920  59.5939350  19.1167920
 102.8383610  60.4977020  18.0128830 107.1863470  57.4120270  26.1845790
 107.2036210  57.8628920  27.0287640 106.9379050  56.5125910  26.3979230
 102.2356600  61.9454010  17.5665400 101.6673500  61.4972260  16.9401310
 102.9445600  62.3046790  17.0330550 110.6134220  54.8252450  32.0232170
 110.9379990  54.0942110  32.5490150 110.6490730  54.5066090  31.1213160
  97.3125780  65.8466030  31.4432130  96.9280570  65.2059700  32.0415090
  97.6237970  66.5502150  32.0126860 103.4622920  62.6942570  26.9240750
 103.8293050  62.2201140  27.6702090 103.2727980  63.5684140  27.2649090
  96.3263410  57.4386260  23.0534220  96.0410330  57.0741930  23.8912840
  96.2642270  56.7066720  22.4397360 101.2522290  61.7351210  29.2424960
 100.9479360  62.6143190  29.4675320 102.2068750  61.7951000  29.2782400
  99.7804080  65.9412200  19.8391810  99.0066340  65.4009820  19.6790530
 100.5098710  65.4218810  19.5009570 110.5392060  64.9377560  25.6318200
 111.2591180  65.4332850  25.2414310 110.3373880  64.2595450  24.9872070
 106.0002000  56.3315520  19.7747590 105.1866610  55.8328690  19.6992900
 105.8063950  57.1713770  19.3583940 105.9210860  65.0086620  31.5187200
 105.8548170  64.0882290  31.2644790 105.2916000  65.1062060  32.2331840
 108.7150390  60.7035170  18.0709750 109.6030010  61.0152400  17.8961090
 108.6855480  59.8307420  17.6790330  99.8241480  65.6092580  23.4770620
 100.3420150  64.8060840  23.4227510  99.3725500  65.5471720  24.3187450
 104.7110980  66.8758860  18.7497920 105.0526680  67.6201090  18.2541240
 103.8823690  67.1889980  19.1122750  97.3086020  62.5753950  30.3896320
  96.9500960  63.2407800  30.9769660  97.0140580  61.7437500  30.7608940
 100.5099140  63.0338190  33.2735870 100.2099280  63.1795370  32.3763690
 101.2810380  62.4743480  33.1809260 105.8527590  67.8307190  31.2691000
 105.8672130  66.8988150  31.0509910 105.1452690  67.9166950  31.9080770
 110.9864660  62.0147010  17.5389610 110.9028380  62.4461230  16.6886050
 111.7058850  62.4745360  17.9716430 112.0638800  64.4714530  30.6159580
 111.3386990  65.0643310  30.4188970 112.5914260  64.4638070  29.8172950
 112.0151910  68.8689270  20.2671740 111.3728070  68.2144890  20.5415460
 111.6282570  69.2744360  19.4912410 107.5938390  66.1974700  24.1143430
 107.9462210  65.6002830  23.4544800 106.7100720  65.8718930  24.2851680
 103.6801670  66.9572390  21.5213840 104.3672800  67.5041600  21.9021430
 102.8934090  67.5013120  21.5563450  95.8194070  62.5745210  17.0130920
  96.6888920  62.8570010  17.2966840  95.3284390  63.3881080  16.8979730
 102.9828880  63.9618420  21.1339200 103.4391660  64.7723670  21.3599390
 102.6317090  63.6441560  21.9657690 105.2861490  69.4724760  28.3631500
 105.9303710  69.6784140  29.0404920 105.6490930  68.7113160  27.9102350
  98.8840660  54.3056070  21.6061720  98.7555290  54.2973970  22.5546640
  98.0602680  54.6439160  21.2552730 106.5593570  67.4757110  27.0808950
 107.2015800  66.7750270  27.1941120 107.0842920  68.2555550  26.9005840
 110.4049290  67.7605730  16.8048090 110.1786870  67.0436170  17.3972730
 110.0145490  67.5118170  15.9669840 108.3331190  68.2752010  30.2845010
 108.6687430  68.8618700  30.9622930 107.4131530  68.1444720  30.5142800
  96.1865320  71.7872590  17.5792550  96.5462960  72.3861930  16.9249820
  96.0457660  72.3332480  18.3527580  95.8834590  56.0647190  31.0668420
  95.1693110  56.2644110  31.6721030  96.3029630  55.2886760  31.4383220
 109.9865540  65.6777670  18.4662250 109.6987240  66.1390360  19.2540130
 110.7817710  65.2175440  18.7346470  96.1707180  70.0527450  32.0534950
  96.2798300  69.1122190  31.9130340  95.5187740  70.3182200  31.4048680
 104.1619770  68.3243340  33.4533070 103.8416640  67.6052580  33.9978760
 103.4878130  68.9998410  33.5269130 102.2033940  69.1703790  18.3966220
 102.1944040  69.9033480  17.7810730 101.2832300  68.9235370  18.4893180
  97.8040580  64.3918680  19.1412980  97.1968530  65.1317580  19.1508280
  98.2789930  64.4818040  18.3151180 107.3773370  58.5569500  28.8169870
 107.7454190  57.7364710  29.1449440 106.5171570  58.6171390  29.2325520
 110.7435400  57.5126440  19.6257430 110.1148560  57.6172110  18.9115660
 110.2487320  57.7323220  20.4151310 105.1893540  69.2332030  17.0591410
 105.2905520  69.0296020  16.1293390 104.2895280  68.9790310  17.2639190
 102.7119430  59.7912390  21.0415310 102.0035580  60.2598730  21.4828920
 102.9963910  59.1334400  21.6760500 104.3375360  61.2109090  29.0407840
 104.8360610  61.6854910  29.7059690 104.4798310  60.2872610  29.2477870
 106.7434860  56.5163050  22.4811100 106.6202640  56.5349180  21.5320610
 107.6919420  56.5641990  22.6009500 103.8311650  71.7518350  21.7539080
 104.0853150  71.7139740  20.8318450 102.8824130  71.6251680  21.7467330
 100.9154450  58.0997470  18.4166020 101.7644980  58.5367620  18.3506210
 100.5485720  58.4117730  19.2438080 111.5442220  57.4277050  29.8836230
 111.0415820  58.1682450  30.2230040 112.3598880  57.8161050  29.5673020
 109.8364230  62.6710230  23.3297590 108.8954370  62.6860460  23.5045280
 110.1508300  61.8846190  23.7757890  99.8145870  64.3529830  16.8901550
 100.5809140  64.2411190  17.4526980  99.8920560  63.6567800  16.2378320
  98.5092630  61.7854900  17.5734440  98.5896220  60.8382410  17.6851840
  99.4012380  62.1161780  17.6795100 111.8389810  69.8419080  25.0051850
 111.9637230  70.6650250  25.4775660 112.7055370  69.6309810  24.6576000
  99.3107340  71.9350290  24.6768980 100.0469820  71.3865750  24.9477550
  99.6948260  72.8006300  24.5374970  96.1952820  68.0023860  20.5510490
  95.2692600  68.2445000  20.5415900  96.6609250  68.8298120  20.4295240
  98.3165620  71.1196360  33.8654560  99.1178350  71.4408410  34.2789960
  97.8017440  70.7591940  34.5874470 102.4209650  71.1080600  16.4994550
 103.2138260  71.3969430  16.0476340 101.9014000  70.6772770  15.8207030
 107.1530250  67.2276230  33.8129970 106.5468410  67.2507830  33.0725720
 106.8484360  66.4959270  34.3497220 108.5830620  70.9556520  32.4239380
 109.5352370  70.8714540  32.3739620 108.4358840  71.6198230  33.0973170
 111.4739820  70.3350730  17.9231290 111.1881330  69.9215870  17.1085470
 111.2759370  71.2638440  17.8031810  96.0363430  63.6069820  32.8090610
  96.5402450  63.0277100  33.3806840  95.2970850  63.8910050  33.3466980
 102.9387050  66.3284010  16.3636900 102.8337690  65.7136360  17.0898280
 102.7711270  65.8049900  15.5799910 103.0901370  65.0140810  32.3426130
 102.3247040  65.5825810  32.2580800 103.2717330  64.7217020  31.4494360
 106.1789780  65.3904040  16.9678890 105.6299880  65.8373340  17.6121630
 106.8009040  64.8853290  17.4916560 110.2324720  66.7446140  32.9001150
 110.9734190  67.0821900  32.3968610 109.4697400  66.9138200  32.3470920
  98.0686510  61.7499410  33.7040680  98.1091850  61.4513280  34.6125910
  98.9232010  62.1507020  33.5448200 101.8464900  64.3494960  18.8644190
 102.2681320  64.1834830  19.7075580 101.9715740  63.5395190  18.3699330
 100.0092320  60.3291510  31.6715170  99.4788780  59.8382460  31.0438510
 100.6780390  60.7575710  31.1373100 104.3592540  63.3732570  16.1121290
 104.8798200  62.6581590  15.7462440 105.0060940  64.0118440  16.4121800
 108.9070380  64.7960970  31.4356360 109.3211400  64.9506050  32.2846780
 107.9721380  64.9216190  31.5982140 109.3792550  62.1357130  33.4395510
 109.9613320  61.3809450  33.3515990 109.5554320  62.6664570  32.6626990
 100.4964620  57.2953880  31.7512460 100.4021490  56.6774630  31.0263330
  99.9162010  58.0220170  31.5242370 103.2626060  55.8527120  28.7839850
 102.8143360  55.8751380  27.9385400 102.6291260  55.4546140  29.3810150
 103.6685610  64.7481450  29.4052290 104.0873720  65.5914180  29.2328530
 102.7494240  64.8853490  29.1759070 106.0049510  62.4797630  30.7890130
 106.1245720  61.8838770  31.5284970 106.8643510  62.5167320  30.3691430
 108.3437410  63.0334820  29.3652640 107.8172630  63.5577440  28.7617780
 108.6868750  63.6662210  29.9962370 100.7423800  60.4228190  15.8102350
 100.5412860  59.5595550  16.1715690 100.5715850  60.3361550  14.8723950
 101.5193030  71.0534460  30.5210020 100.9814120  71.7780520  30.2018720
 101.7726990  70.5764800  29.7307360 102.7718280  59.0218980  32.0465950
 103.3617970  58.7134830  32.7343770 101.9538520  58.5498730  32.2025850
 107.5911710  58.6384790  32.2798970 106.9027230  57.9766330  32.2148960
 108.3117730  58.1923060  32.7247430 108.2212110  55.2336420  18.3389230
 108.5014400  54.3904320  18.6948650 107.4477840  55.4659530  18.8527980
  99.5406600  57.5228810  15.7980230  99.8432500  57.5296240  14.8899380
 100.2801190  57.1726670  16.2947890 104.3755240  72.2885670  30.7796670
 104.3013940  73.1920810  31.0869040 103.4734080  71.9697570  30.7518740
 102.7591530  56.4663430  16.7836430 102.4113530  55.7887420  16.2038880
 102.9604300  56.0052940  17.5979820 104.9240570  71.4544180  18.4023030
 105.8191360  71.7929150  18.4241790 104.9558200  70.7323590  17.7747310
  98.5636730  66.8271230  16.6310030  99.0011600  67.3700900  17.2867610
  99.0484460  66.0018180  16.6406370  95.7782530  69.6160260  24.0830290
  96.1085540  68.7481320  23.8508930  96.2073530  69.8218780  24.9135250
 100.3744450  67.9469270  21.7432260 100.0739990  67.8234240  22.6436170
 100.2681940  67.0877860  21.3347990  96.2672740  70.4830850  26.8211920
  95.8303730  70.6631650  27.6536070  96.8350420  71.2405470  26.6793640
 111.9034920  69.9847850  31.1089230 111.3036910  70.0440410  30.3653150
 112.0328820  69.0452830  31.2386080 113.1436370  67.7265670  16.4458940
 112.3129330  67.7942320  16.9166170 113.3208200  68.6169790  16.1425800
 112.5992830  64.4713150  18.9493140 113.3611740  65.0409800  19.0552830
 112.6147200  63.9040350  19.7201450  96.0997170  62.9951080  23.1800800
  95.4446010  62.7262720  22.5360500  96.9375120  62.8855560  22.7302780
 110.5886560  66.7099830  29.2065390 109.7746400  67.1396990  29.4691180
 110.9960760  67.3218240  28.5934440 112.6512000  64.7647520  16.1065660
 112.9260840  65.6726400  15.9784880 112.4622740  64.7010050  17.0427650
 109.0487610  57.7892370  17.4019290 109.4672490  57.6023350  16.5615950
 108.7423670  56.9371420  17.7122220 112.5477340  62.7016510  21.0995090
 112.1720940  61.9344440  20.6676380 111.8180460  63.0839210  21.5870020
  97.1373100  63.3803650  27.7204140  97.5046140  63.2931050  28.6000160
  96.5683920  62.6170200  27.6211000 111.9376960  61.8488030  30.7334610
 111.7063050  61.6200780  29.8332560 112.1981510  62.7687580  30.6879500
  96.6889100  60.2912740  31.6262560  95.7945150  60.2579500  31.9656270
  97.2286650  60.4899530  32.3913810 110.3765030  57.0744460  33.5114310
 111.2535210  57.0827860  33.8948310 110.3885870  56.3375300  32.9006660
  95.3135250  60.2050010  19.1226130  94.4099330  60.4680210  18.9477790
  95.7975870  60.4761180  18.3426090 111.8228300  60.9274000  24.4002330
 112.3465780  60.4336650  23.7692500 112.4087720  61.0624360  25.1449900
 112.0018020  61.0113870  27.9221880 111.0520730  60.9777410  28.0366870
 112.1831030  61.9213980  27.6871650  97.8562460  59.2615550  17.0320510
  98.5654160  58.8398770  16.5467790  97.1402400  59.3290780  16.4003860
  97.5036620  55.3154880  16.0723160  98.2264750  55.8563820  16.3904380
  97.7761140  55.0418300  15.1964700 111.3128270  60.1847350  20.3394740
 111.8087390  59.9518220  21.1243620 111.1144340  59.3459190  19.9232380
  97.1928810  54.5661070  25.9745780  97.8405000  54.0158450  25.5340940
  97.6130650  54.8204220  26.7961590 111.0881150  54.7602430  29.3315420
 111.7253370  55.3736570  29.6974610 111.2356040  54.7963090  28.3864650
 110.6462610  71.4618430  22.7333660 111.2421680  71.1403000  22.0568080
 110.9040760  70.9890250  23.5246930  96.9460810  54.7216740  28.7171100
  96.5975630  55.1780560  29.4829280  96.6148510  53.8273870  28.7993530
  98.5525180  67.8936340  32.8824290  98.5094810  67.5229250  33.7638750
  98.6836190  68.8313910  33.0226110 102.2531210  69.4495930  28.4834010
 102.0122570  69.7170490  27.5964530 103.1933850  69.6201660  28.5384870
 104.4585630  55.9128620  32.2390520 104.3974520  56.5050450  32.9885930
 105.3986010  55.8054580  32.0940780 107.0960190  55.5698680  31.8782810
 107.7100600  55.8877970  31.2163890 107.6409750  55.0847270  32.4978670
  97.6181450  54.2492940  31.9921870  98.1664440  54.0680990  31.2287980
  97.6836760  53.4587050  32.5278180  98.3913210  70.8398590  30.0022070
  97.7973530  70.7083290  30.7412110  98.3837050  70.0036730  29.5364170
 107.8368230  54.1330820  28.2052100 106.9628070  54.4665930  28.0025030
 107.7278980  53.6604000  29.0303970 108.7440210  56.3401690  29.5893820
 108.4153570  55.5253450  29.2095550 109.6922510  56.2971500  29.4659510
 111.1974820  72.1113730  26.5631390 110.7377790  72.8629540  26.1889410
 110.5687280  71.3920200  26.5046190  98.0225440  68.2056970  28.9530110
  97.2959500  67.5862260  28.8856060  98.0834590  68.5997580  28.0828190
 101.6270540  70.4201970  25.7379520 102.1435560  69.8089330  25.2127780
 102.2767920  70.9230750  26.2290530 104.3666040  71.3110460  26.5648500
 104.6543850  71.0564760  25.6881510 104.8789260  70.7587820  27.1554070
 105.5843050  55.0500660  27.1445010 104.8014840  55.5246160  27.4241770
 105.2905980  54.1455490  27.0358190 110.1364120  55.7523760  25.1894100
 110.5772210  55.6968860  24.3415700 109.8671710  56.6681770  25.2604280
 112.0002690  55.3839000  23.2002920 111.9391090  54.4400220  23.0533940
 112.7794720  55.4919090  23.7456380  96.3055440  71.5231360  22.1626870
  96.1377480  70.8902040  22.8608760  95.4389950  71.7290760  21.8121060
  96.9283460  55.3548140  19.6658730  97.6862820  55.4677020  19.0922760
  96.4660630  56.1917340  19.6202160 103.4697270  57.4687410  22.6561040
 102.6571780  57.0944300  22.3156920 103.9738910  56.7132490  22.9582230
 107.9722250  54.1329860  23.8944110 108.5751620  54.7050070  24.3692630
 107.2315240  54.6969300  23.6718010 111.1156850  54.5351420  19.1684390
 111.3107480  55.4334870  19.4351820 110.3286720  54.3038500  19.6617340
  97.9118140  70.2164590  19.6077010  97.3865760  70.5972620  18.9038970
  97.8362720  70.8415360  20.3286720  99.3008610  55.8812190  18.2060700
  99.8301370  55.0941990  18.0768650  99.9336930  56.5603380  18.4396230
 101.4946450  55.6187330  21.2606090 100.8649190  54.9174640  21.4276220
 100.9551590  56.3791460  21.0439250 104.4338400  72.2326560  33.9316700
 105.3605710  71.9970830  33.9752660 104.4188830  73.0598560  33.4502730
 112.6683460  71.7752130  20.9290950 112.8435650  71.0889870  20.2851870
 111.9705030  72.2999180  20.5367620 101.6202010  54.8971310  33.6958580
 101.3386280  55.4004910  32.9319400 102.0021710  54.0993060  33.3300710
 100.5111110  72.1646970  18.4826260 101.2429930  71.8806250  17.9350150
 100.7704780  71.9260250  19.3725640  99.6725900  68.2811700  18.4872590
  99.0434780  68.7496800  19.0358420  99.7873730  67.4360920  18.9218780
 108.2217470  54.3124890  34.2739050 108.1082920  54.6319500  35.1690570
 109.0387210  54.7137400  33.9776330 111.0015960  71.4596420  33.7557740
 111.7941280  70.9645650  33.5483700 111.2949110  72.1386560  34.3633350
 107.1275620  62.3317360   4.6373790 107.0469670  61.4171970   4.3665500
 106.7140040  62.8284430   3.9313500 105.2593660  64.1096380   6.5183060
 104.4835760  63.6296820   6.8081630 105.9106590  63.4302030   6.3439220
  99.2759490  64.4216190   7.3958820  98.4444370  64.1664900   7.7955330
  99.8840470  64.4926960   8.1316740 109.2801090  68.5156570   5.2982190
 108.8182620  67.7443810   5.6269360 110.0926640  68.5422640   5.8034640
  99.2560750  68.4556280   7.5916840  99.5588790  67.5654020   7.4127060
 100.0004340  69.0126500   7.3639090  95.6484450  61.9823730   7.0640910
  96.2200560  61.2145930   7.0644550  95.6485990  62.2812490   6.1547520
 105.5064400  70.8014580   4.9186180 104.8875840  71.2572080   4.3480620
 106.3616180  70.9566040   4.5175880 104.7002650  66.7853570   6.5253220
 104.6310930  65.8443510   6.3642350 105.4622510  66.8754980   7.0975790
  96.8909320  57.3908090   8.8509840  96.7112160  56.4933840   9.1312600
  96.4889400  57.9379960   9.5256790 105.7307820  59.5923950   6.7522150
 106.1072640  58.7195830   6.6395820 105.6327330  59.9282650   5.8612590
  99.8612830  57.9649580   2.2139590  99.9679580  58.8653310   2.5208350
  98.9505190  57.9167550   1.9234240 109.5131940  57.0874390   3.6850490
 110.3341560  56.5970960   3.7275970 109.5466020  57.6772050   4.4382330
  97.5095990  59.8868590   7.4592180  98.1906100  60.1506960   8.0779580
  97.1944040  59.0469460   7.7930190 101.7020560  60.9335950   6.5464770
 102.2098780  61.4316920   7.1869790 102.2333800  60.1571150   6.3704130
  99.9856660  55.5734510  10.8128190  99.9875100  56.0906900  10.0074090
  99.1560970  55.0964690  10.7898120 106.3727750  65.6853820   2.3118090
 105.7545020  66.1503270   1.7480810 106.8851000  66.3781300   2.7287600
 101.2359510  65.2129690   8.9901690 100.9028890  65.8398610   9.6322760
 101.4126190  65.7391570   8.2103360 109.7493420  59.0274770   6.4578030
 109.0448990  59.3159660   7.0381140 110.1105580  59.8374880   6.0977590
  99.6671990  57.2844470   8.8198640 100.0088800  58.1286520   8.5252510
  98.7287800  57.4328210   8.9363980 100.4478610  67.1810490  10.8050870
 101.0652610  67.8561570  10.5235320  99.5871730  67.5898470  10.7138370
 111.3656200  68.6449900   8.7205510 110.6819720  69.3149010   8.7122180
 111.9050490  68.8430550   7.9550370 112.8180340  58.4729560   6.8487240
 111.8705250  58.5068540   6.9802670 113.1430330  59.2868510   7.2336600
 103.3499880  54.7726740   5.1443230 103.6574860  54.2173630   4.4278730
 102.4200580  54.9071200   4.9616220 108.9014940  70.4894030   7.4350690
 108.9142100  70.0856320   6.5672950 108.3490160  71.2641320   7.3312120
 110.1960360  67.2110250   2.5240860 110.0856690  66.2684580   2.6490280
 110.1928610  67.5725890   3.4103620 108.3000380  65.3923870   8.7633300
 108.7169170  65.1783980   7.9286760 109.0240200  65.6496660   9.3341920
 105.7380640  62.8375570   1.8803350 104.8109920  62.7712950   2.1091820
 105.8905460  63.7755700   1.7658590 112.2462480  63.7911090   8.8549540
 111.4181110  63.8604180   8.3799670 112.8412960  64.3765400   8.3865370
 109.7677930  64.3995870   2.3838600 109.1490350  64.0615420   1.7364900
 109.7502380  63.7555630   3.0917790 109.2104490  60.5780410   9.8004410
 108.7975670  61.4034120  10.0544400 108.4780440  59.9925450   9.6080770
 101.3437280  63.3640310   4.6623080 100.9394280  62.6517560   4.1668980
 101.4300400  63.0193550   5.5511120 101.8118980  67.0507870   6.8262290
 101.5147270  66.4453340   6.1470070 102.7618800  67.0885180   6.7151650
 100.0565900  60.1383520   8.4422120 100.6080490  60.2478860   7.6675370
 100.5709410  60.5121120   9.1577350 109.9004590  70.6239740  10.4885390
 109.4235150  71.4311930  10.2958000 109.2166380  69.9718070  10.6411600
 100.9037410  66.7889560  13.4770090 100.0065940  67.0129530  13.7243490
 100.9290280  66.9124500  12.5281490  99.7308630  63.6602880  12.0527460
  99.5916400  64.5325680  12.4214860  98.8489990  63.3175690  11.9075400
 106.0538010  68.5778750   3.3592590 106.4933920  69.3203080   2.9447980
 105.9924900  68.8205320   4.2831550 101.5288980  69.6024580  14.2612610
 101.5004410  70.0067530  13.3941040 101.3653950  68.6734940  14.0984210
  95.6827280  65.4300430   7.9698370  95.7607700  65.5649200   7.0254090
  96.2968960  64.7216320   8.1626490  96.9274910  67.1300620   4.3804550
  96.5202990  67.2715210   3.5258150  97.8187920  66.8460780   4.1775760
 112.8837050  67.5764530  12.7176790 113.0100110  67.3376410  11.7993970
 112.9258430  66.7449070  13.1898870 106.7453790  71.2792530  11.2871600
 107.2598460  71.1900540  12.0894030 105.9022870  71.6252230  11.5799510
 101.1996570  71.3446400   2.4927220 101.0239050  70.4281940   2.2795020
 100.3452310  71.7033690   2.7325020 107.9884250  70.6998140   3.3502090
 108.4441200  69.9187520   3.6640710 108.3276770  71.4104960   3.8943270
 112.7361060  59.6296990  13.6826530 112.1205330  60.1376660  13.1541990
 112.4157480  58.7295320  13.6252470  95.7386800  66.4714600  10.5092830
  95.9017840  66.0019960   9.6912200  96.2039250  65.9638160  11.1741670
 100.5105570  55.6020360   5.5453400 100.0673720  56.3829900   5.2137920
 101.0690560  55.9250250   6.2524340 104.7975380  58.4688880  11.1488720
 104.3354750  58.6771900  11.9608660 104.3953490  57.6548230  10.8459390
 109.7979890  59.6897830  12.2785380 108.9473480  59.3903580  12.5994450
 109.6381680  59.9339840  11.3669200 106.8929600  61.1899580  14.3784170
 107.2183010  60.3563330  14.0386400 107.6809930  61.7128100  14.5262500
 102.5481470  56.1467690   7.4043000 102.8453800  57.0530520   7.3235020
 103.0967030  55.6586470   6.7902570 100.3019790  60.7253930   3.2734650
 100.0760710  60.5091100   4.1781270  99.5212320  61.1582390   2.9280620
 102.7419000  61.6239510  13.9394920 102.6462600  60.6834240  13.7895320
 103.5850980  61.8454580  13.5442990 106.1382420  59.3680840   3.9028580
 106.5311990  59.6853040   3.0897270 106.4999270  58.4892720   4.0173100
  97.8729540  58.0353180  12.0928700  97.4792930  58.8828390  12.3001480
  97.1847940  57.3979550  12.2837340 104.4474590  58.1188150  15.1625440
 103.7572910  57.9260350  15.7971530 105.1906890  58.4022790  15.6949740
  95.1746590  55.9581640   6.1258780  94.8859640  56.5284500   6.8383760
  95.9192350  55.4786090   6.4890010 106.7237560  61.9586590   7.9979360
 105.9918680  62.4673400   8.3469460 106.3261900  61.1416570   7.6968140
 103.1614950  58.6340790   6.4031850 103.1651010  58.1930740   5.5536390
 104.0566070  58.9558120   6.5103670  99.0117330  58.5167280   5.3626060
  98.6717380  58.9942510   6.1193110  98.2494650  58.0632400   5.0027160
 107.1863470  57.4120270   7.4102300 107.2036210  57.8628920   8.2544150
 106.9379050  56.5125910   7.6235740 110.6134220  54.8252450  13.2488680
 110.9379990  54.0942110  13.7746660 110.6490730  54.5066090  12.3469670
  97.3125780  65.8466030  12.6688640  96.9280570  65.2059700  13.2671600
  97.6237970  66.5502150  13.2383370 103.4622920  62.6942570   8.1497260
 103.8293050  62.2201140   8.8958600 103.2727980  63.5684140   8.4905600
  96.3263410  57.4386260   4.2790730  96.0410330  57.0741930   5.1169350
  96.2642270  56.7066720   3.6653870 101.2522290  61.7351210  10.4681470
 100.9479360  62.6143190  10.6931830 102.2068750  61.7951000  10.5038910
 110.5392060  64.9377560   6.8574710 111.2591180  65.4332850   6.4670820
 110.3373880  64.2595450   6.2128580 105.9210860  65.0086620  12.7443710
 105.8548170  64.0882290  12.4901300 105.2916000  65.1062060  13.4588350
  99.8241480  65.6092580   4.7027130 100.3420150  64.8060840   4.6484020
  99.3725500  65.5471720   5.5443960  97.3086020  62.5753950  11.6152830
  96.9500960  63.2407800  12.2026170  97.0140580  61.7437500  11.9865450
 100.5099140  63.0338190  14.4992380 100.2099280  63.1795370  13.6020200
 101.2810380  62.4743480  14.4065770 105.8527590  67.8307190  12.4947510
 105.8672130  66.8988150  12.2766420 105.1452690  67.9166950  13.1337280
 112.0638800  64.4714530  11.8416090 111.3386990  65.0643310  11.6445480
 112.5914260  64.4638070  11.0429460 107.5938390  66.1974700   5.3399940
 107.9462210  65.6002830   4.6801310 106.7100720  65.8718930   5.5108190
 103.6801670  66.9572390   2.7470350 104.3672800  67.5041600   3.1277940
 102.8934090  67.5013120   2.7819960 102.9828880  63.9618420   2.3595710
 103.4391660  64.7723670   2.5855900 102.6317090  63.6441560   3.1914200
 105.2861490  69.4724760   9.5888010 105.9303710  69.6784140  10.2661430
 105.6490930  68.7113160   9.1358860  98.8840660  54.3056070   2.8318230
  98.7555290  54.2973970   3.7803150  98.0602680  54.6439160   2.4809240
 106.5593570  67.4757110   8.3065460 107.2015800  66.7750270   8.4197630
 107.0842920  68.2555550   8.1262350 108.3331190  68.2752010  11.5101520
 108.6687430  68.8618700  12.1879440 107.4131530  68.1444720  11.7399310
  95.8834590  56.0647190  12.2924930  95.1693110  56.2644110  12.8977540
  96.3029630  55.2886760  12.6639730  96.1707180  70.0527450  13.2791460
  96.2798300  69.1122190  13.1386850  95.5187740  70.3182200  12.6305190
 104.1619770  68.3243340  14.6789580 103.8416640  67.6052580  15.2235270
 103.4878130  68.9998410  14.7525640 107.3773370  58.5569500  10.0426380
 107.7454190  57.7364710  10.3705950 106.5171570  58.6171390  10.4582030
 102.7119430  59.7912390   2.2671820 102.0035580  60.2598730   2.7085430
 102.9963910  59.1334400   2.9017010 104.3375360  61.2109090  10.2664350
 104.8360610  61.6854910  10.9316200 104.4798310  60.2872610  10.4734380
 106.7434860  56.5163050   3.7067610 106.6202640  56.5349180   2.7577120
 107.6919420  56.5641990   3.8266010 103.8311650  71.7518350   2.9795590
 104.0853150  71.7139740   2.0574960 102.8824130  71.6251680   2.9723840
 111.5442220  57.4277050  11.1092740 111.0415820  58.1682450  11.4486550
 112.3598880  57.8161050  10.7929530 109.8364230  62.6710230   4.5554100
 108.8954370  62.6860460   4.7301790 110.1508300  61.8846190   5.0014400
 111.8389810  69.8419080   6.2308360 111.9637230  70.6650250   6.7032170
 112.7055370  69.6309810   5.8832510  99.3107340  71.9350290   5.9025490
 100.0469820  71.3865750   6.1734060  99.6948260  72.8006300   5.7631480
  96.1952820  68.0023860   1.7767000  95.2692600  68.2445000   1.7672410
  96.6609250  68.8298120   1.6551750  98.3165620  71.1196360  15.0911070
  99.1178350  71.4408410  15.5046470  97.8017440  70.7591940  15.8130980
 107.1530250  67.2276230  15.0386480 106.5468410  67.2507830  14.2982230
 106.8484360  66.4959270  15.5753730 108.5830620  70.9556520  13.6495890
 109.5352370  70.8714540  13.5996130 108.4358840  71.6198230  14.3229680
  96.0363430  63.6069820  14.0347120  96.5402450  63.0277100  14.6063350
  95.2970850  63.8910050  14.5723490 103.0901370  65.0140810  13.5682640
 102.3247040  65.5825810  13.4837310 103.2717330  64.7217020  12.6750870
 110.2324720  66.7446140  14.1257660 110.9734190  67.0821900  13.6225120
 109.4697400  66.9138200  13.5727430  98.0686510  61.7499410  14.9297190
  98.1091850  61.4513280  15.8382420  98.9232010  62.1507020  14.7704710
 100.0092320  60.3291510  12.8971680  99.4788780  59.8382460  12.2695020
 100.6780390  60.7575710  12.3629610 108.9070380  64.7960970  12.6612870
 109.3211400  64.9506050  13.5103290 107.9721380  64.9216190  12.8238650
 109.3792550  62.1357130  14.6652020 109.9613320  61.3809450  14.5772500
 109.5554320  62.6664570  13.8883500 100.4964620  57.2953880  12.9768970
 100.4021490  56.6774630  12.2519840  99.9162010  58.0220170  12.7498880
 103.2626060  55.8527120  10.0096360 102.8143360  55.8751380   9.1641910
 102.6291260  55.4546140  10.6066660 103.6685610  64.7481450  10.6308800
 104.0873720  65.5914180  10.4585040 102.7494240  64.8853490  10.4015580
 106.0049510  62.4797630  12.0146640 106.1245720  61.8838770  12.7541480
 106.8643510  62.5167320  11.5947940 108.3437410  63.0334820  10.5909150
 107.8172630  63.5577440   9.9874290 108.6868750  63.6662210  11.2218880
 101.5193030  71.0534460  11.7466530 100.9814120  71.7780520  11.4275230
 101.7726990  70.5764800  10.9563870 102.7718280  59.0218980  13.2722460
 103.3617970  58.7134830  13.9600280 101.9538520  58.5498730  13.4282360
 107.5911710  58.6384790  13.5055480 106.9027230  57.9766330  13.4405470
 108.3117730  58.1923060  13.9503940 104.3755240  72.2885670  12.0053180
 104.3013940  73.1920810  12.3125550 103.4734080  71.9697570  11.9775250
  95.7782530  69.6160260   5.3086800  96.1085540  68.7481320   5.0765440
  96.2073530  69.8218780   6.1391760 100.3744450  67.9469270   2.9688770
 100.0739990  67.8234240   3.8692680 100.2681940  67.0877860   2.5604500
  96.2672740  70.4830850   8.0468430  95.8303730  70.6631650   8.8792580
  96.8350420  71.2405470   7.9050150 111.9034920  69.9847850  12.3345740
 111.3036910  70.0440410  11.5909660 112.0328820  69.0452830  12.4642590
  96.0997170  62.9951080   4.4057310  95.4446010  62.7262720   3.7617010
  96.9375120  62.8855560   3.9559290 110.5886560  66.7099830  10.4321900
 109.7746400  67.1396990  10.6947690 110.9960760  67.3218240   9.8190950
 112.5477340  62.7016510   2.3251600 112.1720940  61.9344440   1.8932890
 111.8180460  63.0839210   2.8126530  97.1373100  63.3803650   8.9460650
  97.5046140  63.2931050   9.8256670  96.5683920  62.6170200   8.8467510
 111.9376960  61.8488030  11.9591120 111.7063050  61.6200780  11.0589070
 112.1981510  62.7687580  11.9136010  96.6889100  60.2912740  12.8519070
  95.7945150  60.2579500  13.1912780  97.2286650  60.4899530  13.6170320
 110.3765030  57.0744460  14.7370820 111.2535210  57.0827860  15.1204820
 110.3885870  56.3375300  14.1263170 111.8228300  60.9274000   5.6258840
 112.3465780  60.4336650   4.9949010 112.4087720  61.0624360   6.3706410
 112.0018020  61.0113870   9.1478390 111.0520730  60.9777410   9.2623380
 112.1831030  61.9213980   8.9128160  97.1928810  54.5661070   7.2002290
  97.8405000  54.0158450   6.7597450  97.6130650  54.8204220   8.0218100
 111.0881150  54.7602430  10.5571930 111.7253370  55.3736570  10.9231120
 111.2356040  54.7963090   9.6121160 110.6462610  71.4618430   3.9590170
 111.2421680  71.1403000   3.2824590 110.9040760  70.9890250   4.7503440
  96.9460810  54.7216740   9.9427610  96.5975630  55.1780560  10.7085790
  96.6148510  53.8273870  10.0250040  98.5525180  67.8936340  14.1080800
  98.5094810  67.5229250  14.9895260  98.6836190  68.8313910  14.2482620
 102.2531210  69.4495930   9.7090520 102.0122570  69.7170490   8.8221040
 103.1933850  69.6201660   9.7641380 104.4585630  55.9128620  13.4647030
 104.3974520  56.5050450  14.2142440 105.3986010  55.8054580  13.3197290
 107.0960190  55.5698680  13.1039320 107.7100600  55.8877970  12.4420400
 107.6409750  55.0847270  13.7235180  97.6181450  54.2492940  13.2178380
  98.1664440  54.0680990  12.4544490  97.6836760  53.4587050  13.7534690
  98.3913210  70.8398590  11.2278580  97.7973530  70.7083290  11.9668620
  98.3837050  70.0036730  10.7620680 107.8368230  54.1330820   9.4308610
 106.9628070  54.4665930   9.2281540 107.7278980  53.6604000  10.2560480
 108.7440210  56.3401690  10.8150330 108.4153570  55.5253450  10.4352060
 109.6922510  56.2971500  10.6916020 111.1974820  72.1113730   7.7887900
 110.7377790  72.8629540   7.4145920 110.5687280  71.3920200   7.7302700
  98.0225440  68.2056970  10.1786620  97.2959500  67.5862260  10.1112570
  98.0834590  68.5997580   9.3084700 101.6270540  70.4201970   6.9636030
 102.1435560  69.8089330   6.4384290 102.2767920  70.9230750   7.4547040
 104.3666040  71.3110460   7.7905010 104.6543850  71.0564760   6.9138020
 104.8789260  70.7587820   8.3810580 105.5843050  55.0500660   8.3701520
 104.8014840  55.5246160   8.6498280 105.2905980  54.1455490   8.2614700
 110.1364120  55.7523760   6.4150610 110.5772210  55.6968860   5.5672210
 109.8671710  56.6681770   6.4860790 112.0002690  55.3839000   4.4259430
 111.9391090  54.4400220   4.2790450 112.7794720  55.4919090   4.9712890
  96.3055440  71.5231360   3.3883380  96.1377480  70.8902040   4.0865270
  95.4389950  71.7290760   3.0377570 103.4697270  57.4687410   3.8817550
 102.6571780  57.0944300   3.5413430 103.9738910  56.7132490   4.1838740
 107.9722250  54.1329860   5.1200620 108.5751620  54.7050070   5.5949140
 107.2315240  54.6969300   4.8974520 101.4946450  55.6187330   2.4862600
 100.8649190  54.9174640   2.6532730 100.9551590  56.3791460   2.2695760
 104.4338400  72.2326560  15.1573210 105.3605710  71.9970830  15.2009170
 104.4188830  73.0598560  14.6759240 101.6202010  54.8971310  14.9215090
 101.3386280  55.4004910  14.1575910 102.0021710  54.0993060  14.5557220
 108.2217470  54.3124890  15.4995560 108.1082920  54.6319500  16.3947080
 109.0387210  54.7137400  15.2032840 111.0015960  71.4596420  14.9814250
 111.7941280  70.9645650  14.7740210 111.2949110  72.1386560  15.5889860
 107.1275620  43.5573870  79.7347750 107.0469670  42.6428480  79.4639460
 106.7140040  44.0540940  79.0287460 105.2593660  45.3352890  81.6157020
 104.4835760  44.8553330  81.9055590 105.9106590  44.6558540  81.4413180
  99.2759490  45.6472700  82.4932780  98.4444370  45.3921410  82.8929290
  99.8840470  45.7183470  83.2290700 109.2801090  49.7413080  80.3956150
 108.8182620  48.9700320  80.7243320 110.0926640  49.7679150  80.9008600
  99.2560750  49.6812790  82.6890800  99.5588790  48.7910530  82.5101020
 100.0004340  50.2383010  82.4613050  97.6851440  40.6074590  76.2775170
  96.7968140  40.9490560  76.1755050  97.9692630  40.4074910  75.3856000
  95.6484450  43.2080240  82.1614870  96.2200560  42.4402440  82.1618510
  95.6485990  43.5069000  81.2521480 105.5064400  52.0271090  80.0160140
 104.8875840  52.4828590  79.4454580 106.3616180  52.1822550  79.6149840
 104.7002650  48.0110080  81.6227180 104.6310930  47.0700020  81.4616310
 105.4622510  48.1011490  82.1949750  96.8909320  38.6164600  83.9483800
  96.7112160  37.7190350  84.2286560  96.4889400  39.1636470  84.6230750
 105.7307820  40.8180460  81.8496110 106.1072640  39.9452340  81.7369780
 105.6327330  41.1539160  80.9586550  99.8612830  39.1906090  77.3113550
  99.9679580  40.0909820  77.6182310  98.9505190  39.1424060  77.0208200
 109.5131940  38.3130900  78.7824450 110.3341560  37.8227470  78.8249930
 109.5466020  38.9028560  79.5356290  97.5095990  41.1125100  82.5566140
  98.1906100  41.3763470  83.1753540  97.1944040  40.2725970  82.8904150
 101.7020560  42.1592460  81.6438730 102.2098780  42.6573430  82.2843750
 102.2333800  41.3827660  81.4678090  99.9856660  36.7991020  85.9102150
  99.9875100  37.3163410  85.1048050  99.1560970  36.3221200  85.8872080
 106.3727750  46.9110330  77.4092050 105.7545020  47.3759780  76.8454770
 106.8851000  47.6037810  77.8261560 101.2359510  46.4386200  84.0875650
 100.9028890  47.0655120  84.7296720 101.4126190  46.9648080  83.3077320
 109.7493420  40.2531280  81.5551990 109.0448990  40.5416170  82.1355100
 110.1105580  41.0631390  81.1951550  99.6671990  38.5100980  83.9172600
 100.0088800  39.3543030  83.6226470  98.7287800  38.6584720  84.0337940
 100.4478610  48.4067000  85.9024830 101.0652610  49.0818080  85.6209280
  99.5871730  48.8154980  85.8112330  95.7410950  47.5966860  74.7831680
  95.3638930  48.0853960  74.0516580  95.9984020  48.2692140  75.4138210
 111.3656200  49.8706410  83.8179470 110.6819720  50.5405520  83.8096140
 111.9050490  50.0687060  83.0524330 112.8180340  39.6986070  81.9461200
 111.8705250  39.7325050  82.0776630 113.1430330  40.5125020  82.3310560
 103.3499880  35.9983250  80.2417190 103.6574860  35.4430140  79.5252690
 102.4200580  36.1327710  80.0590180 108.9014940  51.7150540  82.5324650
 108.9142100  51.3112830  81.6646910 108.3490160  52.4897830  82.4286080
 110.1960360  48.4366760  77.6214820 110.0856690  47.4941090  77.7464240
 110.1928610  48.7982400  78.5077580 108.3000380  46.6180380  83.8607260
 108.7169170  46.4040490  83.0260720 109.0240200  46.8753170  84.4315880
 105.7380640  44.0632080  76.9777310 104.8109920  43.9969460  77.2065780
 105.8905460  45.0012210  76.8632550 105.7249720  40.3349080  73.9744470
 104.7853390  40.4963040  74.0596930 106.0432980  41.0534760  73.4280460
 112.2462480  45.0167600  83.9523500 111.4181110  45.0860690  83.4773630
 112.8412960  45.6021910  83.4839330 109.7677930  45.6252380  77.4812560
 109.1490350  45.2871930  76.8338860 109.7502380  44.9812140  78.1891750
 109.2104490  41.8036920  84.8978370 108.7975670  42.6290630  85.1518360
 108.4780440  41.2181960  84.7054730 101.3437280  44.5896820  79.7597040
 100.9394280  43.8774070  79.2642940 101.4300400  44.2450060  80.6485080
 101.8118980  48.2764380  81.9236250 101.5147270  47.6709850  81.2444030
 102.7618800  48.3141690  81.8125610 100.0565900  41.3640030  83.5396080
 100.6080490  41.4735370  82.7649330 100.5709410  41.7377630  84.2551310
 109.9004590  51.8496250  85.5859350 109.4235150  52.6568440  85.3931960
 109.2166380  51.1974580  85.7385560 107.9442630  44.8639190  74.4885310
 108.3835910  44.0261620  74.3423130 108.6571050  45.4968590  74.5749450
 106.0538010  49.8035260  78.4566550 106.4933920  50.5459590  78.0421940
 105.9924900  50.0461830  79.3805510 111.5259770  36.1182000  72.8026350
 111.2132430  36.2108830  73.7025420 112.2872240  36.6963030  72.7523780
  98.0441910  43.4841800  77.2603690  97.9239510  44.2103890  76.6484960
  97.7342800  42.7144710  76.7831600  95.6827280  46.6556940  83.0672330
  95.7607700  46.7905710  82.1228050  96.2968960  45.9472830  83.2600450
  96.9274910  48.3557130  79.4778510  96.5202990  48.4971720  78.6232110
  97.8187920  48.0717290  79.2749720 108.7208190  52.7904380  75.8129560
 108.5609330  52.5007320  76.7111390 108.5554900  52.0144510  75.2774790
 101.1996570  52.5702910  77.5901180 101.0239050  51.6538450  77.3768980
 100.3452310  52.9290200  77.8298980 108.4234320  50.2991940  74.3727560
 107.7299480  50.2969230  73.7129840 109.1657180  49.8751260  73.9421730
 107.9884250  51.9254650  78.4476050 108.4441200  51.1444030  78.7614670
 108.3276770  52.6361470  78.9917230 100.5105570  36.8276870  80.6427360
 100.0673720  37.6086410  80.3111880 101.0690560  37.1506760  81.3498300
 103.6264390  36.4487570  75.5233190 103.0018570  36.4447440  76.2486500
 103.5394510  35.5818530  75.1269160 102.5481470  37.3724200  82.5016960
 102.8453800  38.2787030  82.4208980 103.0967030  36.8842980  81.8876530
 100.3019790  41.9510440  78.3708610 100.0760710  41.7347610  79.2755230
  99.5212320  42.3838900  78.0254580 107.5317550  41.9573810  76.9699260
 106.9326440  42.6809610  76.7862880 108.0797160  41.8950590  76.1875710
 106.1382420  40.5937350  79.0002540 106.5311990  40.9109550  78.1871230
 106.4999270  39.7149230  79.1147060  95.1746590  37.1838150  81.2232740
  94.8859640  37.7541010  81.9357720  95.9192350  36.7042600  81.5863970
  95.3616820  41.1258270  72.4335460  95.2791490  42.0689030  72.5750450
  95.0099880  40.9833180  71.5547810 106.7237560  43.1843100  83.0953320
 105.9918680  43.6929910  83.4443420 106.3261900  42.3673080  82.7942100
 103.1614950  39.8597300  81.5005810 103.1651010  39.4187250  80.6510350
 104.0566070  40.1814630  81.6077630  99.0117330  39.7423790  80.4600020
  98.6717380  40.2199020  81.2167070  98.2494650  39.2888910  80.1001120
 103.2235100  40.8609380  74.4912570 103.3447920  40.8195860  75.4398390
 102.8383610  41.7233530  74.3359300 107.1863470  38.6376780  82.5076260
 107.2036210  39.0885430  83.3518110 106.9379050  37.7382420  82.7209700
 102.2356600  43.1710520  73.8895870 101.6673500  42.7228770  73.2631780
 102.9445600  43.5303300  73.3561020 103.4622920  43.9199080  83.2471220
 103.8293050  43.4457650  83.9932560 103.2727980  44.7940650  83.5879560
  96.3263410  38.6642770  79.3764690  96.0410330  38.2998440  80.2143310
  96.2642270  37.9323230  78.7627830 101.2522290  42.9607720  85.5655430
 100.9479360  43.8399700  85.7905790 102.2068750  43.0207510  85.6012870
  99.7804080  47.1668710  76.1622280  99.0066340  46.6266330  76.0021000
 100.5098710  46.6475320  75.8240040 110.5392060  46.1634070  81.9548670
 111.2591180  46.6589360  81.5644780 110.3373880  45.4851960  81.3102540
 106.0002000  37.5572030  76.0978060 105.1866610  37.0585200  76.0223370
 105.8063950  38.3970280  75.6814410 108.7150390  41.9291680  74.3940220
 109.6030010  42.2408910  74.2191560 108.6855480  41.0563930  74.0020800
  99.8241480  46.8349090  79.8001090 100.3420150  46.0317350  79.7457980
  99.3725500  46.7728230  80.6417920 104.7110980  48.1015370  75.0728390
 105.0526680  48.8457600  74.5771710 103.8823690  48.4146490  75.4353220
 110.9864660  43.2403520  73.8620080 110.9028380  43.6717740  73.0116520
 111.7058850  43.7001870  74.2946900 112.0151910  50.0945780  76.5902210
 111.3728070  49.4401400  76.8645930 111.6282570  50.5000870  75.8142880
 107.5938390  47.4231210  80.4373900 107.9462210  46.8259340  79.7775270
 106.7100720  47.0975440  80.6082150 103.6801670  48.1828900  77.8444310
 104.3672800  48.7298110  78.2251900 102.8934090  48.7269630  77.8793920
  95.8194070  43.8001720  73.3361390  96.6888920  44.0826520  73.6197310
  95.3284390  44.6137590  73.2210200 102.9828880  45.1874930  77.4569670
 103.4391660  45.9980180  77.6829860 102.6317090  44.8698070  78.2888160
 105.2861490  50.6981270  84.6861970 105.9303710  50.9040650  85.3635390
 105.6490930  49.9369670  84.2332820  98.8840660  35.5312580  77.9292190
  98.7555290  35.5230480  78.8777110  98.0602680  35.8695670  77.5783200
 106.5593570  48.7013620  83.4039420 107.2015800  48.0006780  83.5171590
 107.0842920  49.4812060  83.2236310 110.4049290  48.9862240  73.1278560
 110.1786870  48.2692680  73.7203200 110.0145490  48.7374680  72.2900310
  96.1865320  53.0129100  73.9023020  96.5462960  53.6118440  73.2480290
  96.0457660  53.5588990  74.6758050 109.9865540  46.9034180  74.7892720
 109.6987240  47.3646870  75.5770600 110.7817710  46.4431950  75.0576940
 102.2033940  50.3960300  74.7196690 102.1944040  51.1289990  74.1041200
 101.2832300  50.1491880  74.8123650  97.8040580  45.6175190  75.4643450
  97.1968530  46.3574090  75.4738750  98.2789930  45.7074550  74.6381650
 107.3773370  39.7826010  85.1400340 107.7454190  38.9621220  85.4679910
 106.5171570  39.8427900  85.5555990 110.7435400  38.7382950  75.9487900
 110.1148560  38.8428620  75.2346130 110.2487320  38.9579730  76.7381780
 105.1893540  50.4588540  73.3821880 105.2905520  50.2552530  72.4523860
 104.2895280  50.2046820  73.5869660 102.7119430  41.0168900  77.3645780
 102.0035580  41.4855240  77.8059390 102.9963910  40.3590910  77.9990970
 106.7434860  37.7419560  78.8041570 106.6202640  37.7605690  77.8551080
 107.6919420  37.7898500  78.9239970 103.8311650  52.9774860  78.0769550
 104.0853150  52.9396250  77.1548920 102.8824130  52.8508190  78.0697800
 100.9154450  39.3253980  74.7396490 101.7644980  39.7624130  74.6736680
 100.5485720  39.6374240  75.5668550 109.8364230  43.8966740  79.6528060
 108.8954370  43.9116970  79.8275750 110.1508300  43.1102700  80.0988360
  99.8145870  45.5786340  73.2132020 100.5809140  45.4667700  73.7757450
  99.8920560  44.8824310  72.5608790  98.5092630  43.0111410  73.8964910
  98.5896220  42.0638920  74.0082310  99.4012380  43.3418290  74.0025570
 111.8389810  51.0675590  81.3282320 111.9637230  51.8906760  81.8006130
 112.7055370  50.8566320  80.9806470  99.3107340  53.1606800  80.9999450
 100.0469820  52.6122260  81.2708020  99.6948260  54.0262810  80.8605440
  96.1952820  49.2280370  76.8740960  95.2692600  49.4701510  76.8646370
  96.6609250  50.0554630  76.7525710 102.4209650  52.3337110  72.8225020
 103.2138260  52.6225940  72.3706810 101.9014000  51.9029280  72.1437500
 111.4739820  51.5607240  74.2461760 111.1881330  51.1472380  73.4315940
 111.2759370  52.4894950  74.1262280 102.9387050  47.5540520  72.6867370
 102.8337690  46.9392870  73.4128750 102.7711270  47.0306410  71.9030380
 106.1789780  46.6160550  73.2909360 105.6299880  47.0629850  73.9352100
 106.8009040  46.1109800  73.8147030 101.8464900  45.5751470  75.1874660
 102.2681320  45.4091340  76.0306050 101.9715740  44.7651700  74.6929800
 104.3592540  44.5989080  72.4351760 104.8798200  43.8838100  72.0692910
 105.0060940  45.2374950  72.7352270 103.2626060  37.0783630  85.1070320
 102.8143360  37.1007890  84.2615870 102.6291260  36.6802650  85.7040620
 103.6685610  45.9737960  85.7282760 104.0873720  46.8170690  85.5559000
 102.7494240  46.1110000  85.4989540 100.7423800  41.6484700  72.1332820
 100.5412860  40.7852060  72.4946160 100.5715850  41.5618060  71.1954420
 108.2212110  36.4592930  74.6619700 108.5014400  35.6160830  75.0179120
 107.4477840  36.6916040  75.1758450  99.5406600  38.7485320  72.1210700
  99.8432500  38.7552750  71.2129850 100.2801190  38.3983180  72.6178360
 102.7591530  37.6919940  73.1066900 102.4113530  37.0143930  72.5269350
 102.9604300  37.2309450  73.9210290 104.9240570  52.6800690  74.7253500
 105.8191360  53.0185660  74.7472260 104.9558200  51.9580100  74.0977780
  98.5636730  48.0527740  72.9540500  99.0011600  48.5957410  73.6098080
  99.0484460  47.2274690  72.9636840  95.7782530  50.8416770  80.4060760
  96.1085540  49.9737830  80.1739400  96.2073530  51.0475290  81.2365720
 100.3744450  49.1725780  78.0662730 100.0739990  49.0490750  78.9666640
 100.2681940  48.3134370  77.6578460  96.2672740  51.7087360  83.1442390
  95.8303730  51.8888160  83.9766540  96.8350420  52.4661980  83.0024110
 113.1436370  48.9522180  72.7689410 112.3129330  49.0198830  73.2396640
 113.3208200  49.8426300  72.4656270 112.5992830  45.6969660  75.2723610
 113.3611740  46.2666310  75.3783300 112.6147200  45.1296860  76.0431920
  96.0997170  44.2207590  79.5031270  95.4446010  43.9519230  78.8590970
  96.9375120  44.1112070  79.0533250 110.5886560  47.9356340  85.5295860
 109.7746400  48.3653500  85.7921650 110.9960760  48.5474750  84.9164910
 112.6512000  45.9904030  72.4296130 112.9260840  46.8982910  72.3015350
 112.4622740  45.9266560  73.3658120 109.0487610  39.0148880  73.7249760
 109.4672490  38.8279860  72.8846420 108.7423670  38.1627930  74.0352690
 112.5477340  43.9273020  77.4225560 112.1720940  43.1600950  76.9906850
 111.8180460  44.3095720  77.9100490  97.1373100  44.6060160  84.0434610
  97.5046140  44.5187560  84.9230630  96.5683920  43.8426710  83.9441470
  95.3135250  41.4306520  75.4456600  94.4099330  41.6936720  75.2708260
  95.7975870  41.7017690  74.6656560 111.8228300  42.1530510  80.7232800
 112.3465780  41.6593160  80.0922970 112.4087720  42.2880870  81.4680370
 112.0018020  42.2370380  84.2452350 111.0520730  42.2033920  84.3597340
 112.1831030  43.1470490  84.0102120  97.8562460  40.4872060  73.3550980
  98.5654160  40.0655280  72.8698260  97.1402400  40.5547290  72.7234330
  97.5036620  36.5411390  72.3953630  98.2264750  37.0820330  72.7134850
  97.7761140  36.2674810  71.5195170 111.3128270  41.4103860  76.6625210
 111.8087390  41.1774730  77.4474090 111.1144340  40.5715700  76.2462850
  97.1928810  35.7917580  82.2976250  97.8405000  35.2414960  81.8571410
  97.6130650  36.0460730  83.1192060 110.6462610  52.6874940  79.0564130
 111.2421680  52.3659510  78.3798550 110.9040760  52.2146760  79.8477400
  96.9460810  35.9473250  85.0401570  96.5975630  36.4037070  85.8059750
  96.6148510  35.0530380  85.1224000 102.2531210  50.6752440  84.8064480
 102.0122570  50.9427000  83.9195000 103.1933850  50.8458170  84.8615340
 107.8368230  35.3587330  84.5282570 106.9628070  35.6922440  84.3255500
 107.7278980  34.8860510  85.3534440 108.7440210  37.5658200  85.9124290
 108.4153570  36.7509960  85.5326020 109.6922510  37.5228010  85.7889980
 111.1974820  53.3370240  82.8861860 110.7377790  54.0886050  82.5119880
 110.5687280  52.6176710  82.8276660  98.0225440  49.4313480  85.2760580
  97.2959500  48.8118770  85.2086530  98.0834590  49.8254090  84.4058660
 101.6270540  51.6458480  82.0609990 102.1435560  51.0345840  81.5358250
 102.2767920  52.1487260  82.5521000 104.3666040  52.5366970  82.8878970
 104.6543850  52.2821270  82.0111980 104.8789260  51.9844330  83.4784540
 105.5843050  36.2757170  83.4675480 104.8014840  36.7502670  83.7472240
 105.2905980  35.3712000  83.3588660 110.1364120  36.9780270  81.5124570
 110.5772210  36.9225370  80.6646170 109.8671710  37.8938280  81.5834750
 112.0002690  36.6095510  79.5233390 111.9391090  35.6656730  79.3764410
 112.7794720  36.7175600  80.0686850  96.3055440  52.7487870  78.4857340
  96.1377480  52.1158550  79.1839230  95.4389950  52.9547270  78.1351530
  96.9283460  36.5804650  75.9889200  97.6862820  36.6933530  75.4153230
  96.4660630  37.4173850  75.9432630 103.4697270  38.6943920  78.9791510
 102.6571780  38.3200810  78.6387390 103.9738910  37.9389000  79.2812700
 107.9722250  35.3586370  80.2174580 108.5751620  35.9306580  80.6923100
 107.2315240  35.9225810  79.9948480 111.1156850  35.7607930  75.4914860
 111.3107480  36.6591380  75.7582290 110.3286720  35.5295010  75.9847810
  97.9118140  51.4421100  75.9307480  97.3865760  51.8229130  75.2269440
  97.8362720  52.0671870  76.6517190  99.3008610  37.1068700  74.5291170
  99.8301370  36.3198500  74.3999120  99.9336930  37.7859890  74.7626700
 101.4946450  36.8443840  77.5836560 100.8649190  36.1431150  77.7506690
 100.9551590  37.6047970  77.3669720 112.6683460  53.0008640  77.2521420
 112.8435650  52.3146380  76.6082340 111.9705030  53.5255690  76.8598090
 100.5111110  53.3903480  74.8056730 101.2429930  53.1062760  74.2580620
 100.7704780  53.1516760  75.6956110  99.6725900  49.5068210  74.8103060
  99.0434780  49.9753310  75.3588890  99.7873730  48.6617430  75.2449250
 107.1275620  43.5573870  60.9604260 107.0469670  42.6428480  60.6895970
 106.7140040  44.0540940  60.2543970 105.2593660  45.3352890  62.8413530
 104.4835760  44.8553330  63.1312100 105.9106590  44.6558540  62.6669690
  99.2759490  45.6472700  63.7189290  98.4444370  45.3921410  64.1185800
  99.8840470  45.7183470  64.4547210 109.2801090  49.7413080  61.6212660
 108.8182620  48.9700320  61.9499830 110.0926640  49.7679150  62.1265110
  99.2560750  49.6812790  63.9147310  99.5588790  48.7910530  63.7357530
 100.0004340  50.2383010  63.6869560  97.6851440  40.6074590  57.5031680
  96.7968140  40.9490560  57.4011560  97.9692630  40.4074910  56.6112510
  95.6484450  43.2080240  63.3871380  96.2200560  42.4402440  63.3875020
  95.6485990  43.5069000  62.4777990 105.5064400  52.0271090  61.2416650
 104.8875840  52.4828590  60.6711090 106.3616180  52.1822550  60.8406350
 104.7002650  48.0110080  62.8483690 104.6310930  47.0700020  62.6872820
 105.4622510  48.1011490  63.4206260  96.8909320  38.6164600  65.1740310
  96.7112160  37.7190350  65.4543070  96.4889400  39.1636470  65.8487260
 105.7307820  40.8180460  63.0752620 106.1072640  39.9452340  62.9626290
 105.6327330  41.1539160  62.1843060  99.8612830  39.1906090  58.5370060
  99.9679580  40.0909820  58.8438820  98.9505190  39.1424060  58.2464710
 109.5131940  38.3130900  60.0080960 110.3341560  37.8227470  60.0506440
 109.5466020  38.9028560  60.7612800  97.5095990  41.1125100  63.7822650
  98.1906100  41.3763470  64.4010050  97.1944040  40.2725970  64.1160660
 101.7020560  42.1592460  62.8695240 102.2098780  42.6573430  63.5100260
 102.2333800  41.3827660  62.6934600  99.9856660  36.7991020  67.1358660
  99.9875100  37.3163410  66.3304560  99.1560970  36.3221200  67.1128590
 106.3727750  46.9110330  58.6348560 105.7545020  47.3759780  58.0711280
 106.8851000  47.6037810  59.0518070 101.2359510  46.4386200  65.3132160
 100.9028890  47.0655120  65.9553230 101.4126190  46.9648080  64.5333830
 109.7493420  40.2531280  62.7808500 109.0448990  40.5416170  63.3611610
 110.1105580  41.0631390  62.4208060  99.6671990  38.5100980  65.1429110
 100.0088800  39.3543030  64.8482980  98.7287800  38.6584720  65.2594450
 100.4478610  48.4067000  67.1281340 101.0652610  49.0818080  66.8465790
  99.5871730  48.8154980  67.0368840  95.7410950  47.5966860  56.0088190
  95.3638930  48.0853960  55.2773090  95.9984020  48.2692140  56.6394720
 111.3656200  49.8706410  65.0435980 110.6819720  50.5405520  65.0352650
 111.9050490  50.0687060  64.2780840 112.8180340  39.6986070  63.1717710
 111.8705250  39.7325050  63.3033140 113.1430330  40.5125020  63.5567070
 103.3499880  35.9983250  61.4673700 103.6574860  35.4430140  60.7509200
 102.4200580  36.1327710  61.2846690 108.9014940  51.7150540  63.7581160
 108.9142100  51.3112830  62.8903420 108.3490160  52.4897830  63.6542590
 110.1960360  48.4366760  58.8471330 110.0856690  47.4941090  58.9720750
 110.1928610  48.7982400  59.7334090 108.3000380  46.6180380  65.0863770
 108.7169170  46.4040490  64.2517230 109.0240200  46.8753170  65.6572390
 105.7380640  44.0632080  58.2033820 104.8109920  43.9969460  58.4322290
 105.8905460  45.0012210  58.0889060 105.7249720  40.3349080  55.2000980
 104.7853390  40.4963040  55.2853440 106.0432980  41.0534760  54.6536970
 112.2462480  45.0167600  65.1780010 111.4181110  45.0860690  64.7030140
 112.8412960  45.6021910  64.7095840 109.7677930  45.6252380  58.7069070
 109.1490350  45.2871930  58.0595370 109.7502380  44.9812140  59.4148260
 109.2104490  41.8036920  66.1234880 108.7975670  42.6290630  66.3774870
 108.4780440  41.2181960  65.9311240 101.3437280  44.5896820  60.9853550
 100.9394280  43.8774070  60.4899450 101.4300400  44.2450060  61.8741590
 101.8118980  48.2764380  63.1492760 101.5147270  47.6709850  62.4700540
 102.7618800  48.3141690  63.0382120 100.0565900  41.3640030  64.7652590
 100.6080490  41.4735370  63.9905840 100.5709410  41.7377630  65.4807820
 109.9004590  51.8496250  66.8115860 109.4235150  52.6568440  66.6188470
 109.2166380  51.1974580  66.9642070 100.9037410  48.0146070  69.8000560
 100.0065940  48.2386040  70.0473960 100.9290280  48.1381010  68.8511960
 107.9442630  44.8639190  55.7141820 108.3835910  44.0261620  55.5679640
 108.6571050  45.4968590  55.8005960  99.7308630  44.8859390  68.3757930
  99.5916400  45.7582190  68.7445330  98.8489990  44.5432200  68.2305870
 106.0538010  49.8035260  59.6823060 106.4933920  50.5459590  59.2678450
 105.9924900  50.0461830  60.6062020 101.5288980  50.8281090  70.5843080
 101.5004410  51.2324040  69.7171510 101.3653950  49.8991450  70.4214680
 111.5259770  36.1182000  54.0282860 111.2132430  36.2108830  54.9281930
 112.2872240  36.6963030  53.9780290  98.0441910  43.4841800  58.4860200
  97.9239510  44.2103890  57.8741470  97.7342800  42.7144710  58.0088110
  95.6827280  46.6556940  64.2928840  95.7607700  46.7905710  63.3484560
  96.2968960  45.9472830  64.4856960  96.9274910  48.3557130  60.7035020
  96.5202990  48.4971720  59.8488620  97.8187920  48.0717290  60.5006230
 112.8837050  48.8021040  69.0407260 113.0100110  48.5632920  68.1224440
 112.9258430  47.9705580  69.5129340 106.7453790  52.5049040  67.6102070
 107.2598460  52.4157050  68.4124500 105.9022870  52.8508740  67.9029980
 108.7208190  52.7904380  57.0386070 108.5609330  52.5007320  57.9367900
 108.5554900  52.0144510  56.5031300 101.1996570  52.5702910  58.8157690
 101.0239050  51.6538450  58.6025490 100.3452310  52.9290200  59.0555490
 108.4234320  50.2991940  55.5984070 107.7299480  50.2969230  54.9386350
 109.1657180  49.8751260  55.1678240 107.9884250  51.9254650  59.6732560
 108.4441200  51.1444030  59.9871180 108.3276770  52.6361470  60.2173740
 112.7361060  40.8553500  70.0057000 112.1205330  41.3633170  69.4772460
 112.4157480  39.9551830  69.9482940  95.7386800  47.6971110  66.8323300
  95.9017840  47.2276470  66.0142670  96.2039250  47.1894670  67.4972140
 100.5105570  36.8276870  61.8683870 100.0673720  37.6086410  61.5368390
 101.0690560  37.1506760  62.5754810 104.7975380  39.6945390  67.4719190
 104.3354750  39.9028410  68.2839130 104.3953490  38.8804740  67.1689860
 109.7979890  40.9154340  68.6015850 108.9473480  40.6160090  68.9224920
 109.6381680  41.1596350  67.6899670 106.8929600  42.4156090  70.7014640
 107.2183010  41.5819840  70.3616870 107.6809930  42.9384610  70.8492970
 103.6264390  36.4487570  56.7489700 103.0018570  36.4447440  57.4743010
 103.5394510  35.5818530  56.3525670 102.5481470  37.3724200  63.7273470
 102.8453800  38.2787030  63.6465490 103.0967030  36.8842980  63.1133040
 100.3019790  41.9510440  59.5965120 100.0760710  41.7347610  60.5011740
  99.5212320  42.3838900  59.2511090 107.5317550  41.9573810  58.1955770
 106.9326440  42.6809610  58.0119390 108.0797160  41.8950590  57.4132220
 102.7419000  42.8496020  70.2625390 102.6462600  41.9090750  70.1125790
 103.5850980  43.0711090  69.8673460 106.1382420  40.5937350  60.2259050
 106.5311990  40.9109550  59.4127740 106.4999270  39.7149230  60.3403570
  97.8729540  39.2609690  68.4159170  97.4792930  40.1084900  68.6231950
  97.1847940  38.6236060  68.6067810 104.4474590  39.3444660  71.4855910
 103.7572910  39.1516860  72.1202000 105.1906890  39.6279300  72.0180210
  95.1746590  37.1838150  62.4489250  94.8859640  37.7541010  63.1614230
  95.9192350  36.7042600  62.8120480  95.3616820  41.1258270  53.6591970
  95.2791490  42.0689030  53.8006960  95.0099880  40.9833180  52.7804320
 106.7237560  43.1843100  64.3209830 105.9918680  43.6929910  64.6699930
 106.3261900  42.3673080  64.0198610 103.1614950  39.8597300  62.7262320
 103.1651010  39.4187250  61.8766860 104.0566070  40.1814630  62.8334140
  99.0117330  39.7423790  61.6856530  98.6717380  40.2199020  62.4423580
  98.2494650  39.2888910  61.3257630 103.2235100  40.8609380  55.7169080
 103.3447920  40.8195860  56.6654900 102.8383610  41.7233530  55.5615810
 107.1863470  38.6376780  63.7332770 107.2036210  39.0885430  64.5774620
 106.9379050  37.7382420  63.9466210 102.2356600  43.1710520  55.1152380
 101.6673500  42.7228770  54.4888290 102.9445600  43.5303300  54.5817530
 110.6134220  36.0508960  69.5719150 110.9379990  35.3198620  70.0977130
 110.6490730  35.7322600  68.6700140  97.3125780  47.0722540  68.9919110
  96.9280570  46.4316210  69.5902070  97.6237970  47.7758660  69.5613840
 103.4622920  43.9199080  64.4727730 103.8293050  43.4457650  65.2189070
 103.2727980  44.7940650  64.8136070  96.3263410  38.6642770  60.6021200
  96.0410330  38.2998440  61.4399820  96.2642270  37.9323230  59.9884340
 101.2522290  42.9607720  66.7911940 100.9479360  43.8399700  67.0162300
 102.2068750  43.0207510  66.8269380  99.7804080  47.1668710  57.3878790
  99.0066340  46.6266330  57.2277510 100.5098710  46.6475320  57.0496550
 110.5392060  46.1634070  63.1805180 111.2591180  46.6589360  62.7901290
 110.3373880  45.4851960  62.5359050 106.0002000  37.5572030  57.3234570
 105.1866610  37.0585200  57.2479880 105.8063950  38.3970280  56.9070920
 105.9210860  46.2343130  69.0674180 105.8548170  45.3138800  68.8131770
 105.2916000  46.3318570  69.7818820 108.7150390  41.9291680  55.6196730
 109.6030010  42.2408910  55.4448070 108.6855480  41.0563930  55.2277310
  99.8241480  46.8349090  61.0257600 100.3420150  46.0317350  60.9714490
  99.3725500  46.7728230  61.8674430 104.7110980  48.1015370  56.2984900
 105.0526680  48.8457600  55.8028220 103.8823690  48.4146490  56.6609730
  97.3086020  43.8010460  67.9383300  96.9500960  44.4664310  68.5256640
  97.0140580  42.9694010  68.3095920 100.5099140  44.2594700  70.8222850
 100.2099280  44.4051880  69.9250670 101.2810380  43.6999990  70.7296240
 105.8527590  49.0563700  68.8177980 105.8672130  48.1244660  68.5996890
 105.1452690  49.1423460  69.4567750 110.9864660  43.2403520  55.0876590
 110.9028380  43.6717740  54.2373030 111.7058850  43.7001870  55.5203410
 112.0638800  45.6971040  68.1646560 111.3386990  46.2899820  67.9675950
 112.5914260  45.6894580  67.3659930 112.0151910  50.0945780  57.8158720
 111.3728070  49.4401400  58.0902440 111.6282570  50.5000870  57.0399390
 107.5938390  47.4231210  61.6630410 107.9462210  46.8259340  61.0031780
 106.7100720  47.0975440  61.8338660 103.6801670  48.1828900  59.0700820
 104.3672800  48.7298110  59.4508410 102.8934090  48.7269630  59.1050430
  95.8194070  43.8001720  54.5617900  96.6888920  44.0826520  54.8453820
  95.3284390  44.6137590  54.4466710 102.9828880  45.1874930  58.6826180
 103.4391660  45.9980180  58.9086370 102.6317090  44.8698070  59.5144670
 105.2861490  50.6981270  65.9118480 105.9303710  50.9040650  66.5891900
 105.6490930  49.9369670  65.4589330  98.8840660  35.5312580  59.1548700
  98.7555290  35.5230480  60.1033620  98.0602680  35.8695670  58.8039710
 106.5593570  48.7013620  64.6295930 107.2015800  48.0006780  64.7428100
 107.0842920  49.4812060  64.4492820 110.4049290  48.9862240  54.3535070
 110.1786870  48.2692680  54.9459710 110.0145490  48.7374680  53.5156820
 108.3331190  49.5008520  67.8331990 108.6687430  50.0875210  68.5109910
 107.4131530  49.3701230  68.0629780  96.1865320  53.0129100  55.1279530
  96.5462960  53.6118440  54.4736800  96.0457660  53.5588990  55.9014560
  95.8834590  37.2903700  68.6155400  95.1693110  37.4900620  69.2208010
  96.3029630  36.5143270  68.9870200 109.9865540  46.9034180  56.0149230
 109.6987240  47.3646870  56.8027110 110.7817710  46.4431950  56.2833450
  96.1707180  51.2783960  69.6021930  96.2798300  50.3378700  69.4617320
  95.5187740  51.5438710  68.9535660 104.1619770  49.5499850  71.0020050
 103.8416640  48.8309090  71.5465740 103.4878130  50.2254920  71.0756110
 102.2033940  50.3960300  55.9453200 102.1944040  51.1289990  55.3297710
 101.2832300  50.1491880  56.0380160  97.8040580  45.6175190  56.6899960
  97.1968530  46.3574090  56.6995260  98.2789930  45.7074550  55.8638160
 107.3773370  39.7826010  66.3656850 107.7454190  38.9621220  66.6936420
 106.5171570  39.8427900  66.7812500 110.7435400  38.7382950  57.1744410
 110.1148560  38.8428620  56.4602640 110.2487320  38.9579730  57.9638290
 105.1893540  50.4588540  54.6078390 105.2905520  50.2552530  53.6780370
 104.2895280  50.2046820  54.8126170 102.7119430  41.0168900  58.5902290
 102.0035580  41.4855240  59.0315900 102.9963910  40.3590910  59.2247480
 104.3375360  42.4365600  66.5894820 104.8360610  42.9111420  67.2546670
 104.4798310  41.5129120  66.7964850 106.7434860  37.7419560  60.0298080
 106.6202640  37.7605690  59.0807590 107.6919420  37.7898500  60.1496480
 103.8311650  52.9774860  59.3026060 104.0853150  52.9396250  58.3805430
 102.8824130  52.8508190  59.2954310 100.9154450  39.3253980  55.9653000
 101.7644980  39.7624130  55.8993190 100.5485720  39.6374240  56.7925060
 111.5442220  38.6533560  67.4323210 111.0415820  39.3938960  67.7717020
 112.3598880  39.0417560  67.1160000 109.8364230  43.8966740  60.8784570
 108.8954370  43.9116970  61.0532260 110.1508300  43.1102700  61.3244870
  99.8145870  45.5786340  54.4388530 100.5809140  45.4667700  55.0013960
  99.8920560  44.8824310  53.7865300  98.5092630  43.0111410  55.1221420
  98.5896220  42.0638920  55.2338820  99.4012380  43.3418290  55.2282080
 111.8389810  51.0675590  62.5538830 111.9637230  51.8906760  63.0262640
 112.7055370  50.8566320  62.2062980  99.3107340  53.1606800  62.2255960
 100.0469820  52.6122260  62.4964530  99.6948260  54.0262810  62.0861950
  96.1952820  49.2280370  58.0997470  95.2692600  49.4701510  58.0902880
  96.6609250  50.0554630  57.9782220  98.3165620  52.3452870  71.4141540
  99.1178350  52.6664920  71.8276940  97.8017440  51.9848450  72.1361450
 102.4209650  52.3337110  54.0481530 103.2138260  52.6225940  53.5963320
 101.9014000  51.9029280  53.3694010 107.1530250  48.4532740  71.3616950
 106.5468410  48.4764340  70.6212700 106.8484360  47.7215780  71.8984200
 108.5830620  52.1813030  69.9726360 109.5352370  52.0971050  69.9226600
 108.4358840  52.8454740  70.6460150 111.4739820  51.5607240  55.4718270
 111.1881330  51.1472380  54.6572450 111.2759370  52.4894950  55.3518790
  96.0363430  44.8326330  70.3577590  96.5402450  44.2533610  70.9293820
  95.2970850  45.1166560  70.8953960 102.9387050  47.5540520  53.9123880
 102.8337690  46.9392870  54.6385260 102.7711270  47.0306410  53.1286890
 103.0901370  46.2397320  69.8913110 102.3247040  46.8082320  69.8067780
 103.2717330  45.9473530  68.9981340 106.1789780  46.6160550  54.5165870
 105.6299880  47.0629850  55.1608610 106.8009040  46.1109800  55.0403540
 110.2324720  47.9702650  70.4488130 110.9734190  48.3078410  69.9455590
 109.4697400  48.1394710  69.8957900  98.0686510  42.9755920  71.2527660
  98.1091850  42.6769790  72.1612890  98.9232010  43.3763530  71.0935180
 101.8464900  45.5751470  56.4131170 102.2681320  45.4091340  57.2562560
 101.9715740  44.7651700  55.9186310 100.0092320  41.5548020  69.2202150
  99.4788780  41.0638970  68.5925490 100.6780390  41.9832220  68.6860080
 104.3592540  44.5989080  53.6608270 104.8798200  43.8838100  53.2949420
 105.0060940  45.2374950  53.9608780 108.9070380  46.0217480  68.9843340
 109.3211400  46.1762560  69.8333760 107.9721380  46.1472700  69.1469120
 109.3792550  43.3613640  70.9882490 109.9613320  42.6065960  70.9002970
 109.5554320  43.8921080  70.2113970 100.4964620  38.5210390  69.2999440
 100.4021490  37.9031140  68.5750310  99.9162010  39.2476680  69.0729350
 103.2626060  37.0783630  66.3326830 102.8143360  37.1007890  65.4872380
 102.6291260  36.6802650  66.9297130 103.6685610  45.9737960  66.9539270
 104.0873720  46.8170690  66.7815510 102.7494240  46.1110000  66.7246050
 106.0049510  43.7054140  68.3377110 106.1245720  43.1095280  69.0771950
 106.8643510  43.7423830  67.9178410 108.3437410  44.2591330  66.9139620
 107.8172630  44.7833950  66.3104760 108.6868750  44.8918720  67.5449350
 100.7423800  41.6484700  53.3589330 100.5412860  40.7852060  53.7202670
 100.5715850  41.5618060  52.4210930 101.5193030  52.2790970  68.0697000
 100.9814120  53.0037030  67.7505700 101.7726990  51.8021310  67.2794340
 102.7718280  40.2475490  69.5952930 103.3617970  39.9391340  70.2830750
 101.9538520  39.7755240  69.7512830 107.5911710  39.8641300  69.8285950
 106.9027230  39.2022840  69.7635940 108.3117730  39.4179570  70.2734410
 108.2212110  36.4592930  55.8876210 108.5014400  35.6160830  56.2435630
 107.4477840  36.6916040  56.4014960  99.5406600  38.7485320  53.3467210
  99.8432500  38.7552750  52.4386360 100.2801190  38.3983180  53.8434870
 104.3755240  53.5142180  68.3283650 104.3013940  54.4177320  68.6356020
 103.4734080  53.1954080  68.3005720 102.7591530  37.6919940  54.3323410
 102.4113530  37.0143930  53.7525860 102.9604300  37.2309450  55.1466800
 104.9240570  52.6800690  55.9510010 105.8191360  53.0185660  55.9728770
 104.9558200  51.9580100  55.3234290  98.5636730  48.0527740  54.1797010
  99.0011600  48.5957410  54.8354590  99.0484460  47.2274690  54.1893350
  95.7782530  50.8416770  61.6317270  96.1085540  49.9737830  61.3995910
  96.2073530  51.0475290  62.4622230 100.3744450  49.1725780  59.2919240
 100.0739990  49.0490750  60.1923150 100.2681940  48.3134370  58.8834970
  96.2672740  51.7087360  64.3698900  95.8303730  51.8888160  65.2023050
  96.8350420  52.4661980  64.2280620 111.9034920  51.2104360  68.6576210
 111.3036910  51.2696920  67.9140130 112.0328820  50.2709340  68.7873060
 113.1436370  48.9522180  53.9945920 112.3129330  49.0198830  54.4653150
 113.3208200  49.8426300  53.6912780 112.5992830  45.6969660  56.4980120
 113.3611740  46.2666310  56.6039810 112.6147200  45.1296860  57.2688430
  96.0997170  44.2207590  60.7287780  95.4446010  43.9519230  60.0847480
  96.9375120  44.1112070  60.2789760 110.5886560  47.9356340  66.7552370
 109.7746400  48.3653500  67.0178160 110.9960760  48.5474750  66.1421420
 112.6512000  45.9904030  53.6552640 112.9260840  46.8982910  53.5271860
 112.4622740  45.9266560  54.5914630 109.0487610  39.0148880  54.9506270
 109.4672490  38.8279860  54.1102930 108.7423670  38.1627930  55.2609200
 112.5477340  43.9273020  58.6482070 112.1720940  43.1600950  58.2163360
 111.8180460  44.3095720  59.1357000  97.1373100  44.6060160  65.2691120
  97.5046140  44.5187560  66.1487140  96.5683920  43.8426710  65.1697980
 111.9376960  43.0744540  68.2821590 111.7063050  42.8457290  67.3819540
 112.1981510  43.9944090  68.2366480  96.6889100  41.5169250  69.1749540
  95.7945150  41.4836010  69.5143250  97.2286650  41.7156040  69.9400790
 110.3765030  38.3000970  71.0601290 111.2535210  38.3084370  71.4435290
 110.3885870  37.5631810  70.4493640  95.3135250  41.4306520  56.6713110
  94.4099330  41.6936720  56.4964770  95.7975870  41.7017690  55.8913070
 111.8228300  42.1530510  61.9489310 112.3465780  41.6593160  61.3179480
 112.4087720  42.2880870  62.6936880 112.0018020  42.2370380  65.4708860
 111.0520730  42.2033920  65.5853850 112.1831030  43.1470490  65.2358630
  97.8562460  40.4872060  54.5807490  98.5654160  40.0655280  54.0954770
  97.1402400  40.5547290  53.9490840  97.5036620  36.5411390  53.6210140
  98.2264750  37.0820330  53.9391360  97.7761140  36.2674810  52.7451680
 111.3128270  41.4103860  57.8881720 111.8087390  41.1774730  58.6730600
 111.1144340  40.5715700  57.4719360  97.1928810  35.7917580  63.5232760
  97.8405000  35.2414960  63.0827920  97.6130650  36.0460730  64.3448570
 111.0881150  35.9858940  66.8802400 111.7253370  36.5993080  67.2461590
 111.2356040  36.0219600  65.9351630 110.6462610  52.6874940  60.2820640
 111.2421680  52.3659510  59.6055060 110.9040760  52.2146760  61.0733910
  96.9460810  35.9473250  66.2658080  96.5975630  36.4037070  67.0316260
  96.6148510  35.0530380  66.3480510  98.5525180  49.1192850  70.4311270
  98.5094810  48.7485760  71.3125730  98.6836190  50.0570420  70.5713090
 102.2531210  50.6752440  66.0320990 102.0122570  50.9427000  65.1451510
 103.1933850  50.8458170  66.0871850 104.4585630  37.1385130  69.7877500
 104.3974520  37.7306960  70.5372910 105.3986010  37.0311090  69.6427760
 107.0960190  36.7955190  69.4269790 107.7100600  37.1134480  68.7650870
 107.6409750  36.3103780  70.0465650  97.6181450  35.4749450  69.5408850
  98.1664440  35.2937500  68.7774960  97.6836760  34.6843560  70.0765160
  98.3913210  52.0655100  67.5509050  97.7973530  51.9339800  68.2899090
  98.3837050  51.2293240  67.0851150 107.8368230  35.3587330  65.7539080
 106.9628070  35.6922440  65.5512010 107.7278980  34.8860510  66.5790950
 108.7440210  37.5658200  67.1380800 108.4153570  36.7509960  66.7582530
 109.6922510  37.5228010  67.0146490 111.1974820  53.3370240  64.1118370
 110.7377790  54.0886050  63.7376390 110.5687280  52.6176710  64.0533170
  98.0225440  49.4313480  66.5017090  97.2959500  48.8118770  66.4343040
  98.0834590  49.8254090  65.6315170 101.6270540  51.6458480  63.2866500
 102.1435560  51.0345840  62.7614760 102.2767920  52.1487260  63.7777510
 104.3666040  52.5366970  64.1135480 104.6543850  52.2821270  63.2368490
 104.8789260  51.9844330  64.7041050 105.5843050  36.2757170  64.6931990
 104.8014840  36.7502670  64.9728750 105.2905980  35.3712000  64.5845170
 110.1364120  36.9780270  62.7381080 110.5772210  36.9225370  61.8902680
 109.8671710  37.8938280  62.8091260 112.0002690  36.6095510  60.7489900
 111.9391090  35.6656730  60.6020920 112.7794720  36.7175600  61.2943360
  96.3055440  52.7487870  59.7113850  96.1377480  52.1158550  60.4095740
  95.4389950  52.9547270  59.3608040  96.9283460  36.5804650  57.2145710
  97.6862820  36.6933530  56.6409740  96.4660630  37.4173850  57.1689140
 103.4697270  38.6943920  60.2048020 102.6571780  38.3200810  59.8643900
 103.9738910  37.9389000  60.5069210 107.9722250  35.3586370  61.4431090
 108.5751620  35.9306580  61.9179610 107.2315240  35.9225810  61.2204990
 111.1156850  35.7607930  56.7171370 111.3107480  36.6591380  56.9838800
 110.3286720  35.5295010  57.2104320  97.9118140  51.4421100  57.1563990
  97.3865760  51.8229130  56.4525950  97.8362720  52.0671870  57.8773700
  99.3008610  37.1068700  55.7547680  99.8301370  36.3198500  55.6255630
  99.9336930  37.7859890  55.9883210 101.4946450  36.8443840  58.8093070
 100.8649190  36.1431150  58.9763200 100.9551590  37.6047970  58.5926230
 104.4338400  53.4583070  71.4803680 105.3605710  53.2227340  71.5239640
 104.4188830  54.2855070  70.9989710 112.6683460  53.0008640  58.4777930
 112.8435650  52.3146380  57.8338850 111.9705030  53.5255690  58.0854600
 101.6202010  36.1227820  71.2445560 101.3386280  36.6261420  70.4806380
 102.0021710  35.3249570  70.8787690 100.5111110  53.3903480  56.0313240
 101.2429930  53.1062760  55.4837130 100.7704780  53.1516760  56.9212620
  99.6725900  49.5068210  56.0359570  99.0434780  49.9753310  56.5845400
  99.7873730  48.6617430  56.4705760 108.2217470  35.5381400  71.8226030
 108.1082920  35.8576010  72.7177550 109.0387210  35.9393910  71.5263310
 111.0015960  52.6852930  71.3044720 111.7941280  52.1902160  71.0970680
 111.2949110  53.3643070  71.9120330 107.1275620  43.5573870  42.1860770
 107.0469670  42.6428480  41.9152480 106.7140040  44.0540940  41.4800480
 105.2593660  45.3352890  44.0670040 104.4835760  44.8553330  44.3568610
 105.9106590  44.6558540  43.8926200  99.2759490  45.6472700  44.9445800
  98.4444370  45.3921410  45.3442310  99.8840470  45.7183470  45.6803720
 109.2801090  49.7413080  42.8469170 108.8182620  48.9700320  43.1756340
 110.0926640  49.7679150  43.3521620  99.2560750  49.6812790  45.1403820
  99.5588790  48.7910530  44.9614040 100.0004340  50.2383010  44.9126070
  97.6851440  40.6074590  38.7288190  96.7968140  40.9490560  38.6268070
  97.9692630  40.4074910  37.8369020  95.6484450  43.2080240  44.6127890
  96.2200560  42.4402440  44.6131530  95.6485990  43.5069000  43.7034500
 105.5064400  52.0271090  42.4673160 104.8875840  52.4828590  41.8967600
 106.3616180  52.1822550  42.0662860 104.7002650  48.0110080  44.0740200
 104.6310930  47.0700020  43.9129330 105.4622510  48.1011490  44.6462770
  96.8909320  38.6164600  46.3996820  96.7112160  37.7190350  46.6799580
  96.4889400  39.1636470  47.0743770 105.7307820  40.8180460  44.3009130
 106.1072640  39.9452340  44.1882800 105.6327330  41.1539160  43.4099570
  99.8612830  39.1906090  39.7626570  99.9679580  40.0909820  40.0695330
  98.9505190  39.1424060  39.4721220 109.5131940  38.3130900  41.2337470
 110.3341560  37.8227470  41.2762950 109.5466020  38.9028560  41.9869310
  97.5095990  41.1125100  45.0079160  98.1906100  41.3763470  45.6266560
  97.1944040  40.2725970  45.3417170 101.7020560  42.1592460  44.0951750
 102.2098780  42.6573430  44.7356770 102.2333800  41.3827660  43.9191110
  99.9856660  36.7991020  48.3615170  99.9875100  37.3163410  47.5561070
  99.1560970  36.3221200  48.3385100 106.3727750  46.9110330  39.8605070
 105.7545020  47.3759780  39.2967790 106.8851000  47.6037810  40.2774580
 101.2359510  46.4386200  46.5388670 100.9028890  47.0655120  47.1809740
 101.4126190  46.9648080  45.7590340 109.7493420  40.2531280  44.0065010
 109.0448990  40.5416170  44.5868120 110.1105580  41.0631390  43.6464570
  99.6671990  38.5100980  46.3685620 100.0088800  39.3543030  46.0739490
  98.7287800  38.6584720  46.4850960 100.4478610  48.4067000  48.3537850
 101.0652610  49.0818080  48.0722300  99.5871730  48.8154980  48.2625350
  95.7410950  47.5966860  37.2344700  95.3638930  48.0853960  36.5029600
  95.9984020  48.2692140  37.8651230 111.3656200  49.8706410  46.2692490
 110.6819720  50.5405520  46.2609160 111.9050490  50.0687060  45.5037350
 112.8180340  39.6986070  44.3974220 111.8705250  39.7325050  44.5289650
 113.1430330  40.5125020  44.7823580 103.3499880  35.9983250  42.6930210
 103.6574860  35.4430140  41.9765710 102.4200580  36.1327710  42.5103200
 108.9014940  51.7150540  44.9837670 108.9142100  51.3112830  44.1159930
 108.3490160  52.4897830  44.8799100 110.1960360  48.4366760  40.0727840
 110.0856690  47.4941090  40.1977260 110.1928610  48.7982400  40.9590600
 108.3000380  46.6180380  46.3120280 108.7169170  46.4040490  45.4773740
 109.0240200  46.8753170  46.8828900 105.7380640  44.0632080  39.4290330
 104.8109920  43.9969460  39.6578800 105.8905460  45.0012210  39.3145570
 105.7249720  40.3349080  36.4257490 104.7853390  40.4963040  36.5109950
 106.0432980  41.0534760  35.8793480 112.2462480  45.0167600  46.4036520
 111.4181110  45.0860690  45.9286650 112.8412960  45.6021910  45.9352350
 109.7677930  45.6252380  39.9325580 109.1490350  45.2871930  39.2851880
 109.7502380  44.9812140  40.6404770 109.2104490  41.8036920  47.3491390
 108.7975670  42.6290630  47.6031380 108.4780440  41.2181960  47.1567750
 101.3437280  44.5896820  42.2110060 100.9394280  43.8774070  41.7155960
 101.4300400  44.2450060  43.0998100 101.8118980  48.2764380  44.3749270
 101.5147270  47.6709850  43.6957050 102.7618800  48.3141690  44.2638630
 100.0565900  41.3640030  45.9909100 100.6080490  41.4735370  45.2162350
 100.5709410  41.7377630  46.7064330 109.9004590  51.8496250  48.0372370
 109.4235150  52.6568440  47.8444980 109.2166380  51.1974580  48.1898580
 100.9037410  48.0146070  51.0257070 100.0065940  48.2386040  51.2730470
 100.9290280  48.1381010  50.0768470 107.9442630  44.8639190  36.9398330
 108.3835910  44.0261620  36.7936150 108.6571050  45.4968590  37.0262470
  99.7308630  44.8859390  49.6014440  99.5916400  45.7582190  49.9701840
  98.8489990  44.5432200  49.4562380 106.0538010  49.8035260  40.9079570
 106.4933920  50.5459590  40.4934960 105.9924900  50.0461830  41.8318530
 101.5288980  50.8281090  51.8099590 101.5004410  51.2324040  50.9428020
 101.3653950  49.8991450  51.6471190 111.5259770  36.1182000  35.2539370
 111.2132430  36.2108830  36.1538440 112.2872240  36.6963030  35.2036800
  98.0441910  43.4841800  39.7116710  97.9239510  44.2103890  39.0997980
  97.7342800  42.7144710  39.2344620  95.6827280  46.6556940  45.5185350
  95.7607700  46.7905710  44.5741070  96.2968960  45.9472830  45.7113470
  96.9274910  48.3557130  41.9291530  96.5202990  48.4971720  41.0745130
  97.8187920  48.0717290  41.7262740 112.8837050  48.8021040  50.2663770
 113.0100110  48.5632920  49.3480950 112.9258430  47.9705580  50.7385850
 106.7453790  52.5049040  48.8358580 107.2598460  52.4157050  49.6381010
 105.9022870  52.8508740  49.1286490 108.7208190  52.7904380  38.2642580
 108.5609330  52.5007320  39.1624410 108.5554900  52.0144510  37.7287810
 101.1996570  52.5702910  40.0414200 101.0239050  51.6538450  39.8282000
 100.3452310  52.9290200  40.2812000 108.4234320  50.2991940  36.8240580
 107.7299480  50.2969230  36.1642860 109.1657180  49.8751260  36.3934750
 107.9884250  51.9254650  40.8989070 108.4441200  51.1444030  41.2127690
 108.3276770  52.6361470  41.4430250 112.7361060  40.8553500  51.2313510
 112.1205330  41.3633170  50.7028970 112.4157480  39.9551830  51.1739450
  95.7386800  47.6971110  48.0579810  95.9017840  47.2276470  47.2399180
  96.2039250  47.1894670  48.7228650 100.5105570  36.8276870  43.0940380
 100.0673720  37.6086410  42.7624900 101.0690560  37.1506760  43.8011320
 104.7975380  39.6945390  48.6975700 104.3354750  39.9028410  49.5095640
 104.3953490  38.8804740  48.3946370 109.7979890  40.9154340  49.8272360
 108.9473480  40.6160090  50.1481430 109.6381680  41.1596350  48.9156180
 106.8929600  42.4156090  51.9271150 107.2183010  41.5819840  51.5873380
 107.6809930  42.9384610  52.0749480 103.6264390  36.4487570  37.9746210
 103.0018570  36.4447440  38.6999520 103.5394510  35.5818530  37.5782180
 102.5481470  37.3724200  44.9529980 102.8453800  38.2787030  44.8722000
 103.0967030  36.8842980  44.3389550 100.3019790  41.9510440  40.8221630
 100.0760710  41.7347610  41.7268250  99.5212320  42.3838900  40.4767600
 107.5317550  41.9573810  39.4212280 106.9326440  42.6809610  39.2375900
 108.0797160  41.8950590  38.6388730 102.7419000  42.8496020  51.4881900
 102.6462600  41.9090750  51.3382300 103.5850980  43.0711090  51.0929970
 106.1382420  40.5937350  41.4515560 106.5311990  40.9109550  40.6384250
 106.4999270  39.7149230  41.5660080  97.8729540  39.2609690  49.6415680
  97.4792930  40.1084900  49.8488460  97.1847940  38.6236060  49.8324320
 104.4474590  39.3444660  52.7112420 103.7572910  39.1516860  53.3458510
 105.1906890  39.6279300  53.2436720  95.1746590  37.1838150  43.6745760
  94.8859640  37.7541010  44.3870740  95.9192350  36.7042600  44.0376990
  95.3616820  41.1258270  34.8848480  95.2791490  42.0689030  35.0263470
  95.0099880  40.9833180  34.0060830 106.7237560  43.1843100  45.5466340
 105.9918680  43.6929910  45.8956440 106.3261900  42.3673080  45.2455120
 103.1614950  39.8597300  43.9518830 103.1651010  39.4187250  43.1023370
 104.0566070  40.1814630  44.0590650  99.0117330  39.7423790  42.9113040
  98.6717380  40.2199020  43.6680090  98.2494650  39.2888910  42.5514140
 103.2235100  40.8609380  36.9425590 103.3447920  40.8195860  37.8911410
 102.8383610  41.7233530  36.7872320 107.1863470  38.6376780  44.9589280
 107.2036210  39.0885430  45.8031130 106.9379050  37.7382420  45.1722720
 102.2356600  43.1710520  36.3408890 101.6673500  42.7228770  35.7144800
 102.9445600  43.5303300  35.8074040 110.6134220  36.0508960  50.7975660
 110.9379990  35.3198620  51.3233640 110.6490730  35.7322600  49.8956650
  97.3125780  47.0722540  50.2175620  96.9280570  46.4316210  50.8158580
  97.6237970  47.7758660  50.7870350 103.4622920  43.9199080  45.6984240
 103.8293050  43.4457650  46.4445580 103.2727980  44.7940650  46.0392580
  96.3263410  38.6642770  41.8277710  96.0410330  38.2998440  42.6656330
  96.2642270  37.9323230  41.2140850 101.2522290  42.9607720  48.0168450
 100.9479360  43.8399700  48.2418810 102.2068750  43.0207510  48.0525890
  99.7804080  47.1668710  38.6135300  99.0066340  46.6266330  38.4534020
 100.5098710  46.6475320  38.2753060 110.5392060  46.1634070  44.4061690
 111.2591180  46.6589360  44.0157800 110.3373880  45.4851960  43.7615560
 106.0002000  37.5572030  38.5491080 105.1866610  37.0585200  38.4736390
 105.8063950  38.3970280  38.1327430 105.9210860  46.2343130  50.2930690
 105.8548170  45.3138800  50.0388280 105.2916000  46.3318570  51.0075330
 108.7150390  41.9291680  36.8453240 109.6030010  42.2408910  36.6704580
 108.6855480  41.0563930  36.4533820  99.8241480  46.8349090  42.2514110
 100.3420150  46.0317350  42.1971000  99.3725500  46.7728230  43.0930940
 104.7110980  48.1015370  37.5241410 105.0526680  48.8457600  37.0284730
 103.8823690  48.4146490  37.8866240  97.3086020  43.8010460  49.1639810
  96.9500960  44.4664310  49.7513150  97.0140580  42.9694010  49.5352430
 100.5099140  44.2594700  52.0479360 100.2099280  44.4051880  51.1507180
 101.2810380  43.6999990  51.9552750 105.8527590  49.0563700  50.0434490
 105.8672130  48.1244660  49.8253400 105.1452690  49.1423460  50.6824260
 110.9864660  43.2403520  36.3133100 110.9028380  43.6717740  35.4629540
 111.7058850  43.7001870  36.7459920 112.0638800  45.6971040  49.3903070
 111.3386990  46.2899820  49.1932460 112.5914260  45.6894580  48.5916440
 112.0151910  50.0945780  39.0415230 111.3728070  49.4401400  39.3158950
 111.6282570  50.5000870  38.2655900 107.5938390  47.4231210  42.8886920
 107.9462210  46.8259340  42.2288290 106.7100720  47.0975440  43.0595170
 103.6801670  48.1828900  40.2957330 104.3672800  48.7298110  40.6764920
 102.8934090  48.7269630  40.3306940  95.8194070  43.8001720  35.7874410
  96.6888920  44.0826520  36.0710330  95.3284390  44.6137590  35.6723220
 102.9828880  45.1874930  39.9082690 103.4391660  45.9980180  40.1342880
 102.6317090  44.8698070  40.7401180 105.2861490  50.6981270  47.1374990
 105.9303710  50.9040650  47.8148410 105.6490930  49.9369670  46.6845840
  98.8840660  35.5312580  40.3805210  98.7555290  35.5230480  41.3290130
  98.0602680  35.8695670  40.0296220 106.5593570  48.7013620  45.8552440
 107.2015800  48.0006780  45.9684610 107.0842920  49.4812060  45.6749330
 110.4049290  48.9862240  35.5791580 110.1786870  48.2692680  36.1716220
 110.0145490  48.7374680  34.7413330 108.3331190  49.5008520  49.0588500
 108.6687430  50.0875210  49.7366420 107.4131530  49.3701230  49.2886290
  96.1865320  53.0129100  36.3536040  96.5462960  53.6118440  35.6993310
  96.0457660  53.5588990  37.1271070  95.8834590  37.2903700  49.8411910
  95.1693110  37.4900620  50.4464520  96.3029630  36.5143270  50.2126710
 109.9865540  46.9034180  37.2405740 109.6987240  47.3646870  38.0283620
 110.7817710  46.4431950  37.5089960  96.1707180  51.2783960  50.8278440
  96.2798300  50.3378700  50.6873830  95.5187740  51.5438710  50.1792170
 104.1619770  49.5499850  52.2276560 103.8416640  48.8309090  52.7722250
 103.4878130  50.2254920  52.3012620 102.2033940  50.3960300  37.1709710
 102.1944040  51.1289990  36.5554220 101.2832300  50.1491880  37.2636670
  97.8040580  45.6175190  37.9156470  97.1968530  46.3574090  37.9251770
  98.2789930  45.7074550  37.0894670 107.3773370  39.7826010  47.5913360
 107.7454190  38.9621220  47.9192930 106.5171570  39.8427900  48.0069010
 110.7435400  38.7382950  38.4000920 110.1148560  38.8428620  37.6859150
 110.2487320  38.9579730  39.1894800 105.1893540  50.4588540  35.8334900
 105.2905520  50.2552530  34.9036880 104.2895280  50.2046820  36.0382680
 102.7119430  41.0168900  39.8158800 102.0035580  41.4855240  40.2572410
 102.9963910  40.3590910  40.4503990 104.3375360  42.4365600  47.8151330
 104.8360610  42.9111420  48.4803180 104.4798310  41.5129120  48.0221360
 106.7434860  37.7419560  41.2554590 106.6202640  37.7605690  40.3064100
 107.6919420  37.7898500  41.3752990 103.8311650  52.9774860  40.5282570
 104.0853150  52.9396250  39.6061940 102.8824130  52.8508190  40.5210820
 100.9154450  39.3253980  37.1909510 101.7644980  39.7624130  37.1249700
 100.5485720  39.6374240  38.0181570 111.5442220  38.6533560  48.6579720
 111.0415820  39.3938960  48.9973530 112.3598880  39.0417560  48.3416510
 109.8364230  43.8966740  42.1041080 108.8954370  43.9116970  42.2788770
 110.1508300  43.1102700  42.5501380  99.8145870  45.5786340  35.6645040
 100.5809140  45.4667700  36.2270470  99.8920560  44.8824310  35.0121810
  98.5092630  43.0111410  36.3477930  98.5896220  42.0638920  36.4595330
  99.4012380  43.3418290  36.4538590 111.8389810  51.0675590  43.7795340
 111.9637230  51.8906760  44.2519150 112.7055370  50.8566320  43.4319490
  99.3107340  53.1606800  43.4512470 100.0469820  52.6122260  43.7221040
  99.6948260  54.0262810  43.3118460  96.1952820  49.2280370  39.3253980
  95.2692600  49.4701510  39.3159390  96.6609250  50.0554630  39.2038730
  98.3165620  52.3452870  52.6398050  99.1178350  52.6664920  53.0533450
  97.8017440  51.9848450  53.3617960 102.4209650  52.3337110  35.2738040
 103.2138260  52.6225940  34.8219830 101.9014000  51.9029280  34.5950520
 107.1530250  48.4532740  52.5873460 106.5468410  48.4764340  51.8469210
 106.8484360  47.7215780  53.1240710 108.5830620  52.1813030  51.1982870
 109.5352370  52.0971050  51.1483110 108.4358840  52.8454740  51.8716660
 111.4739820  51.5607240  36.6974780 111.1881330  51.1472380  35.8828960
 111.2759370  52.4894950  36.5775300  96.0363430  44.8326330  51.5834100
  96.5402450  44.2533610  52.1550330  95.2970850  45.1166560  52.1210470
 102.9387050  47.5540520  35.1380390 102.8337690  46.9392870  35.8641770
 102.7711270  47.0306410  34.3543400 103.0901370  46.2397320  51.1169620
 102.3247040  46.8082320  51.0324290 103.2717330  45.9473530  50.2237850
 106.1789780  46.6160550  35.7422380 105.6299880  47.0629850  36.3865120
 106.8009040  46.1109800  36.2660050 110.2324720  47.9702650  51.6744640
 110.9734190  48.3078410  51.1712100 109.4697400  48.1394710  51.1214410
  98.0686510  42.9755920  52.4784170  98.1091850  42.6769790  53.3869400
  98.9232010  43.3763530  52.3191690 101.8464900  45.5751470  37.6387680
 102.2681320  45.4091340  38.4819070 101.9715740  44.7651700  37.1442820
 100.0092320  41.5548020  50.4458660  99.4788780  41.0638970  49.8182000
 100.6780390  41.9832220  49.9116590 104.3592540  44.5989080  34.8864780
 104.8798200  43.8838100  34.5205930 105.0060940  45.2374950  35.1865290
 108.9070380  46.0217480  50.2099850 109.3211400  46.1762560  51.0590270
 107.9721380  46.1472700  50.3725630 109.3792550  43.3613640  52.2139000
 109.9613320  42.6065960  52.1259480 109.5554320  43.8921080  51.4370480
 100.4964620  38.5210390  50.5255950 100.4021490  37.9031140  49.8006820
  99.9162010  39.2476680  50.2985860 103.2626060  37.0783630  47.5583340
 102.8143360  37.1007890  46.7128890 102.6291260  36.6802650  48.1553640
 103.6685610  45.9737960  48.1795780 104.0873720  46.8170690  48.0072020
 102.7494240  46.1110000  47.9502560 106.0049510  43.7054140  49.5633620
 106.1245720  43.1095280  50.3028460 106.8643510  43.7423830  49.1434920
 108.3437410  44.2591330  48.1396130 107.8172630  44.7833950  47.5361270
 108.6868750  44.8918720  48.7705860 100.7423800  41.6484700  34.5845840
 100.5412860  40.7852060  34.9459180 100.5715850  41.5618060  33.6467440
 101.5193030  52.2790970  49.2953510 100.9814120  53.0037030  48.9762210
 101.7726990  51.8021310  48.5050850 102.7718280  40.2475490  50.8209440
 103.3617970  39.9391340  51.5087260 101.9538520  39.7755240  50.9769340
 107.5911710  39.8641300  51.0542460 106.9027230  39.2022840  50.9892450
 108.3117730  39.4179570  51.4990920 108.2212110  36.4592930  37.1132720
 108.5014400  35.6160830  37.4692140 107.4477840  36.6916040  37.6271470
  99.5406600  38.7485320  34.5723720  99.8432500  38.7552750  33.6642870
 100.2801190  38.3983180  35.0691380 104.3755240  53.5142180  49.5540160
 104.3013940  54.4177320  49.8612530 103.4734080  53.1954080  49.5262230
 102.7591530  37.6919940  35.5579920 102.4113530  37.0143930  34.9782370
 102.9604300  37.2309450  36.3723310 104.9240570  52.6800690  37.1766520
 105.8191360  53.0185660  37.1985280 104.9558200  51.9580100  36.5490800
  98.5636730  48.0527740  35.4053520  99.0011600  48.5957410  36.0611100
  99.0484460  47.2274690  35.4149860  95.7782530  50.8416770  42.8573780
  96.1085540  49.9737830  42.6252420  96.2073530  51.0475290  43.6878740
 100.3744450  49.1725780  40.5175750 100.0739990  49.0490750  41.4179660
 100.2681940  48.3134370  40.1091480  96.2672740  51.7087360  45.5955410
  95.8303730  51.8888160  46.4279560  96.8350420  52.4661980  45.4537130
 111.9034920  51.2104360  49.8832720 111.3036910  51.2696920  49.1396640
 112.0328820  50.2709340  50.0129570 113.1436370  48.9522180  35.2202430
 112.3129330  49.0198830  35.6909660 113.3208200  49.8426300  34.9169290
 112.5992830  45.6969660  37.7236630 113.3611740  46.2666310  37.8296320
 112.6147200  45.1296860  38.4944940  96.0997170  44.2207590  41.9544290
  95.4446010  43.9519230  41.3103990  96.9375120  44.1112070  41.5046270
 110.5886560  47.9356340  47.9808880 109.7746400  48.3653500  48.2434670
 110.9960760  48.5474750  47.3677930 112.6512000  45.9904030  34.8809150
 112.9260840  46.8982910  34.7528370 112.4622740  45.9266560  35.8171140
 109.0487610  39.0148880  36.1762780 109.4672490  38.8279860  35.3359440
 108.7423670  38.1627930  36.4865710 112.5477340  43.9273020  39.8738580
 112.1720940  43.1600950  39.4419870 111.8180460  44.3095720  40.3613510
  97.1373100  44.6060160  46.4947630  97.5046140  44.5187560  47.3743650
  96.5683920  43.8426710  46.3954490 111.9376960  43.0744540  49.5078100
 111.7063050  42.8457290  48.6076050 112.1981510  43.9944090  49.4622990
  96.6889100  41.5169250  50.4006050  95.7945150  41.4836010  50.7399760
  97.2286650  41.7156040  51.1657300 110.3765030  38.3000970  52.2857800
 111.2535210  38.3084370  52.6691800 110.3885870  37.5631810  51.6750150
  95.3135250  41.4306520  37.8969620  94.4099330  41.6936720  37.7221280
  95.7975870  41.7017690  37.1169580 111.8228300  42.1530510  43.1745820
 112.3465780  41.6593160  42.5435990 112.4087720  42.2880870  43.9193390
 112.0018020  42.2370380  46.6965370 111.0520730  42.2033920  46.8110360
 112.1831030  43.1470490  46.4615140  97.8562460  40.4872060  35.8064000
  98.5654160  40.0655280  35.3211280  97.1402400  40.5547290  35.1747350
  97.5036620  36.5411390  34.8466650  98.2264750  37.0820330  35.1647870
  97.7761140  36.2674810  33.9708190 111.3128270  41.4103860  39.1138230
 111.8087390  41.1774730  39.8987110 111.1144340  40.5715700  38.6975870
  97.1928810  35.7917580  44.7489270  97.8405000  35.2414960  44.3084430
  97.6130650  36.0460730  45.5705080 111.0881150  35.9858940  48.1058910
 111.7253370  36.5993080  48.4718100 111.2356040  36.0219600  47.1608140
 110.6462610  52.6874940  41.5077150 111.2421680  52.3659510  40.8311570
 110.9040760  52.2146760  42.2990420  96.9460810  35.9473250  47.4914590
  96.5975630  36.4037070  48.2572770  96.6148510  35.0530380  47.5737020
  98.5525180  49.1192850  51.6567780  98.5094810  48.7485760  52.5382240
  98.6836190  50.0570420  51.7969600 102.2531210  50.6752440  47.2577500
 102.0122570  50.9427000  46.3708020 103.1933850  50.8458170  47.3128360
 104.4585630  37.1385130  51.0134010 104.3974520  37.7306960  51.7629420
 105.3986010  37.0311090  50.8684270 107.0960190  36.7955190  50.6526300
 107.7100600  37.1134480  49.9907380 107.6409750  36.3103780  51.2722160
  97.6181450  35.4749450  50.7665360  98.1664440  35.2937500  50.0031470
  97.6836760  34.6843560  51.3021670  98.3913210  52.0655100  48.7765560
  97.7973530  51.9339800  49.5155600  98.3837050  51.2293240  48.3107660
 107.8368230  35.3587330  46.9795590 106.9628070  35.6922440  46.7768520
 107.7278980  34.8860510  47.8047460 108.7440210  37.5658200  48.3637310
 108.4153570  36.7509960  47.9839040 109.6922510  37.5228010  48.2403000
 111.1974820  53.3370240  45.3374880 110.7377790  54.0886050  44.9632900
 110.5687280  52.6176710  45.2789680  98.0225440  49.4313480  47.7273600
  97.2959500  48.8118770  47.6599550  98.0834590  49.8254090  46.8571680
 101.6270540  51.6458480  44.5123010 102.1435560  51.0345840  43.9871270
 102.2767920  52.1487260  45.0034020 104.3666040  52.5366970  45.3391990
 104.6543850  52.2821270  44.4625000 104.8789260  51.9844330  45.9297560
 105.5843050  36.2757170  45.9188500 104.8014840  36.7502670  46.1985260
 105.2905980  35.3712000  45.8101680 110.1364120  36.9780270  43.9637590
 110.5772210  36.9225370  43.1159190 109.8671710  37.8938280  44.0347770
 112.0002690  36.6095510  41.9746410 111.9391090  35.6656730  41.8277430
 112.7794720  36.7175600  42.5199870  96.3055440  52.7487870  40.9370360
  96.1377480  52.1158550  41.6352250  95.4389950  52.9547270  40.5864550
  96.9283460  36.5804650  38.4402220  97.6862820  36.6933530  37.8666250
  96.4660630  37.4173850  38.3945650 103.4697270  38.6943920  41.4304530
 102.6571780  38.3200810  41.0900410 103.9738910  37.9389000  41.7325720
 107.9722250  35.3586370  42.6687600 108.5751620  35.9306580  43.1436120
 107.2315240  35.9225810  42.4461500 111.1156850  35.7607930  37.9427880
 111.3107480  36.6591380  38.2095310 110.3286720  35.5295010  38.4360830
  97.9118140  51.4421100  38.3820500  97.3865760  51.8229130  37.6782460
  97.8362720  52.0671870  39.1030210  99.3008610  37.1068700  36.9804190
  99.8301370  36.3198500  36.8512140  99.9336930  37.7859890  37.2139720
 101.4946450  36.8443840  40.0349580 100.8649190  36.1431150  40.2019710
 100.9551590  37.6047970  39.8182740 104.4338400  53.4583070  52.7060190
 105.3605710  53.2227340  52.7496150 104.4188830  54.2855070  52.2246220
 112.6683460  53.0008640  39.7034440 112.8435650  52.3146380  39.0595360
 111.9705030  53.5255690  39.3111110 101.6202010  36.1227820  52.4702070
 101.3386280  36.6261420  51.7062890 102.0021710  35.3249570  52.1044200
 100.5111110  53.3903480  37.2569750 101.2429930  53.1062760  36.7093640
 100.7704780  53.1516760  38.1469130  99.6725900  49.5068210  37.2616080
  99.0434780  49.9753310  37.8101910  99.7873730  48.6617430  37.6962270
 108.2217470  35.5381400  53.0482540 108.1082920  35.8576010  53.9434060
 109.0387210  35.9393910  52.7519820 111.0015960  52.6852930  52.5301230
 111.7941280  52.1902160  52.3227190 111.2949110  53.3643070  53.1376840
 107.1275620  43.5573870  23.4117280 107.0469670  42.6428480  23.1408990
 106.7140040  44.0540940  22.7056990 105.2593660  45.3352890  25.2926550
 104.4835760  44.8553330  25.5825120 105.9106590  44.6558540  25.1182710
  99.2759490  45.6472700  26.1702310  98.4444370  45.3921410  26.5698820
  99.8840470  45.7183470  26.9060230 109.2801090  49.7413080  24.0725680
 108.8182620  48.9700320  24.4012850 110.0926640  49.7679150  24.5778130
  99.2560750  49.6812790  26.3660330  99.5588790  48.7910530  26.1870550
 100.0004340  50.2383010  26.1382580  97.6851440  40.6074590  19.9544700
  96.7968140  40.9490560  19.8524580  97.9692630  40.4074910  19.0625530
  95.6484450  43.2080240  25.8384400  96.2200560  42.4402440  25.8388040
  95.6485990  43.5069000  24.9291010 105.5064400  52.0271090  23.6929670
 104.8875840  52.4828590  23.1224110 106.3616180  52.1822550  23.2919370
 104.7002650  48.0110080  25.2996710 104.6310930  47.0700020  25.1385840
 105.4622510  48.1011490  25.8719280  96.8909320  38.6164600  27.6253330
  96.7112160  37.7190350  27.9056090  96.4889400  39.1636470  28.3000280
 105.7307820  40.8180460  25.5265640 106.1072640  39.9452340  25.4139310
 105.6327330  41.1539160  24.6356080  99.8612830  39.1906090  20.9883080
  99.9679580  40.0909820  21.2951840  98.9505190  39.1424060  20.6977730
 109.5131940  38.3130900  22.4593980 110.3341560  37.8227470  22.5019460
 109.5466020  38.9028560  23.2125820  97.5095990  41.1125100  26.2335670
  98.1906100  41.3763470  26.8523070  97.1944040  40.2725970  26.5673680
 101.7020560  42.1592460  25.3208260 102.2098780  42.6573430  25.9613280
 102.2333800  41.3827660  25.1447620  99.9856660  36.7991020  29.5871680
  99.9875100  37.3163410  28.7817580  99.1560970  36.3221200  29.5641610
 106.3727750  46.9110330  21.0861580 105.7545020  47.3759780  20.5224300
 106.8851000  47.6037810  21.5031090 101.2359510  46.4386200  27.7645180
 100.9028890  47.0655120  28.4066250 101.4126190  46.9648080  26.9846850
 109.7493420  40.2531280  25.2321520 109.0448990  40.5416170  25.8124630
 110.1105580  41.0631390  24.8721080  99.6671990  38.5100980  27.5942130
 100.0088800  39.3543030  27.2996000  98.7287800  38.6584720  27.7107470
 100.4478610  48.4067000  29.5794360 101.0652610  49.0818080  29.2978810
  99.5871730  48.8154980  29.4881860  95.7410950  47.5966860  18.4601210
  95.3638930  48.0853960  17.7286110  95.9984020  48.2692140  19.0907740
 111.3656200  49.8706410  27.4949000 110.6819720  50.5405520  27.4865670
 111.9050490  50.0687060  26.7293860 112.8180340  39.6986070  25.6230730
 111.8705250  39.7325050  25.7546160 113.1430330  40.5125020  26.0080090
 103.3499880  35.9983250  23.9186720 103.6574860  35.4430140  23.2022220
 102.4200580  36.1327710  23.7359710 108.9014940  51.7150540  26.2094180
 108.9142100  51.3112830  25.3416440 108.3490160  52.4897830  26.1055610
 110.1960360  48.4366760  21.2984350 110.0856690  47.4941090  21.4233770
 110.1928610  48.7982400  22.1847110 108.3000380  46.6180380  27.5376790
 108.7169170  46.4040490  26.7030250 109.0240200  46.8753170  28.1085410
 105.7380640  44.0632080  20.6546840 104.8109920  43.9969460  20.8835310
 105.8905460  45.0012210  20.5402080 105.7249720  40.3349080  17.6514000
 104.7853390  40.4963040  17.7366460 106.0432980  41.0534760  17.1049990
 112.2462480  45.0167600  27.6293030 111.4181110  45.0860690  27.1543160
 112.8412960  45.6021910  27.1608860 109.7677930  45.6252380  21.1582090
 109.1490350  45.2871930  20.5108390 109.7502380  44.9812140  21.8661280
 109.2104490  41.8036920  28.5747900 108.7975670  42.6290630  28.8287890
 108.4780440  41.2181960  28.3824260 101.3437280  44.5896820  23.4366570
 100.9394280  43.8774070  22.9412470 101.4300400  44.2450060  24.3254610
 101.8118980  48.2764380  25.6005780 101.5147270  47.6709850  24.9213560
 102.7618800  48.3141690  25.4895140 100.0565900  41.3640030  27.2165610
 100.6080490  41.4735370  26.4418860 100.5709410  41.7377630  27.9320840
 109.9004590  51.8496250  29.2628880 109.4235150  52.6568440  29.0701490
 109.2166380  51.1974580  29.4155090 100.9037410  48.0146070  32.2513580
 100.0065940  48.2386040  32.4986980 100.9290280  48.1381010  31.3024980
 107.9442630  44.8639190  18.1654840 108.3835910  44.0261620  18.0192660
 108.6571050  45.4968590  18.2518980  99.7308630  44.8859390  30.8270950
  99.5916400  45.7582190  31.1958350  98.8489990  44.5432200  30.6818890
 106.0538010  49.8035260  22.1336080 106.4933920  50.5459590  21.7191470
 105.9924900  50.0461830  23.0575040 101.5288980  50.8281090  33.0356100
 101.5004410  51.2324040  32.1684530 101.3653950  49.8991450  32.8727700
 111.5259770  36.1182000  16.4795880 111.2132430  36.2108830  17.3794950
 112.2872240  36.6963030  16.4293310  98.0441910  43.4841800  20.9373220
  97.9239510  44.2103890  20.3254490  97.7342800  42.7144710  20.4601130
  95.6827280  46.6556940  26.7441860  95.7607700  46.7905710  25.7997580
  96.2968960  45.9472830  26.9369980  96.9274910  48.3557130  23.1548040
  96.5202990  48.4971720  22.3001640  97.8187920  48.0717290  22.9519250
 112.8837050  48.8021040  31.4920280 113.0100110  48.5632920  30.5737460
 112.9258430  47.9705580  31.9642360 106.7453790  52.5049040  30.0615090
 107.2598460  52.4157050  30.8637520 105.9022870  52.8508740  30.3543000
 108.7208190  52.7904380  19.4899090 108.5609330  52.5007320  20.3880920
 108.5554900  52.0144510  18.9544320 101.1996570  52.5702910  21.2670710
 101.0239050  51.6538450  21.0538510 100.3452310  52.9290200  21.5068510
 108.4234320  50.2991940  18.0497090 107.7299480  50.2969230  17.3899370
 109.1657180  49.8751260  17.6191260 107.9884250  51.9254650  22.1245580
 108.4441200  51.1444030  22.4384200 108.3276770  52.6361470  22.6686760
 112.7361060  40.8553500  32.4570020 112.1205330  41.3633170  31.9285480
 112.4157480  39.9551830  32.3995960  95.7386800  47.6971110  29.2836320
  95.9017840  47.2276470  28.4655690  96.2039250  47.1894670  29.9485160
 100.5105570  36.8276870  24.3196890 100.0673720  37.6086410  23.9881410
 101.0690560  37.1506760  25.0267830 104.7975380  39.6945390  29.9232210
 104.3354750  39.9028410  30.7352150 104.3953490  38.8804740  29.6202880
 109.7979890  40.9154340  31.0528870 108.9473480  40.6160090  31.3737940
 109.6381680  41.1596350  30.1412690 106.8929600  42.4156090  33.1527660
 107.2183010  41.5819840  32.8129890 107.6809930  42.9384610  33.3005990
 103.6264390  36.4487570  19.2002720 103.0018570  36.4447440  19.9256030
 103.5394510  35.5818530  18.8038690 102.5481470  37.3724200  26.1786490
 102.8453800  38.2787030  26.0978510 103.0967030  36.8842980  25.5646060
 100.3019790  41.9510440  22.0478140 100.0760710  41.7347610  22.9524760
  99.5212320  42.3838900  21.7024110 107.5317550  41.9573810  20.6468790
 106.9326440  42.6809610  20.4632410 108.0797160  41.8950590  19.8645240
 102.7419000  42.8496020  32.7138410 102.6462600  41.9090750  32.5638810
 103.5850980  43.0711090  32.3186480 106.1382420  40.5937350  22.6772070
 106.5311990  40.9109550  21.8640760 106.4999270  39.7149230  22.7916590
  97.8729540  39.2609690  30.8672190  97.4792930  40.1084900  31.0744970
  97.1847940  38.6236060  31.0580830 104.4474590  39.3444660  33.9368930
 103.7572910  39.1516860  34.5715020 105.1906890  39.6279300  34.4693230
  95.1746590  37.1838150  24.9002270  94.8859640  37.7541010  25.6127250
  95.9192350  36.7042600  25.2633500  95.3616820  41.1258270  16.1104990
  95.2791490  42.0689030  16.2519980  95.0099880  40.9833180  15.2317340
 106.7237560  43.1843100  26.7722850 105.9918680  43.6929910  27.1212950
 106.3261900  42.3673080  26.4711630 103.1614950  39.8597300  25.1775340
 103.1651010  39.4187250  24.3279880 104.0566070  40.1814630  25.2847160
  99.0117330  39.7423790  24.1369550  98.6717380  40.2199020  24.8936600
  98.2494650  39.2888910  23.7770650 103.2235100  40.8609380  18.1682100
 103.3447920  40.8195860  19.1167920 102.8383610  41.7233530  18.0128830
 107.1863470  38.6376780  26.1845790 107.2036210  39.0885430  27.0287640
 106.9379050  37.7382420  26.3979230 102.2356600  43.1710520  17.5665400
 101.6673500  42.7228770  16.9401310 102.9445600  43.5303300  17.0330550
 110.6134220  36.0508960  32.0232170 110.9379990  35.3198620  32.5490150
 110.6490730  35.7322600  31.1213160  97.3125780  47.0722540  31.4432130
  96.9280570  46.4316210  32.0415090  97.6237970  47.7758660  32.0126860
 103.4622920  43.9199080  26.9240750 103.8293050  43.4457650  27.6702090
 103.2727980  44.7940650  27.2649090  96.3263410  38.6642770  23.0534220
  96.0410330  38.2998440  23.8912840  96.2642270  37.9323230  22.4397360
 101.2522290  42.9607720  29.2424960 100.9479360  43.8399700  29.4675320
 102.2068750  43.0207510  29.2782400  99.7804080  47.1668710  19.8391810
  99.0066340  46.6266330  19.6790530 100.5098710  46.6475320  19.5009570
 110.5392060  46.1634070  25.6318200 111.2591180  46.6589360  25.2414310
 110.3373880  45.4851960  24.9872070 106.0002000  37.5572030  19.7747590
 105.1866610  37.0585200  19.6992900 105.8063950  38.3970280  19.3583940
 105.9210860  46.2343130  31.5187200 105.8548170  45.3138800  31.2644790
 105.2916000  46.3318570  32.2331840 108.7150390  41.9291680  18.0709750
 109.6030010  42.2408910  17.8961090 108.6855480  41.0563930  17.6790330
  99.8241480  46.8349090  23.4770620 100.3420150  46.0317350  23.4227510
  99.3725500  46.7728230  24.3187450 104.7110980  48.1015370  18.7497920
 105.0526680  48.8457600  18.2541240 103.8823690  48.4146490  19.1122750
  97.3086020  43.8010460  30.3896320  96.9500960  44.4664310  30.9769660
  97.0140580  42.9694010  30.7608940 100.5099140  44.2594700  33.2735870
 100.2099280  44.4051880  32.3763690 101.2810380  43.6999990  33.1809260
 105.8527590  49.0563700  31.2691000 105.8672130  48.1244660  31.0509910
 105.1452690  49.1423460  31.9080770 110.9864660  43.2403520  17.5389610
 110.9028380  43.6717740  16.6886050 111.7058850  43.7001870  17.9716430
 112.0638800  45.6971040  30.6159580 111.3386990  46.2899820  30.4188970
 112.5914260  45.6894580  29.8172950 112.0151910  50.0945780  20.2671740
 111.3728070  49.4401400  20.5415460 111.6282570  50.5000870  19.4912410
 107.5938390  47.4231210  24.1143430 107.9462210  46.8259340  23.4544800
 106.7100720  47.0975440  24.2851680 103.6801670  48.1828900  21.5213840
 104.3672800  48.7298110  21.9021430 102.8934090  48.7269630  21.5563450
  95.8194070  43.8001720  17.0130920  96.6888920  44.0826520  17.2966840
  95.3284390  44.6137590  16.8979730 102.9828880  45.1874930  21.1339200
 103.4391660  45.9980180  21.3599390 102.6317090  44.8698070  21.9657690
 105.2861490  50.6981270  28.3631500 105.9303710  50.9040650  29.0404920
 105.6490930  49.9369670  27.9102350  98.8840660  35.5312580  21.6061720
  98.7555290  35.5230480  22.5546640  98.0602680  35.8695670  21.2552730
 106.5593570  48.7013620  27.0808950 107.2015800  48.0006780  27.1941120
 107.0842920  49.4812060  26.9005840 110.4049290  48.9862240  16.8048090
 110.1786870  48.2692680  17.3972730 110.0145490  48.7374680  15.9669840
 108.3331190  49.5008520  30.2845010 108.6687430  50.0875210  30.9622930
 107.4131530  49.3701230  30.5142800  96.1865320  53.0129100  17.5792550
  96.5462960  53.6118440  16.9249820  96.0457660  53.5588990  18.3527580
  95.8834590  37.2903700  31.0668420  95.1693110  37.4900620  31.6721030
  96.3029630  36.5143270  31.4383220 109.9865540  46.9034180  18.4662250
 109.6987240  47.3646870  19.2540130 110.7817710  46.4431950  18.7346470
  96.1707180  51.2783960  32.0534950  96.2798300  50.3378700  31.9130340
  95.5187740  51.5438710  31.4048680 104.1619770  49.5499850  33.4533070
 103.8416640  48.8309090  33.9978760 103.4878130  50.2254920  33.5269130
 102.2033940  50.3960300  18.3966220 102.1944040  51.1289990  17.7810730
 101.2832300  50.1491880  18.4893180  97.8040580  45.6175190  19.1412980
  97.1968530  46.3574090  19.1508280  98.2789930  45.7074550  18.3151180
 107.3773370  39.7826010  28.8169870 107.7454190  38.9621220  29.1449440
 106.5171570  39.8427900  29.2325520 110.7435400  38.7382950  19.6257430
 110.1148560  38.8428620  18.9115660 110.2487320  38.9579730  20.4151310
 105.1893540  50.4588540  17.0591410 105.2905520  50.2552530  16.1293390
 104.2895280  50.2046820  17.2639190 102.7119430  41.0168900  21.0415310
 102.0035580  41.4855240  21.4828920 102.9963910  40.3590910  21.6760500
 104.3375360  42.4365600  29.0407840 104.8360610  42.9111420  29.7059690
 104.4798310  41.5129120  29.2477870 106.7434860  37.7419560  22.4811100
 106.6202640  37.7605690  21.5320610 107.6919420  37.7898500  22.6009500
 103.8311650  52.9774860  21.7539080 104.0853150  52.9396250  20.8318450
 102.8824130  52.8508190  21.7467330 100.9154450  39.3253980  18.4166020
 101.7644980  39.7624130  18.3506210 100.5485720  39.6374240  19.2438080
 111.5442220  38.6533560  29.8836230 111.0415820  39.3938960  30.2230040
 112.3598880  39.0417560  29.5673020 109.8364230  43.8966740  23.3297590
 108.8954370  43.9116970  23.5045280 110.1508300  43.1102700  23.7757890
  99.8145870  45.5786340  16.8901550 100.5809140  45.4667700  17.4526980
  99.8920560  44.8824310  16.2378320  98.5092630  43.0111410  17.5734440
  98.5896220  42.0638920  17.6851840  99.4012380  43.3418290  17.6795100
 111.8389810  51.0675590  25.0051850 111.9637230  51.8906760  25.4775660
 112.7055370  50.8566320  24.6576000  99.3107340  53.1606800  24.6768980
 100.0469820  52.6122260  24.9477550  99.6948260  54.0262810  24.5374970
  96.1952820  49.2280370  20.5510490  95.2692600  49.4701510  20.5415900
  96.6609250  50.0554630  20.4295240  98.3165620  52.3452870  33.8654560
  99.1178350  52.6664920  34.2789960  97.8017440  51.9848450  34.5874470
 102.4209650  52.3337110  16.4994550 103.2138260  52.6225940  16.0476340
 101.9014000  51.9029280  15.8207030 107.1530250  48.4532740  33.8129970
 106.5468410  48.4764340  33.0725720 106.8484360  47.7215780  34.3497220
 108.5830620  52.1813030  32.4239380 109.5352370  52.0971050  32.3739620
 108.4358840  52.8454740  33.0973170 111.4739820  51.5607240  17.9231290
 111.1881330  51.1472380  17.1085470 111.2759370  52.4894950  17.8031810
  96.0363430  44.8326330  32.8090610  96.5402450  44.2533610  33.3806840
  95.2970850  45.1166560  33.3466980 102.9387050  47.5540520  16.3636900
 102.8337690  46.9392870  17.0898280 102.7711270  47.0306410  15.5799910
 103.0901370  46.2397320  32.3426130 102.3247040  46.8082320  32.2580800
 103.2717330  45.9473530  31.4494360 106.1789780  46.6160550  16.9678890
 105.6299880  47.0629850  17.6121630 106.8009040  46.1109800  17.4916560
 110.2324720  47.9702650  32.9001150 110.9734190  48.3078410  32.3968610
 109.4697400  48.1394710  32.3470920  98.0686510  42.9755920  33.7040680
  98.1091850  42.6769790  34.6125910  98.9232010  43.3763530  33.5448200
 101.8464900  45.5751470  18.8644190 102.2681320  45.4091340  19.7075580
 101.9715740  44.7651700  18.3699330 100.0092320  41.5548020  31.6715170
  99.4788780  41.0638970  31.0438510 100.6780390  41.9832220  31.1373100
 104.3592540  44.5989080  16.1121290 104.8798200  43.8838100  15.7462440
 105.0060940  45.2374950  16.4121800 108.9070380  46.0217480  31.4356360
 109.3211400  46.1762560  32.2846780 107.9721380  46.1472700  31.5982140
 109.3792550  43.3613640  33.4395510 109.9613320  42.6065960  33.3515990
 109.5554320  43.8921080  32.6626990 100.4964620  38.5210390  31.7512460
 100.4021490  37.9031140  31.0263330  99.9162010  39.2476680  31.5242370
 103.2626060  37.0783630  28.7839850 102.8143360  37.1007890  27.9385400
 102.6291260  36.6802650  29.3810150 103.6685610  45.9737960  29.4052290
 104.0873720  46.8170690  29.2328530 102.7494240  46.1110000  29.1759070
 106.0049510  43.7054140  30.7890130 106.1245720  43.1095280  31.5284970
 106.8643510  43.7423830  30.3691430 108.3437410  44.2591330  29.3652640
 107.8172630  44.7833950  28.7617780 108.6868750  44.8918720  29.9962370
 100.7423800  41.6484700  15.8102350 100.5412860  40.7852060  16.1715690
 100.5715850  41.5618060  14.8723950 101.5193030  52.2790970  30.5210020
 100.9814120  53.0037030  30.2018720 101.7726990  51.8021310  29.7307360
 102.7718280  40.2475490  32.0465950 103.3617970  39.9391340  32.7343770
 101.9538520  39.7755240  32.2025850 107.5911710  39.8641300  32.2798970
 106.9027230  39.2022840  32.2148960 108.3117730  39.4179570  32.7247430
 108.2212110  36.4592930  18.3389230 108.5014400  35.6160830  18.6948650
 107.4477840  36.6916040  18.8527980  99.5406600  38.7485320  15.7980230
  99.8432500  38.7552750  14.8899380 100.2801190  38.3983180  16.2947890
 104.3755240  53.5142180  30.7796670 104.3013940  54.4177320  31.0869040
 103.4734080  53.1954080  30.7518740 102.7591530  37.6919940  16.7836430
 102.4113530  37.0143930  16.2038880 102.9604300  37.2309450  17.5979820
 104.9240570  52.6800690  18.4023030 105.8191360  53.0185660  18.4241790
 104.9558200  51.9580100  17.7747310  98.5636730  48.0527740  16.6310030
  99.0011600  48.5957410  17.2867610  99.0484460  47.2274690  16.6406370
  95.7782530  50.8416770  24.0830290  96.1085540  49.9737830  23.8508930
  96.2073530  51.0475290  24.9135250 100.3744450  49.1725780  21.7432260
 100.0739990  49.0490750  22.6436170 100.2681940  48.3134370  21.3347990
  96.2672740  51.7087360  26.8211920  95.8303730  51.8888160  27.6536070
  96.8350420  52.4661980  26.6793640 111.9034920  51.2104360  31.1089230
 111.3036910  51.2696920  30.3653150 112.0328820  50.2709340  31.2386080
 113.1436370  48.9522180  16.4458940 112.3129330  49.0198830  16.9166170
 113.3208200  49.8426300  16.1425800 112.5992830  45.6969660  18.9493140
 113.3611740  46.2666310  19.0552830 112.6147200  45.1296860  19.7201450
  96.0997170  44.2207590  23.1800800  95.4446010  43.9519230  22.5360500
  96.9375120  44.1112070  22.7302780 110.5886560  47.9356340  29.2065390
 109.7746400  48.3653500  29.4691180 110.9960760  48.5474750  28.5934440
 112.6512000  45.9904030  16.1065660 112.9260840  46.8982910  15.9784880
 112.4622740  45.9266560  17.0427650 109.0487610  39.0148880  17.4019290
 109.4672490  38.8279860  16.5615950 108.7423670  38.1627930  17.7122220
 112.5477340  43.9273020  21.0995090 112.1720940  43.1600950  20.6676380
 111.8180460  44.3095720  21.5870020  97.1373100  44.6060160  27.7204140
  97.5046140  44.5187560  28.6000160  96.5683920  43.8426710  27.6211000
 111.9376960  43.0744540  30.7334610 111.7063050  42.8457290  29.8332560
 112.1981510  43.9944090  30.6879500  96.6889100  41.5169250  31.6262560
  95.7945150  41.4836010  31.9656270  97.2286650  41.7156040  32.3913810
 110.3765030  38.3000970  33.5114310 111.2535210  38.3084370  33.8948310
 110.3885870  37.5631810  32.9006660  95.3135250  41.4306520  19.1226130
  94.4099330  41.6936720  18.9477790  95.7975870  41.7017690  18.3426090
 111.8228300  42.1530510  24.4002330 112.3465780  41.6593160  23.7692500
 112.4087720  42.2880870  25.1449900 112.0018020  42.2370380  27.9221880
 111.0520730  42.2033920  28.0366870 112.1831030  43.1470490  27.6871650
  97.8562460  40.4872060  17.0320510  98.5654160  40.0655280  16.5467790
  97.1402400  40.5547290  16.4003860  97.5036620  36.5411390  16.0723160
  98.2264750  37.0820330  16.3904380  97.7761140  36.2674810  15.1964700
 111.3128270  41.4103860  20.3394740 111.8087390  41.1774730  21.1243620
 111.1144340  40.5715700  19.9232380  97.1928810  35.7917580  25.9745780
  97.8405000  35.2414960  25.5340940  97.6130650  36.0460730  26.7961590
 111.0881150  35.9858940  29.3315420 111.7253370  36.5993080  29.6974610
 111.2356040  36.0219600  28.3864650 110.6462610  52.6874940  22.7333660
 111.2421680  52.3659510  22.0568080 110.9040760  52.2146760  23.5246930
  96.9460810  35.9473250  28.7171100  96.5975630  36.4037070  29.4829280
  96.6148510  35.0530380  28.7993530  98.5525180  49.1192850  32.8824290
  98.5094810  48.7485760  33.7638750  98.6836190  50.0570420  33.0226110
 102.2531210  50.6752440  28.4834010 102.0122570  50.9427000  27.5964530
 103.1933850  50.8458170  28.5384870 104.4585630  37.1385130  32.2390520
 104.3974520  37.7306960  32.9885930 105.3986010  37.0311090  32.0940780
 107.0960190  36.7955190  31.8782810 107.7100600  37.1134480  31.2163890
 107.6409750  36.3103780  32.4978670  97.6181450  35.4749450  31.9921870
  98.1664440  35.2937500  31.2287980  97.6836760  34.6843560  32.5278180
  98.3913210  52.0655100  30.0022070  97.7973530  51.9339800  30.7412110
  98.3837050  51.2293240  29.5364170 107.8368230  35.3587330  28.2052100
 106.9628070  35.6922440  28.0025030 107.7278980  34.8860510  29.0303970
 108.7440210  37.5658200  29.5893820 108.4153570  36.7509960  29.2095550
 109.6922510  37.5228010  29.4659510 111.1974820  53.3370240  26.5631390
 110.7377790  54.0886050  26.1889410 110.5687280  52.6176710  26.5046190
  98.0225440  49.4313480  28.9530110  97.2959500  48.8118770  28.8856060
  98.0834590  49.8254090  28.0828190 101.6270540  51.6458480  25.7379520
 102.1435560  51.0345840  25.2127780 102.2767920  52.1487260  26.2290530
 104.3666040  52.5366970  26.5648500 104.6543850  52.2821270  25.6881510
 104.8789260  51.9844330  27.1554070 105.5843050  36.2757170  27.1445010
 104.8014840  36.7502670  27.4241770 105.2905980  35.3712000  27.0358190
 110.1364120  36.9780270  25.1894100 110.5772210  36.9225370  24.3415700
 109.8671710  37.8938280  25.2604280 112.0002690  36.6095510  23.2002920
 111.9391090  35.6656730  23.0533940 112.7794720  36.7175600  23.7456380
  96.3055440  52.7487870  22.1626870  96.1377480  52.1158550  22.8608760
  95.4389950  52.9547270  21.8121060  96.9283460  36.5804650  19.6658730
  97.6862820  36.6933530  19.0922760  96.4660630  37.4173850  19.6202160
 103.4697270  38.6943920  22.6561040 102.6571780  38.3200810  22.3156920
 103.9738910  37.9389000  22.9582230 107.9722250  35.3586370  23.8944110
 108.5751620  35.9306580  24.3692630 107.2315240  35.9225810  23.6718010
 111.1156850  35.7607930  19.1684390 111.3107480  36.6591380  19.4351820
 110.3286720  35.5295010  19.6617340  97.9118140  51.4421100  19.6077010
  97.3865760  51.8229130  18.9038970  97.8362720  52.0671870  20.3286720
  99.3008610  37.1068700  18.2060700  99.8301370  36.3198500  18.0768650
  99.9336930  37.7859890  18.4396230 101.4946450  36.8443840  21.2606090
 100.8649190  36.1431150  21.4276220 100.9551590  37.6047970  21.0439250
 104.4338400  53.4583070  33.9316700 105.3605710  53.2227340  33.9752660
 104.4188830  54.2855070  33.4502730 112.6683460  53.0008640  20.9290950
 112.8435650  52.3146380  20.2851870 111.9705030  53.5255690  20.5367620
 101.6202010  36.1227820  33.6958580 101.3386280  36.6261420  32.9319400
 102.0021710  35.3249570  33.3300710 100.5111110  53.3903480  18.4826260
 101.2429930  53.1062760  17.9350150 100.7704780  53.1516760  19.3725640
  99.6725900  49.5068210  18.4872590  99.0434780  49.9753310  19.0358420
  99.7873730  48.6617430  18.9218780 108.2217470  35.5381400  34.2739050
 108.1082920  35.8576010  35.1690570 109.0387210  35.9393910  33.9776330
 111.0015960  52.6852930  33.7557740 111.7941280  52.1902160  33.5483700
 111.2949110  53.3643070  34.3633350 107.1275620  43.5573870   4.6373790
 107.0469670  42.6428480   4.3665500 106.7140040  44.0540940   3.9313500
 105.2593660  45.3352890   6.5183060 104.4835760  44.8553330   6.8081630
 105.9106590  44.6558540   6.3439220  99.2759490  45.6472700   7.3958820
  98.4444370  45.3921410   7.7955330  99.8840470  45.7183470   8.1316740
 109.2801090  49.7413080   5.2982190 108.8182620  48.9700320   5.6269360
 110.0926640  49.7679150   5.8034640  99.2560750  49.6812790   7.5916840
  99.5588790  48.7910530   7.4127060 100.0004340  50.2383010   7.3639090
  95.6484450  43.2080240   7.0640910  96.2200560  42.4402440   7.0644550
  95.6485990  43.5069000   6.1547520 105.5064400  52.0271090   4.9186180
 104.8875840  52.4828590   4.3480620 106.3616180  52.1822550   4.5175880
 104.7002650  48.0110080   6.5253220 104.6310930  47.0700020   6.3642350
 105.4622510  48.1011490   7.0975790  96.8909320  38.6164600   8.8509840
  96.7112160  37.7190350   9.1312600  96.4889400  39.1636470   9.5256790
 105.7307820  40.8180460   6.7522150 106.1072640  39.9452340   6.6395820
 105.6327330  41.1539160   5.8612590  99.8612830  39.1906090   2.2139590
  99.9679580  40.0909820   2.5208350  98.9505190  39.1424060   1.9234240
 109.5131940  38.3130900   3.6850490 110.3341560  37.8227470   3.7275970
 109.5466020  38.9028560   4.4382330  97.5095990  41.1125100   7.4592180
  98.1906100  41.3763470   8.0779580  97.1944040  40.2725970   7.7930190
 101.7020560  42.1592460   6.5464770 102.2098780  42.6573430   7.1869790
 102.2333800  41.3827660   6.3704130  99.9856660  36.7991020  10.8128190
  99.9875100  37.3163410  10.0074090  99.1560970  36.3221200  10.7898120
 106.3727750  46.9110330   2.3118090 105.7545020  47.3759780   1.7480810
 106.8851000  47.6037810   2.7287600 101.2359510  46.4386200   8.9901690
 100.9028890  47.0655120   9.6322760 101.4126190  46.9648080   8.2103360
 109.7493420  40.2531280   6.4578030 109.0448990  40.5416170   7.0381140
 110.1105580  41.0631390   6.0977590  99.6671990  38.5100980   8.8198640
 100.0088800  39.3543030   8.5252510  98.7287800  38.6584720   8.9363980
 100.4478610  48.4067000  10.8050870 101.0652610  49.0818080  10.5235320
  99.5871730  48.8154980  10.7138370 111.3656200  49.8706410   8.7205510
 110.6819720  50.5405520   8.7122180 111.9050490  50.0687060   7.9550370
 112.8180340  39.6986070   6.8487240 111.8705250  39.7325050   6.9802670
 113.1430330  40.5125020   7.2336600 103.3499880  35.9983250   5.1443230
 103.6574860  35.4430140   4.4278730 102.4200580  36.1327710   4.9616220
 108.9014940  51.7150540   7.4350690 108.9142100  51.3112830   6.5672950
 108.3490160  52.4897830   7.3312120 110.1960360  48.4366760   2.5240860
 110.0856690  47.4941090   2.6490280 110.1928610  48.7982400   3.4103620
 108.3000380  46.6180380   8.7633300 108.7169170  46.4040490   7.9286760
 109.0240200  46.8753170   9.3341920 105.7380640  44.0632080   1.8803350
 104.8109920  43.9969460   2.1091820 105.8905460  45.0012210   1.7658590
 112.2462480  45.0167600   8.8549540 111.4181110  45.0860690   8.3799670
 112.8412960  45.6021910   8.3865370 109.7677930  45.6252380   2.3838600
 109.1490350  45.2871930   1.7364900 109.7502380  44.9812140   3.0917790
 109.2104490  41.8036920   9.8004410 108.7975670  42.6290630  10.0544400
 108.4780440  41.2181960   9.6080770 101.3437280  44.5896820   4.6623080
 100.9394280  43.8774070   4.1668980 101.4300400  44.2450060   5.5511120
 101.8118980  48.2764380   6.8262290 101.5147270  47.6709850   6.1470070
 102.7618800  48.3141690   6.7151650 100.0565900  41.3640030   8.4422120
 100.6080490  41.4735370   7.6675370 100.5709410  41.7377630   9.1577350
 109.9004590  51.8496250  10.4885390 109.4235150  52.6568440  10.2958000
 109.2166380  51.1974580  10.6411600 100.9037410  48.0146070  13.4770090
 100.0065940  48.2386040  13.7243490 100.9290280  48.1381010  12.5281490
  99.7308630  44.8859390  12.0527460  99.5916400  45.7582190  12.4214860
  98.8489990  44.5432200  11.9075400 106.0538010  49.8035260   3.3592590
 106.4933920  50.5459590   2.9447980 105.9924900  50.0461830   4.2831550
 101.5288980  50.8281090  14.2612610 101.5004410  51.2324040  13.3941040
 101.3653950  49.8991450  14.0984210  95.6827280  46.6556940   7.9698370
  95.7607700  46.7905710   7.0254090  96.2968960  45.9472830   8.1626490
  96.9274910  48.3557130   4.3804550  96.5202990  48.4971720   3.5258150
  97.8187920  48.0717290   4.1775760 112.8837050  48.8021040  12.7176790
 113.0100110  48.5632920  11.7993970 112.9258430  47.9705580  13.1898870
 106.7453790  52.5049040  11.2871600 107.2598460  52.4157050  12.0894030
 105.9022870  52.8508740  11.5799510 101.1996570  52.5702910   2.4927220
 101.0239050  51.6538450   2.2795020 100.3452310  52.9290200   2.7325020
 107.9884250  51.9254650   3.3502090 108.4441200  51.1444030   3.6640710
 108.3276770  52.6361470   3.8943270 112.7361060  40.8553500  13.6826530
 112.1205330  41.3633170  13.1541990 112.4157480  39.9551830  13.6252470
  95.7386800  47.6971110  10.5092830  95.9017840  47.2276470   9.6912200
  96.2039250  47.1894670  11.1741670 100.5105570  36.8276870   5.5453400
 100.0673720  37.6086410   5.2137920 101.0690560  37.1506760   6.2524340
 104.7975380  39.6945390  11.1488720 104.3354750  39.9028410  11.9608660
 104.3953490  38.8804740  10.8459390 109.7979890  40.9154340  12.2785380
 108.9473480  40.6160090  12.5994450 109.6381680  41.1596350  11.3669200
 106.8929600  42.4156090  14.3784170 107.2183010  41.5819840  14.0386400
 107.6809930  42.9384610  14.5262500 102.5481470  37.3724200   7.4043000
 102.8453800  38.2787030   7.3235020 103.0967030  36.8842980   6.7902570
 100.3019790  41.9510440   3.2734650 100.0760710  41.7347610   4.1781270
  99.5212320  42.3838900   2.9280620 102.7419000  42.8496020  13.9394920
 102.6462600  41.9090750  13.7895320 103.5850980  43.0711090  13.5442990
 106.1382420  40.5937350   3.9028580 106.5311990  40.9109550   3.0897270
 106.4999270  39.7149230   4.0173100  97.8729540  39.2609690  12.0928700
  97.4792930  40.1084900  12.3001480  97.1847940  38.6236060  12.2837340
 104.4474590  39.3444660  15.1625440 103.7572910  39.1516860  15.7971530
 105.1906890  39.6279300  15.6949740  95.1746590  37.1838150   6.1258780
  94.8859640  37.7541010   6.8383760  95.9192350  36.7042600   6.4890010
 106.7237560  43.1843100   7.9979360 105.9918680  43.6929910   8.3469460
 106.3261900  42.3673080   7.6968140 103.1614950  39.8597300   6.4031850
 103.1651010  39.4187250   5.5536390 104.0566070  40.1814630   6.5103670
  99.0117330  39.7423790   5.3626060  98.6717380  40.2199020   6.1193110
  98.2494650  39.2888910   5.0027160 107.1863470  38.6376780   7.4102300
 107.2036210  39.0885430   8.2544150 106.9379050  37.7382420   7.6235740
 110.6134220  36.0508960  13.2488680 110.9379990  35.3198620  13.7746660
 110.6490730  35.7322600  12.3469670  97.3125780  47.0722540  12.6688640
  96.9280570  46.4316210  13.2671600  97.6237970  47.7758660  13.2383370
 103.4622920  43.9199080   8.1497260 103.8293050  43.4457650   8.8958600
 103.2727980  44.7940650   8.4905600  96.3263410  38.6642770   4.2790730
  96.0410330  38.2998440   5.1169350  96.2642270  37.9323230   3.6653870
 101.2522290  42.9607720  10.4681470 100.9479360  43.8399700  10.6931830
 102.2068750  43.0207510  10.5038910 110.5392060  46.1634070   6.8574710
 111.2591180  46.6589360   6.4670820 110.3373880  45.4851960   6.2128580
 105.9210860  46.2343130  12.7443710 105.8548170  45.3138800  12.4901300
 105.2916000  46.3318570  13.4588350  99.8241480  46.8349090   4.7027130
 100.3420150  46.0317350   4.6484020  99.3725500  46.7728230   5.5443960
  97.3086020  43.8010460  11.6152830  96.9500960  44.4664310  12.2026170
  97.0140580  42.9694010  11.9865450 100.5099140  44.2594700  14.4992380
 100.2099280  44.4051880  13.6020200 101.2810380  43.6999990  14.4065770
 105.8527590  49.0563700  12.4947510 105.8672130  48.1244660  12.2766420
 105.1452690  49.1423460  13.1337280 112.0638800  45.6971040  11.8416090
 111.3386990  46.2899820  11.6445480 112.5914260  45.6894580  11.0429460
 107.5938390  47.4231210   5.3399940 107.9462210  46.8259340   4.6801310
 106.7100720  47.0975440   5.5108190 103.6801670  48.1828900   2.7470350
 104.3672800  48.7298110   3.1277940 102.8934090  48.7269630   2.7819960
 102.9828880  45.1874930   2.3595710 103.4391660  45.9980180   2.5855900
 102.6317090  44.8698070   3.1914200 105.2861490  50.6981270   9.5888010
 105.9303710  50.9040650  10.2661430 105.6490930  49.9369670   9.1358860
  98.8840660  35.5312580   2.8318230  98.7555290  35.5230480   3.7803150
  98.0602680  35.8695670   2.4809240 106.5593570  48.7013620   8.3065460
 107.2015800  48.0006780   8.4197630 107.0842920  49.4812060   8.1262350
 108.3331190  49.5008520  11.5101520 108.6687430  50.0875210  12.1879440
 107.4131530  49.3701230  11.7399310  95.8834590  37.2903700  12.2924930
  95.1693110  37.4900620  12.8977540  96.3029630  36.5143270  12.6639730
  96.1707180  51.2783960  13.2791460  96.2798300  50.3378700  13.1386850
  95.5187740  51.5438710  12.6305190 104.1619770  49.5499850  14.6789580
 103.8416640  48.8309090  15.2235270 103.4878130  50.2254920  14.7525640
 107.3773370  39.7826010  10.0426380 107.7454190  38.9621220  10.3705950
 106.5171570  39.8427900  10.4582030 102.7119430  41.0168900   2.2671820
 102.0035580  41.4855240   2.7085430 102.9963910  40.3590910   2.9017010
 104.3375360  42.4365600  10.2664350 104.8360610  42.9111420  10.9316200
 104.4798310  41.5129120  10.4734380 106.7434860  37.7419560   3.7067610
 106.6202640  37.7605690   2.7577120 107.6919420  37.7898500   3.8266010
 103.8311650  52.9774860   2.9795590 104.0853150  52.9396250   2.0574960
 102.8824130  52.8508190   2.9723840 111.5442220  38.6533560  11.1092740
 111.0415820  39.3938960  11.4486550 112.3598880  39.0417560  10.7929530
 109.8364230  43.8966740   4.5554100 108.8954370  43.9116970   4.7301790
 110.1508300  43.1102700   5.0014400 111.8389810  51.0675590   6.2308360
 111.9637230  51.8906760   6.7032170 112.7055370  50.8566320   5.8832510
  99.3107340  53.1606800   5.9025490 100.0469820  52.6122260   6.1734060
  99.6948260  54.0262810   5.7631480  96.1952820  49.2280370   1.7767000
  95.2692600  49.4701510   1.7672410  96.6609250  50.0554630   1.6551750
  98.3165620  52.3452870  15.0911070  99.1178350  52.6664920  15.5046470
  97.8017440  51.9848450  15.8130980 107.1530250  48.4532740  15.0386480
 106.5468410  48.4764340  14.2982230 106.8484360  47.7215780  15.5753730
 108.5830620  52.1813030  13.6495890 109.5352370  52.0971050  13.5996130
 108.4358840  52.8454740  14.3229680  96.0363430  44.8326330  14.0347120
  96.5402450  44.2533610  14.6063350  95.2970850  45.1166560  14.5723490
 103.0901370  46.2397320  13.5682640 102.3247040  46.8082320  13.4837310
 103.2717330  45.9473530  12.6750870 110.2324720  47.9702650  14.1257660
 110.9734190  48.3078410  13.6225120 109.4697400  48.1394710  13.5727430
  98.0686510  42.9755920  14.9297190  98.1091850  42.6769790  15.8382420
  98.9232010  43.3763530  14.7704710 100.0092320  41.5548020  12.8971680
  99.4788780  41.0638970  12.2695020 100.6780390  41.9832220  12.3629610
 108.9070380  46.0217480  12.6612870 109.3211400  46.1762560  13.5103290
 107.9721380  46.1472700  12.8238650 109.3792550  43.3613640  14.6652020
 109.9613320  42.6065960  14.5772500 109.5554320  43.8921080  13.8883500
 100.4964620  38.5210390  12.9768970 100.4021490  37.9031140  12.2519840
  99.9162010  39.2476680  12.7498880 103.2626060  37.0783630  10.0096360
 102.8143360  37.1007890   9.1641910 102.6291260  36.6802650  10.6066660
 103.6685610  45.9737960  10.6308800 104.0873720  46.8170690  10.4585040
 102.7494240  46.1110000  10.4015580 106.0049510  43.7054140  12.0146640
 106.1245720  43.1095280  12.7541480 106.8643510  43.7423830  11.5947940
 108.3437410  44.2591330  10.5909150 107.8172630  44.7833950   9.9874290
 108.6868750  44.8918720  11.2218880 101.5193030  52.2790970  11.7466530
 100.9814120  53.0037030  11.4275230 101.7726990  51.8021310  10.9563870
 102.7718280  40.2475490  13.2722460 103.3617970  39.9391340  13.9600280
 101.9538520  39.7755240  13.4282360 107.5911710  39.8641300  13.5055480
 106.9027230  39.2022840  13.4405470 108.3117730  39.4179570  13.9503940
 104.3755240  53.5142180  12.0053180 104.3013940  54.4177320  12.3125550
 103.4734080  53.1954080  11.9775250  95.7782530  50.8416770   5.3086800
  96.1085540  49.9737830   5.0765440  96.2073530  51.0475290   6.1391760
 100.3744450  49.1725780   2.9688770 100.0739990  49.0490750   3.8692680
 100.2681940  48.3134370   2.5604500  96.2672740  51.7087360   8.0468430
  95.8303730  51.8888160   8.8792580  96.8350420  52.4661980   7.9050150
 111.9034920  51.2104360  12.3345740 111.3036910  51.2696920  11.5909660
 112.0328820  50.2709340  12.4642590  96.0997170  44.2207590   4.4057310
  95.4446010  43.9519230   3.7617010  96.9375120  44.1112070   3.9559290
 110.5886560  47.9356340  10.4321900 109.7746400  48.3653500  10.6947690
 110.9960760  48.5474750   9.8190950 112.5477340  43.9273020   2.3251600
 112.1720940  43.1600950   1.8932890 111.8180460  44.3095720   2.8126530
  97.1373100  44.6060160   8.9460650  97.5046140  44.5187560   9.8256670
  96.5683920  43.8426710   8.8467510 111.9376960  43.0744540  11.9591120
 111.7063050  42.8457290  11.0589070 112.1981510  43.9944090  11.9136010
  96.6889100  41.5169250  12.8519070  95.7945150  41.4836010  13.1912780
  97.2286650  41.7156040  13.6170320 110.3765030  38.3000970  14.7370820
 111.2535210  38.3084370  15.1204820 110.3885870  37.5631810  14.1263170
 111.8228300  42.1530510   5.6258840 112.3465780  41.6593160   4.9949010
 112.4087720  42.2880870   6.3706410 112.0018020  42.2370380   9.1478390
 111.0520730  42.2033920   9.2623380 112.1831030  43.1470490   8.9128160
  97.1928810  35.7917580   7.2002290  97.8405000  35.2414960   6.7597450
  97.6130650  36.0460730   8.0218100 111.0881150  35.9858940  10.5571930
 111.7253370  36.5993080  10.9231120 111.2356040  36.0219600   9.6121160
 110.6462610  52.6874940   3.9590170 111.2421680  52.3659510   3.2824590
 110.9040760  52.2146760   4.7503440  96.9460810  35.9473250   9.9427610
  96.5975630  36.4037070  10.7085790  96.6148510  35.0530380  10.0250040
  98.5525180  49.1192850  14.1080800  98.5094810  48.7485760  14.9895260
  98.6836190  50.0570420  14.2482620 102.2531210  50.6752440   9.7090520
 102.0122570  50.9427000   8.8221040 103.1933850  50.8458170   9.7641380
 104.4585630  37.1385130  13.4647030 104.3974520  37.7306960  14.2142440
 105.3986010  37.0311090  13.3197290 107.0960190  36.7955190  13.1039320
 107.7100600  37.1134480  12.4420400 107.6409750  36.3103780  13.7235180
  97.6181450  35.4749450  13.2178380  98.1664440  35.2937500  12.4544490
  97.6836760  34.6843560  13.7534690  98.3913210  52.0655100  11.2278580
  97.7973530  51.9339800  11.9668620  98.3837050  51.2293240  10.7620680
 107.8368230  35.3587330   9.4308610 106.9628070  35.6922440   9.2281540
 107.7278980  34.8860510  10.2560480 108.7440210  37.5658200  10.8150330
 108.4153570  36.7509960  10.4352060 109.6922510  37.5228010  10.6916020
 111.1974820  53.3370240   7.7887900 110.7377790  54.0886050   7.4145920
 110.5687280  52.6176710   7.7302700  98.0225440  49.4313480  10.1786620
  97.2959500  48.8118770  10.1112570  98.0834590  49.8254090   9.3084700
 101.6270540  51.6458480   6.9636030 102.1435560  51.0345840   6.4384290
 102.2767920  52.1487260   7.4547040 104.3666040  52.5366970   7.7905010
 104.6543850  52.2821270   6.9138020 104.8789260  51.9844330   8.3810580
 105.5843050  36.2757170   8.3701520 104.8014840  36.7502670   8.6498280
 105.2905980  35.3712000   8.2614700 110.1364120  36.9780270   6.4150610
 110.5772210  36.9225370   5.5672210 109.8671710  37.8938280   6.4860790
 112.0002690  36.6095510   4.4259430 111.9391090  35.6656730   4.2790450
 112.7794720  36.7175600   4.9712890  96.3055440  52.7487870   3.3883380
  96.1377480  52.1158550   4.0865270  95.4389950  52.9547270   3.0377570
 103.4697270  38.6943920   3.8817550 102.6571780  38.3200810   3.5413430
 103.9738910  37.9389000   4.1838740 107.9722250  35.3586370   5.1200620
 108.5751620  35.9306580   5.5949140 107.2315240  35.9225810   4.8974520
 101.4946450  36.8443840   2.4862600 100.8649190  36.1431150   2.6532730
 100.9551590  37.6047970   2.2695760 104.4338400  53.4583070  15.1573210
 105.3605710  53.2227340  15.2009170 104.4188830  54.2855070  14.6759240
 101.6202010  36.1227820  14.9215090 101.3386280  36.6261420  14.1575910
 102.0021710  35.3249570  14.5557220 108.2217470  35.5381400  15.4995560
 108.1082920  35.8576010  16.3947080 109.0387210  35.9393910  15.2032840
 111.0015960  52.6852930  14.9814250 111.7941280  52.1902160  14.7740210
 111.2949110  53.3643070  15.5889860 107.1275620  24.7830380  79.7347750
 107.0469670  23.8684990  79.4639460 106.7140040  25.2797450  79.0287460
 105.2593660  26.5609400  81.6157020 104.4835760  26.0809840  81.9055590
 105.9106590  25.8815050  81.4413180  99.2759490  26.8729210  82.4932780
  98.4444370  26.6177920  82.8929290  99.8840470  26.9439980  83.2290700
 109.2801090  30.9669590  80.3956150 108.8182620  30.1956830  80.7243320
 110.0926640  30.9935660  80.9008600  99.2560750  30.9069300  82.6890800
  99.5588790  30.0167040  82.5101020 100.0004340  31.4639520  82.4613050
  97.6851440  21.8331100  76.2775170  96.7968140  22.1747070  76.1755050
  97.9692630  21.6331420  75.3856000  95.6484450  24.4336750  82.1614870
  96.2200560  23.6658950  82.1618510  95.6485990  24.7325510  81.2521480
 105.5064400  33.2527600  80.0160140 104.8875840  33.7085100  79.4454580
 106.3616180  33.4079060  79.6149840 104.7002650  29.2366590  81.6227180
 104.6310930  28.2956530  81.4616310 105.4622510  29.3268000  82.1949750
  96.8909320  19.8421110  83.9483800  96.7112160  18.9446860  84.2286560
  96.4889400  20.3892980  84.6230750 105.7307820  22.0436970  81.8496110
 106.1072640  21.1708850  81.7369780 105.6327330  22.3795670  80.9586550
  99.8612830  20.4162600  77.3113550  99.9679580  21.3166330  77.6182310
  98.9505190  20.3680570  77.0208200 109.5131940  19.5387410  78.7824450
 110.3341560  19.0483980  78.8249930 109.5466020  20.1285070  79.5356290
  97.5095990  22.3381610  82.5566140  98.1906100  22.6019980  83.1753540
  97.1944040  21.4982480  82.8904150 101.7020560  23.3848970  81.6438730
 102.2098780  23.8829940  82.2843750 102.2333800  22.6084170  81.4678090
  99.9856660  18.0247530  85.9102150  99.9875100  18.5419920  85.1048050
  99.1560970  17.5477710  85.8872080 106.3727750  28.1366840  77.4092050
 105.7545020  28.6016290  76.8454770 106.8851000  28.8294320  77.8261560
 101.2359510  27.6642710  84.0875650 100.9028890  28.2911630  84.7296720
 101.4126190  28.1904590  83.3077320 109.7493420  21.4787790  81.5551990
 109.0448990  21.7672680  82.1355100 110.1105580  22.2887900  81.1951550
  99.6671990  19.7357490  83.9172600 100.0088800  20.5799540  83.6226470
  98.7287800  19.8841230  84.0337940 100.4478610  29.6323510  85.9024830
 101.0652610  30.3074590  85.6209280  99.5871730  30.0411490  85.8112330
  95.7410950  28.8223370  74.7831680  95.3638930  29.3110470  74.0516580
  95.9984020  29.4948650  75.4138210 111.3656200  31.0962920  83.8179470
 110.6819720  31.7662030  83.8096140 111.9050490  31.2943570  83.0524330
 112.8180340  20.9242580  81.9461200 111.8705250  20.9581560  82.0776630
 113.1430330  21.7381530  82.3310560 103.3499880  17.2239760  80.2417190
 103.6574860  16.6686650  79.5252690 102.4200580  17.3584220  80.0590180
 108.9014940  32.9407050  82.5324650 108.9142100  32.5369340  81.6646910
 108.3490160  33.7154340  82.4286080 110.1960360  29.6623270  77.6214820
 110.0856690  28.7197600  77.7464240 110.1928610  30.0238910  78.5077580
 108.3000380  27.8436890  83.8607260 108.7169170  27.6297000  83.0260720
 109.0240200  28.1009680  84.4315880 105.7380640  25.2888590  76.9777310
 104.8109920  25.2225970  77.2065780 105.8905460  26.2268720  76.8632550
 105.7249720  21.5605590  73.9744470 104.7853390  21.7219550  74.0596930
 106.0432980  22.2791270  73.4280460 112.2462480  26.2424110  83.9523500
 111.4181110  26.3117200  83.4773630 112.8412960  26.8278420  83.4839330
 109.7677930  26.8508890  77.4812560 109.1490350  26.5128440  76.8338860
 109.7502380  26.2068650  78.1891750 109.2104490  23.0293430  84.8978370
 108.7975670  23.8547140  85.1518360 108.4780440  22.4438470  84.7054730
 101.3437280  25.8153330  79.7597040 100.9394280  25.1030580  79.2642940
 101.4300400  25.4706570  80.6485080 101.8118980  29.5020890  81.9236250
 101.5147270  28.8966360  81.2444030 102.7618800  29.5398200  81.8125610
 100.0565900  22.5896540  83.5396080 100.6080490  22.6991880  82.7649330
 100.5709410  22.9634140  84.2551310 109.9004590  33.0752760  85.5859350
 109.4235150  33.8824950  85.3931960 109.2166380  32.4231090  85.7385560
 107.9442630  26.0895700  74.4885310 108.3835910  25.2518130  74.3423130
 108.6571050  26.7225100  74.5749450 106.0538010  31.0291770  78.4566550
 106.4933920  31.7716100  78.0421940 105.9924900  31.2718340  79.3805510
 111.5259770  17.3438510  72.8026350 111.2132430  17.4365340  73.7025420
 112.2872240  17.9219540  72.7523780  98.0441910  24.7098310  77.2603690
  97.9239510  25.4360400  76.6484960  97.7342800  23.9401220  76.7831600
  95.6827280  27.8813450  83.0672330  95.7607700  28.0162220  82.1228050
  96.2968960  27.1729340  83.2600450  96.9274910  29.5813640  79.4778510
  96.5202990  29.7228230  78.6232110  97.8187920  29.2973800  79.2749720
 108.7208190  34.0160890  75.8129560 108.5609330  33.7263830  76.7111390
 108.5554900  33.2401020  75.2774790 101.1996570  33.7959420  77.5901180
 101.0239050  32.8794960  77.3768980 100.3452310  34.1546710  77.8298980
 108.4234320  31.5248450  74.3727560 107.7299480  31.5225740  73.7129840
 109.1657180  31.1007770  73.9421730 107.9884250  33.1511160  78.4476050
 108.4441200  32.3700540  78.7614670 108.3276770  33.8617980  78.9917230
 100.5105570  18.0533380  80.6427360 100.0673720  18.8342920  80.3111880
 101.0690560  18.3763270  81.3498300 103.6264390  17.6744080  75.5233190
 103.0018570  17.6703950  76.2486500 103.5394510  16.8075040  75.1269160
 102.5481470  18.5980710  82.5016960 102.8453800  19.5043540  82.4208980
 103.0967030  18.1099490  81.8876530 100.3019790  23.1766950  78.3708610
 100.0760710  22.9604120  79.2755230  99.5212320  23.6095410  78.0254580
 107.5317550  23.1830320  76.9699260 106.9326440  23.9066120  76.7862880
 108.0797160  23.1207100  76.1875710 106.1382420  21.8193860  79.0002540
 106.5311990  22.1366060  78.1871230 106.4999270  20.9405740  79.1147060
  95.1746590  18.4094660  81.2232740  94.8859640  18.9797520  81.9357720
  95.9192350  17.9299110  81.5863970  95.3616820  22.3514780  72.4335460
  95.2791490  23.2945540  72.5750450  95.0099880  22.2089690  71.5547810
 106.7237560  24.4099610  83.0953320 105.9918680  24.9186420  83.4443420
 106.3261900  23.5929590  82.7942100 103.1614950  21.0853810  81.5005810
 103.1651010  20.6443760  80.6510350 104.0566070  21.4071140  81.6077630
  99.0117330  20.9680300  80.4600020  98.6717380  21.4455530  81.2167070
  98.2494650  20.5145420  80.1001120 103.2235100  22.0865890  74.4912570
 103.3447920  22.0452370  75.4398390 102.8383610  22.9490040  74.3359300
 107.1863470  19.8633290  82.5076260 107.2036210  20.3141940  83.3518110
 106.9379050  18.9638930  82.7209700 102.2356600  24.3967030  73.8895870
 101.6673500  23.9485280  73.2631780 102.9445600  24.7559810  73.3561020
 103.4622920  25.1455590  83.2471220 103.8293050  24.6714160  83.9932560
 103.2727980  26.0197160  83.5879560  96.3263410  19.8899280  79.3764690
  96.0410330  19.5254950  80.2143310  96.2642270  19.1579740  78.7627830
 101.2522290  24.1864230  85.5655430 100.9479360  25.0656210  85.7905790
 102.2068750  24.2464020  85.6012870  99.7804080  28.3925220  76.1622280
  99.0066340  27.8522840  76.0021000 100.5098710  27.8731830  75.8240040
 110.5392060  27.3890580  81.9548670 111.2591180  27.8845870  81.5644780
 110.3373880  26.7108470  81.3102540 106.0002000  18.7828540  76.0978060
 105.1866610  18.2841710  76.0223370 105.8063950  19.6226790  75.6814410
 108.7150390  23.1548190  74.3940220 109.6030010  23.4665420  74.2191560
 108.6855480  22.2820440  74.0020800  99.8241480  28.0605600  79.8001090
 100.3420150  27.2573860  79.7457980  99.3725500  27.9984740  80.6417920
 104.7110980  29.3271880  75.0728390 105.0526680  30.0714110  74.5771710
 103.8823690  29.6403000  75.4353220 110.9864660  24.4660030  73.8620080
 110.9028380  24.8974250  73.0116520 111.7058850  24.9258380  74.2946900
 112.0151910  31.3202290  76.5902210 111.3728070  30.6657910  76.8645930
 111.6282570  31.7257380  75.8142880 107.5938390  28.6487720  80.4373900
 107.9462210  28.0515850  79.7775270 106.7100720  28.3231950  80.6082150
 103.6801670  29.4085410  77.8444310 104.3672800  29.9554620  78.2251900
 102.8934090  29.9526140  77.8793920  95.8194070  25.0258230  73.3361390
  96.6888920  25.3083030  73.6197310  95.3284390  25.8394100  73.2210200
 102.9828880  26.4131440  77.4569670 103.4391660  27.2236690  77.6829860
 102.6317090  26.0954580  78.2888160 105.2861490  31.9237780  84.6861970
 105.9303710  32.1297160  85.3635390 105.6490930  31.1626180  84.2332820
  98.8840660  16.7569090  77.9292190  98.7555290  16.7486990  78.8777110
  98.0602680  17.0952180  77.5783200 106.5593570  29.9270130  83.4039420
 107.2015800  29.2263290  83.5171590 107.0842920  30.7068570  83.2236310
 110.4049290  30.2118750  73.1278560 110.1786870  29.4949190  73.7203200
 110.0145490  29.9631190  72.2900310  96.1865320  34.2385610  73.9023020
  96.5462960  34.8374950  73.2480290  96.0457660  34.7845500  74.6758050
 109.9865540  28.1290690  74.7892720 109.6987240  28.5903380  75.5770600
 110.7817710  27.6688460  75.0576940 102.2033940  31.6216810  74.7196690
 102.1944040  32.3546500  74.1041200 101.2832300  31.3748390  74.8123650
  97.8040580  26.8431700  75.4643450  97.1968530  27.5830600  75.4738750
  98.2789930  26.9331060  74.6381650 107.3773370  21.0082520  85.1400340
 107.7454190  20.1877730  85.4679910 106.5171570  21.0684410  85.5555990
 110.7435400  19.9639460  75.9487900 110.1148560  20.0685130  75.2346130
 110.2487320  20.1836240  76.7381780 105.1893540  31.6845050  73.3821880
 105.2905520  31.4809040  72.4523860 104.2895280  31.4303330  73.5869660
 102.7119430  22.2425410  77.3645780 102.0035580  22.7111750  77.8059390
 102.9963910  21.5847420  77.9990970 106.7434860  18.9676070  78.8041570
 106.6202640  18.9862200  77.8551080 107.6919420  19.0155010  78.9239970
 103.8311650  34.2031370  78.0769550 104.0853150  34.1652760  77.1548920
 102.8824130  34.0764700  78.0697800 100.9154450  20.5510490  74.7396490
 101.7644980  20.9880640  74.6736680 100.5485720  20.8630750  75.5668550
 109.8364230  25.1223250  79.6528060 108.8954370  25.1373480  79.8275750
 110.1508300  24.3359210  80.0988360  99.8145870  26.8042850  73.2132020
 100.5809140  26.6924210  73.7757450  99.8920560  26.1080820  72.5608790
  98.5092630  24.2367920  73.8964910  98.5896220  23.2895430  74.0082310
  99.4012380  24.5674800  74.0025570 111.8389810  32.2932100  81.3282320
 111.9637230  33.1163270  81.8006130 112.7055370  32.0822830  80.9806470
  99.3107340  34.3863310  80.9999450 100.0469820  33.8378770  81.2708020
  99.6948260  35.2519320  80.8605440  96.1952820  30.4536880  76.8740960
  95.2692600  30.6958020  76.8646370  96.6609250  31.2811140  76.7525710
 102.4209650  33.5593620  72.8225020 103.2138260  33.8482450  72.3706810
 101.9014000  33.1285790  72.1437500 111.4739820  32.7863750  74.2461760
 111.1881330  32.3728890  73.4315940 111.2759370  33.7151460  74.1262280
 102.9387050  28.7797030  72.6867370 102.8337690  28.1649380  73.4128750
 102.7711270  28.2562920  71.9030380 106.1789780  27.8417060  73.2909360
 105.6299880  28.2886360  73.9352100 106.8009040  27.3366310  73.8147030
 101.8464900  26.8007980  75.1874660 102.2681320  26.6347850  76.0306050
 101.9715740  25.9908210  74.6929800 104.3592540  25.8245590  72.4351760
 104.8798200  25.1094610  72.0692910 105.0060940  26.4631460  72.7352270
 103.2626060  18.3040140  85.1070320 102.8143360  18.3264400  84.2615870
 102.6291260  17.9059160  85.7040620 103.6685610  27.1994470  85.7282760
 104.0873720  28.0427200  85.5559000 102.7494240  27.3366510  85.4989540
 100.7423800  22.8741210  72.1332820 100.5412860  22.0108570  72.4946160
 100.5715850  22.7874570  71.1954420 108.2212110  17.6849440  74.6619700
 108.5014400  16.8417340  75.0179120 107.4477840  17.9172550  75.1758450
  99.5406600  19.9741830  72.1210700  99.8432500  19.9809260  71.2129850
 100.2801190  19.6239690  72.6178360 102.7591530  18.9176450  73.1066900
 102.4113530  18.2400440  72.5269350 102.9604300  18.4565960  73.9210290
 104.9240570  33.9057200  74.7253500 105.8191360  34.2442170  74.7472260
 104.9558200  33.1836610  74.0977780  98.5636730  29.2784250  72.9540500
  99.0011600  29.8213920  73.6098080  99.0484460  28.4531200  72.9636840
  95.7782530  32.0673280  80.4060760  96.1085540  31.1994340  80.1739400
  96.2073530  32.2731800  81.2365720 100.3744450  30.3982290  78.0662730
 100.0739990  30.2747260  78.9666640 100.2681940  29.5390880  77.6578460
  96.2672740  32.9343870  83.1442390  95.8303730  33.1144670  83.9766540
  96.8350420  33.6918490  83.0024110 113.1436370  30.1778690  72.7689410
 112.3129330  30.2455340  73.2396640 113.3208200  31.0682810  72.4656270
 112.5992830  26.9226170  75.2723610 113.3611740  27.4922820  75.3783300
 112.6147200  26.3553370  76.0431920  96.0997170  25.4464100  79.5031270
  95.4446010  25.1775740  78.8590970  96.9375120  25.3368580  79.0533250
 110.5886560  29.1612850  85.5295860 109.7746400  29.5910010  85.7921650
 110.9960760  29.7731260  84.9164910 112.6512000  27.2160540  72.4296130
 112.9260840  28.1239420  72.3015350 112.4622740  27.1523070  73.3658120
 109.0487610  20.2405390  73.7249760 109.4672490  20.0536370  72.8846420
 108.7423670  19.3884440  74.0352690 112.5477340  25.1529530  77.4225560
 112.1720940  24.3857460  76.9906850 111.8180460  25.5352230  77.9100490
  97.1373100  25.8316670  84.0434610  97.5046140  25.7444070  84.9230630
  96.5683920  25.0683220  83.9441470  95.3135250  22.6563030  75.4456600
  94.4099330  22.9193230  75.2708260  95.7975870  22.9274200  74.6656560
 111.8228300  23.3787020  80.7232800 112.3465780  22.8849670  80.0922970
 112.4087720  23.5137380  81.4680370 112.0018020  23.4626890  84.2452350
 111.0520730  23.4290430  84.3597340 112.1831030  24.3727000  84.0102120
  97.8562460  21.7128570  73.3550980  98.5654160  21.2911790  72.8698260
  97.1402400  21.7803800  72.7234330  97.5036620  17.7667900  72.3953630
  98.2264750  18.3076840  72.7134850  97.7761140  17.4931320  71.5195170
 111.3128270  22.6360370  76.6625210 111.8087390  22.4031240  77.4474090
 111.1144340  21.7972210  76.2462850  97.1928810  17.0174090  82.2976250
  97.8405000  16.4671470  81.8571410  97.6130650  17.2717240  83.1192060
 110.6462610  33.9131450  79.0564130 111.2421680  33.5916020  78.3798550
 110.9040760  33.4403270  79.8477400  96.9460810  17.1729760  85.0401570
  96.5975630  17.6293580  85.8059750  96.6148510  16.2786890  85.1224000
 102.2531210  31.9008950  84.8064480 102.0122570  32.1683510  83.9195000
 103.1933850  32.0714680  84.8615340 107.8368230  16.5843840  84.5282570
 106.9628070  16.9178950  84.3255500 107.7278980  16.1117020  85.3534440
 108.7440210  18.7914710  85.9124290 108.4153570  17.9766470  85.5326020
 109.6922510  18.7484520  85.7889980 111.1974820  34.5626750  82.8861860
 110.7377790  35.3142560  82.5119880 110.5687280  33.8433220  82.8276660
  98.0225440  30.6569990  85.2760580  97.2959500  30.0375280  85.2086530
  98.0834590  31.0510600  84.4058660 101.6270540  32.8714990  82.0609990
 102.1435560  32.2602350  81.5358250 102.2767920  33.3743770  82.5521000
 104.3666040  33.7623480  82.8878970 104.6543850  33.5077780  82.0111980
 104.8789260  33.2100840  83.4784540 105.5843050  17.5013680  83.4675480
 104.8014840  17.9759180  83.7472240 105.2905980  16.5968510  83.3588660
 110.1364120  18.2036780  81.5124570 110.5772210  18.1481880  80.6646170
 109.8671710  19.1194790  81.5834750 112.0002690  17.8352020  79.5233390
 111.9391090  16.8913240  79.3764410 112.7794720  17.9432110  80.0686850
  96.3055440  33.9744380  78.4857340  96.1377480  33.3415060  79.1839230
  95.4389950  34.1803780  78.1351530  96.9283460  17.8061160  75.9889200
  97.6862820  17.9190040  75.4153230  96.4660630  18.6430360  75.9432630
 103.4697270  19.9200430  78.9791510 102.6571780  19.5457320  78.6387390
 103.9738910  19.1645510  79.2812700 107.9722250  16.5842880  80.2174580
 108.5751620  17.1563090  80.6923100 107.2315240  17.1482320  79.9948480
 111.1156850  16.9864440  75.4914860 111.3107480  17.8847890  75.7582290
 110.3286720  16.7551520  75.9847810  97.9118140  32.6677610  75.9307480
  97.3865760  33.0485640  75.2269440  97.8362720  33.2928380  76.6517190
  99.3008610  18.3325210  74.5291170  99.8301370  17.5455010  74.3999120
  99.9336930  19.0116400  74.7626700 101.4946450  18.0700350  77.5836560
 100.8649190  17.3687660  77.7506690 100.9551590  18.8304480  77.3669720
 112.6683460  34.2265150  77.2521420 112.8435650  33.5402890  76.6082340
 111.9705030  34.7512200  76.8598090 100.5111110  34.6159990  74.8056730
 101.2429930  34.3319270  74.2580620 100.7704780  34.3773270  75.6956110
  99.6725900  30.7324720  74.8103060  99.0434780  31.2009820  75.3588890
  99.7873730  29.8873940  75.2449250 107.1275620  24.7830380  60.9604260
 107.0469670  23.8684990  60.6895970 106.7140040  25.2797450  60.2543970
 105.2593660  26.5609400  62.8413530 104.4835760  26.0809840  63.1312100
 105.9106590  25.8815050  62.6669690  99.2759490  26.8729210  63.7189290
  98.4444370  26.6177920  64.1185800  99.8840470  26.9439980  64.4547210
 109.2801090  30.9669590  61.6212660 108.8182620  30.1956830  61.9499830
 110.0926640  30.9935660  62.1265110  99.2560750  30.9069300  63.9147310
  99.5588790  30.0167040  63.7357530 100.0004340  31.4639520  63.6869560
  97.6851440  21.8331100  57.5031680  96.7968140  22.1747070  57.4011560
  97.9692630  21.6331420  56.6112510  95.6484450  24.4336750  63.3871380
  96.2200560  23.6658950  63.3875020  95.6485990  24.7325510  62.4777990
 105.5064400  33.2527600  61.2416650 104.8875840  33.7085100  60.6711090
 106.3616180  33.4079060  60.8406350 104.7002650  29.2366590  62.8483690
 104.6310930  28.2956530  62.6872820 105.4622510  29.3268000  63.4206260
  96.8909320  19.8421110  65.1740310  96.7112160  18.9446860  65.4543070
  96.4889400  20.3892980  65.8487260 105.7307820  22.0436970  63.0752620
 106.1072640  21.1708850  62.9626290 105.6327330  22.3795670  62.1843060
  99.8612830  20.4162600  58.5370060  99.9679580  21.3166330  58.8438820
  98.9505190  20.3680570  58.2464710 109.5131940  19.5387410  60.0080960
 110.3341560  19.0483980  60.0506440 109.5466020  20.1285070  60.7612800
  97.5095990  22.3381610  63.7822650  98.1906100  22.6019980  64.4010050
  97.1944040  21.4982480  64.1160660 101.7020560  23.3848970  62.8695240
 102.2098780  23.8829940  63.5100260 102.2333800  22.6084170  62.6934600
  99.9856660  18.0247530  67.1358660  99.9875100  18.5419920  66.3304560
  99.1560970  17.5477710  67.1128590 106.3727750  28.1366840  58.6348560
 105.7545020  28.6016290  58.0711280 106.8851000  28.8294320  59.0518070
 101.2359510  27.6642710  65.3132160 100.9028890  28.2911630  65.9553230
 101.4126190  28.1904590  64.5333830 109.7493420  21.4787790  62.7808500
 109.0448990  21.7672680  63.3611610 110.1105580  22.2887900  62.4208060
  99.6671990  19.7357490  65.1429110 100.0088800  20.5799540  64.8482980
  98.7287800  19.8841230  65.2594450 100.4478610  29.6323510  67.1281340
 101.0652610  30.3074590  66.8465790  99.5871730  30.0411490  67.0368840
  95.7410950  28.8223370  56.0088190  95.3638930  29.3110470  55.2773090
  95.9984020  29.4948650  56.6394720 111.3656200  31.0962920  65.0435980
 110.6819720  31.7662030  65.0352650 111.9050490  31.2943570  64.2780840
 112.8180340  20.9242580  63.1717710 111.8705250  20.9581560  63.3033140
 113.1430330  21.7381530  63.5567070 103.3499880  17.2239760  61.4673700
 103.6574860  16.6686650  60.7509200 102.4200580  17.3584220  61.2846690
 108.9014940  32.9407050  63.7581160 108.9142100  32.5369340  62.8903420
 108.3490160  33.7154340  63.6542590 110.1960360  29.6623270  58.8471330
 110.0856690  28.7197600  58.9720750 110.1928610  30.0238910  59.7334090
 108.3000380  27.8436890  65.0863770 108.7169170  27.6297000  64.2517230
 109.0240200  28.1009680  65.6572390 105.7380640  25.2888590  58.2033820
 104.8109920  25.2225970  58.4322290 105.8905460  26.2268720  58.0889060
 105.7249720  21.5605590  55.2000980 104.7853390  21.7219550  55.2853440
 106.0432980  22.2791270  54.6536970 112.2462480  26.2424110  65.1780010
 111.4181110  26.3117200  64.7030140 112.8412960  26.8278420  64.7095840
 109.7677930  26.8508890  58.7069070 109.1490350  26.5128440  58.0595370
 109.7502380  26.2068650  59.4148260 109.2104490  23.0293430  66.1234880
 108.7975670  23.8547140  66.3774870 108.4780440  22.4438470  65.9311240
 101.3437280  25.8153330  60.9853550 100.9394280  25.1030580  60.4899450
 101.4300400  25.4706570  61.8741590 101.8118980  29.5020890  63.1492760
 101.5147270  28.8966360  62.4700540 102.7618800  29.5398200  63.0382120
 100.0565900  22.5896540  64.7652590 100.6080490  22.6991880  63.9905840
 100.5709410  22.9634140  65.4807820 109.9004590  33.0752760  66.8115860
 109.4235150  33.8824950  66.6188470 109.2166380  32.4231090  66.9642070
 100.9037410  29.2402580  69.8000560 100.0065940  29.4642550  70.0473960
 100.9290280  29.3637520  68.8511960 107.9442630  26.0895700  55.7141820
 108.3835910  25.2518130  55.5679640 108.6571050  26.7225100  55.8005960
  99.7308630  26.1115900  68.3757930  99.5916400  26.9838700  68.7445330
  98.8489990  25.7688710  68.2305870 106.0538010  31.0291770  59.6823060
 106.4933920  31.7716100  59.2678450 105.9924900  31.2718340  60.6062020
 101.5288980  32.0537600  70.5843080 101.5004410  32.4580550  69.7171510
 101.3653950  31.1247960  70.4214680 111.5259770  17.3438510  54.0282860
 111.2132430  17.4365340  54.9281930 112.2872240  17.9219540  53.9780290
  98.0441910  24.7098310  58.4860200  97.9239510  25.4360400  57.8741470
  97.7342800  23.9401220  58.0088110  95.6827280  27.8813450  64.2928840
  95.7607700  28.0162220  63.3484560  96.2968960  27.1729340  64.4856960
  96.9274910  29.5813640  60.7035020  96.5202990  29.7228230  59.8488620
  97.8187920  29.2973800  60.5006230 112.8837050  30.0277550  69.0407260
 113.0100110  29.7889430  68.1224440 112.9258430  29.1962090  69.5129340
 106.7453790  33.7305550  67.6102070 107.2598460  33.6413560  68.4124500
 105.9022870  34.0765250  67.9029980 108.7208190  34.0160890  57.0386070
 108.5609330  33.7263830  57.9367900 108.5554900  33.2401020  56.5031300
 101.1996570  33.7959420  58.8157690 101.0239050  32.8794960  58.6025490
 100.3452310  34.1546710  59.0555490 108.4234320  31.5248450  55.5984070
 107.7299480  31.5225740  54.9386350 109.1657180  31.1007770  55.1678240
 107.9884250  33.1511160  59.6732560 108.4441200  32.3700540  59.9871180
 108.3276770  33.8617980  60.2173740 112.7361060  22.0810010  70.0057000
 112.1205330  22.5889680  69.4772460 112.4157480  21.1808340  69.9482940
  95.7386800  28.9227620  66.8323300  95.9017840  28.4532980  66.0142670
  96.2039250  28.4151180  67.4972140 100.5105570  18.0533380  61.8683870
 100.0673720  18.8342920  61.5368390 101.0690560  18.3763270  62.5754810
 104.7975380  20.9201900  67.4719190 104.3354750  21.1284920  68.2839130
 104.3953490  20.1061250  67.1689860 109.7979890  22.1410850  68.6015850
 108.9473480  21.8416600  68.9224920 109.6381680  22.3852860  67.6899670
 106.8929600  23.6412600  70.7014640 107.2183010  22.8076350  70.3616870
 107.6809930  24.1641120  70.8492970 103.6264390  17.6744080  56.7489700
 103.0018570  17.6703950  57.4743010 103.5394510  16.8075040  56.3525670
 102.5481470  18.5980710  63.7273470 102.8453800  19.5043540  63.6465490
 103.0967030  18.1099490  63.1133040 100.3019790  23.1766950  59.5965120
 100.0760710  22.9604120  60.5011740  99.5212320  23.6095410  59.2511090
 107.5317550  23.1830320  58.1955770 106.9326440  23.9066120  58.0119390
 108.0797160  23.1207100  57.4132220 102.7419000  24.0752530  70.2625390
 102.6462600  23.1347260  70.1125790 103.5850980  24.2967600  69.8673460
 106.1382420  21.8193860  60.2259050 106.5311990  22.1366060  59.4127740
 106.4999270  20.9405740  60.3403570  97.8729540  20.4866200  68.4159170
  97.4792930  21.3341410  68.6231950  97.1847940  19.8492570  68.6067810
 104.4474590  20.5701170  71.4855910 103.7572910  20.3773370  72.1202000
 105.1906890  20.8535810  72.0180210  95.1746590  18.4094660  62.4489250
  94.8859640  18.9797520  63.1614230  95.9192350  17.9299110  62.8120480
  95.3616820  22.3514780  53.6591970  95.2791490  23.2945540  53.8006960
  95.0099880  22.2089690  52.7804320 106.7237560  24.4099610  64.3209830
 105.9918680  24.9186420  64.6699930 106.3261900  23.5929590  64.0198610
 103.1614950  21.0853810  62.7262320 103.1651010  20.6443760  61.8766860
 104.0566070  21.4071140  62.8334140  99.0117330  20.9680300  61.6856530
  98.6717380  21.4455530  62.4423580  98.2494650  20.5145420  61.3257630
 103.2235100  22.0865890  55.7169080 103.3447920  22.0452370  56.6654900
 102.8383610  22.9490040  55.5615810 107.1863470  19.8633290  63.7332770
 107.2036210  20.3141940  64.5774620 106.9379050  18.9638930  63.9466210
 102.2356600  24.3967030  55.1152380 101.6673500  23.9485280  54.4888290
 102.9445600  24.7559810  54.5817530 110.6134220  17.2765470  69.5719150
 110.9379990  16.5455130  70.0977130 110.6490730  16.9579110  68.6700140
  97.3125780  28.2979050  68.9919110  96.9280570  27.6572720  69.5902070
  97.6237970  29.0015170  69.5613840 103.4622920  25.1455590  64.4727730
 103.8293050  24.6714160  65.2189070 103.2727980  26.0197160  64.8136070
  96.3263410  19.8899280  60.6021200  96.0410330  19.5254950  61.4399820
  96.2642270  19.1579740  59.9884340 101.2522290  24.1864230  66.7911940
 100.9479360  25.0656210  67.0162300 102.2068750  24.2464020  66.8269380
  99.7804080  28.3925220  57.3878790  99.0066340  27.8522840  57.2277510
 100.5098710  27.8731830  57.0496550 110.5392060  27.3890580  63.1805180
 111.2591180  27.8845870  62.7901290 110.3373880  26.7108470  62.5359050
 106.0002000  18.7828540  57.3234570 105.1866610  18.2841710  57.2479880
 105.8063950  19.6226790  56.9070920 105.9210860  27.4599640  69.0674180
 105.8548170  26.5395310  68.8131770 105.2916000  27.5575080  69.7818820
 108.7150390  23.1548190  55.6196730 109.6030010  23.4665420  55.4448070
 108.6855480  22.2820440  55.2277310  99.8241480  28.0605600  61.0257600
 100.3420150  27.2573860  60.9714490  99.3725500  27.9984740  61.8674430
 104.7110980  29.3271880  56.2984900 105.0526680  30.0714110  55.8028220
 103.8823690  29.6403000  56.6609730  97.3086020  25.0266970  67.9383300
  96.9500960  25.6920820  68.5256640  97.0140580  24.1950520  68.3095920
 100.5099140  25.4851210  70.8222850 100.2099280  25.6308390  69.9250670
 101.2810380  24.9256500  70.7296240 105.8527590  30.2820210  68.8177980
 105.8672130  29.3501170  68.5996890 105.1452690  30.3679970  69.4567750
 110.9864660  24.4660030  55.0876590 110.9028380  24.8974250  54.2373030
 111.7058850  24.9258380  55.5203410 112.0638800  26.9227550  68.1646560
 111.3386990  27.5156330  67.9675950 112.5914260  26.9151090  67.3659930
 112.0151910  31.3202290  57.8158720 111.3728070  30.6657910  58.0902440
 111.6282570  31.7257380  57.0399390 107.5938390  28.6487720  61.6630410
 107.9462210  28.0515850  61.0031780 106.7100720  28.3231950  61.8338660
 103.6801670  29.4085410  59.0700820 104.3672800  29.9554620  59.4508410
 102.8934090  29.9526140  59.1050430  95.8194070  25.0258230  54.5617900
  96.6888920  25.3083030  54.8453820  95.3284390  25.8394100  54.4466710
 102.9828880  26.4131440  58.6826180 103.4391660  27.2236690  58.9086370
 102.6317090  26.0954580  59.5144670 105.2861490  31.9237780  65.9118480
 105.9303710  32.1297160  66.5891900 105.6490930  31.1626180  65.4589330
  98.8840660  16.7569090  59.1548700  98.7555290  16.7486990  60.1033620
  98.0602680  17.0952180  58.8039710 106.5593570  29.9270130  64.6295930
 107.2015800  29.2263290  64.7428100 107.0842920  30.7068570  64.4492820
 110.4049290  30.2118750  54.3535070 110.1786870  29.4949190  54.9459710
 110.0145490  29.9631190  53.5156820 108.3331190  30.7265030  67.8331990
 108.6687430  31.3131720  68.5109910 107.4131530  30.5957740  68.0629780
  96.1865320  34.2385610  55.1279530  96.5462960  34.8374950  54.4736800
  96.0457660  34.7845500  55.9014560  95.8834590  18.5160210  68.6155400
  95.1693110  18.7157130  69.2208010  96.3029630  17.7399780  68.9870200
 109.9865540  28.1290690  56.0149230 109.6987240  28.5903380  56.8027110
 110.7817710  27.6688460  56.2833450  96.1707180  32.5040470  69.6021930
  96.2798300  31.5635210  69.4617320  95.5187740  32.7695220  68.9535660
 104.1619770  30.7756360  71.0020050 103.8416640  30.0565600  71.5465740
 103.4878130  31.4511430  71.0756110 102.2033940  31.6216810  55.9453200
 102.1944040  32.3546500  55.3297710 101.2832300  31.3748390  56.0380160
  97.8040580  26.8431700  56.6899960  97.1968530  27.5830600  56.6995260
  98.2789930  26.9331060  55.8638160 107.3773370  21.0082520  66.3656850
 107.7454190  20.1877730  66.6936420 106.5171570  21.0684410  66.7812500
 110.7435400  19.9639460  57.1744410 110.1148560  20.0685130  56.4602640
 110.2487320  20.1836240  57.9638290 105.1893540  31.6845050  54.6078390
 105.2905520  31.4809040  53.6780370 104.2895280  31.4303330  54.8126170
 102.7119430  22.2425410  58.5902290 102.0035580  22.7111750  59.0315900
 102.9963910  21.5847420  59.2247480 104.3375360  23.6622110  66.5894820
 104.8360610  24.1367930  67.2546670 104.4798310  22.7385630  66.7964850
 106.7434860  18.9676070  60.0298080 106.6202640  18.9862200  59.0807590
 107.6919420  19.0155010  60.1496480 103.8311650  34.2031370  59.3026060
 104.0853150  34.1652760  58.3805430 102.8824130  34.0764700  59.2954310
 100.9154450  20.5510490  55.9653000 101.7644980  20.9880640  55.8993190
 100.5485720  20.8630750  56.7925060 111.5442220  19.8790070  67.4323210
 111.0415820  20.6195470  67.7717020 112.3598880  20.2674070  67.1160000
 109.8364230  25.1223250  60.8784570 108.8954370  25.1373480  61.0532260
 110.1508300  24.3359210  61.3244870  99.8145870  26.8042850  54.4388530
 100.5809140  26.6924210  55.0013960  99.8920560  26.1080820  53.7865300
  98.5092630  24.2367920  55.1221420  98.5896220  23.2895430  55.2338820
  99.4012380  24.5674800  55.2282080 111.8389810  32.2932100  62.5538830
 111.9637230  33.1163270  63.0262640 112.7055370  32.0822830  62.2062980
  99.3107340  34.3863310  62.2255960 100.0469820  33.8378770  62.4964530
  99.6948260  35.2519320  62.0861950  96.1952820  30.4536880  58.0997470
  95.2692600  30.6958020  58.0902880  96.6609250  31.2811140  57.9782220
  98.3165620  33.5709380  71.4141540  99.1178350  33.8921430  71.8276940
  97.8017440  33.2104960  72.1361450 102.4209650  33.5593620  54.0481530
 103.2138260  33.8482450  53.5963320 101.9014000  33.1285790  53.3694010
 107.1530250  29.6789250  71.3616950 106.5468410  29.7020850  70.6212700
 106.8484360  28.9472290  71.8984200 108.5830620  33.4069540  69.9726360
 109.5352370  33.3227560  69.9226600 108.4358840  34.0711250  70.6460150
 111.4739820  32.7863750  55.4718270 111.1881330  32.3728890  54.6572450
 111.2759370  33.7151460  55.3518790  96.0363430  26.0582840  70.3577590
  96.5402450  25.4790120  70.9293820  95.2970850  26.3423070  70.8953960
 102.9387050  28.7797030  53.9123880 102.8337690  28.1649380  54.6385260
 102.7711270  28.2562920  53.1286890 103.0901370  27.4653830  69.8913110
 102.3247040  28.0338830  69.8067780 103.2717330  27.1730040  68.9981340
 106.1789780  27.8417060  54.5165870 105.6299880  28.2886360  55.1608610
 106.8009040  27.3366310  55.0403540 110.2324720  29.1959160  70.4488130
 110.9734190  29.5334920  69.9455590 109.4697400  29.3651220  69.8957900
  98.0686510  24.2012430  71.2527660  98.1091850  23.9026300  72.1612890
  98.9232010  24.6020040  71.0935180 101.8464900  26.8007980  56.4131170
 102.2681320  26.6347850  57.2562560 101.9715740  25.9908210  55.9186310
 100.0092320  22.7804530  69.2202150  99.4788780  22.2895480  68.5925490
 100.6780390  23.2088730  68.6860080 104.3592540  25.8245590  53.6608270
 104.8798200  25.1094610  53.2949420 105.0060940  26.4631460  53.9608780
 108.9070380  27.2473990  68.9843340 109.3211400  27.4019070  69.8333760
 107.9721380  27.3729210  69.1469120 109.3792550  24.5870150  70.9882490
 109.9613320  23.8322470  70.9002970 109.5554320  25.1177590  70.2113970
 100.4964620  19.7466900  69.2999440 100.4021490  19.1287650  68.5750310
  99.9162010  20.4733190  69.0729350 103.2626060  18.3040140  66.3326830
 102.8143360  18.3264400  65.4872380 102.6291260  17.9059160  66.9297130
 103.6685610  27.1994470  66.9539270 104.0873720  28.0427200  66.7815510
 102.7494240  27.3366510  66.7246050 106.0049510  24.9310650  68.3377110
 106.1245720  24.3351790  69.0771950 106.8643510  24.9680340  67.9178410
 108.3437410  25.4847840  66.9139620 107.8172630  26.0090460  66.3104760
 108.6868750  26.1175230  67.5449350 100.7423800  22.8741210  53.3589330
 100.5412860  22.0108570  53.7202670 100.5715850  22.7874570  52.4210930
 101.5193030  33.5047480  68.0697000 100.9814120  34.2293540  67.7505700
 101.7726990  33.0277820  67.2794340 102.7718280  21.4732000  69.5952930
 103.3617970  21.1647850  70.2830750 101.9538520  21.0011750  69.7512830
 107.5911710  21.0897810  69.8285950 106.9027230  20.4279350  69.7635940
 108.3117730  20.6436080  70.2734410 108.2212110  17.6849440  55.8876210
 108.5014400  16.8417340  56.2435630 107.4477840  17.9172550  56.4014960
  99.5406600  19.9741830  53.3467210  99.8432500  19.9809260  52.4386360
 100.2801190  19.6239690  53.8434870 104.3755240  34.7398690  68.3283650
 104.3013940  35.6433830  68.6356020 103.4734080  34.4210590  68.3005720
 102.7591530  18.9176450  54.3323410 102.4113530  18.2400440  53.7525860
 102.9604300  18.4565960  55.1466800 104.9240570  33.9057200  55.9510010
 105.8191360  34.2442170  55.9728770 104.9558200  33.1836610  55.3234290
  98.5636730  29.2784250  54.1797010  99.0011600  29.8213920  54.8354590
  99.0484460  28.4531200  54.1893350  95.7782530  32.0673280  61.6317270
  96.1085540  31.1994340  61.3995910  96.2073530  32.2731800  62.4622230
 100.3744450  30.3982290  59.2919240 100.0739990  30.2747260  60.1923150
 100.2681940  29.5390880  58.8834970  96.2672740  32.9343870  64.3698900
  95.8303730  33.1144670  65.2023050  96.8350420  33.6918490  64.2280620
 111.9034920  32.4360870  68.6576210 111.3036910  32.4953430  67.9140130
 112.0328820  31.4965850  68.7873060 113.1436370  30.1778690  53.9945920
 112.3129330  30.2455340  54.4653150 113.3208200  31.0682810  53.6912780
 112.5992830  26.9226170  56.4980120 113.3611740  27.4922820  56.6039810
 112.6147200  26.3553370  57.2688430  96.0997170  25.4464100  60.7287780
  95.4446010  25.1775740  60.0847480  96.9375120  25.3368580  60.2789760
 110.5886560  29.1612850  66.7552370 109.7746400  29.5910010  67.0178160
 110.9960760  29.7731260  66.1421420 112.6512000  27.2160540  53.6552640
 112.9260840  28.1239420  53.5271860 112.4622740  27.1523070  54.5914630
 109.0487610  20.2405390  54.9506270 109.4672490  20.0536370  54.1102930
 108.7423670  19.3884440  55.2609200 112.5477340  25.1529530  58.6482070
 112.1720940  24.3857460  58.2163360 111.8180460  25.5352230  59.1357000
  97.1373100  25.8316670  65.2691120  97.5046140  25.7444070  66.1487140
  96.5683920  25.0683220  65.1697980 111.9376960  24.3001050  68.2821590
 111.7063050  24.0713800  67.3819540 112.1981510  25.2200600  68.2366480
  96.6889100  22.7425760  69.1749540  95.7945150  22.7092520  69.5143250
  97.2286650  22.9412550  69.9400790 110.3765030  19.5257480  71.0601290
 111.2535210  19.5340880  71.4435290 110.3885870  18.7888320  70.4493640
  95.3135250  22.6563030  56.6713110  94.4099330  22.9193230  56.4964770
  95.7975870  22.9274200  55.8913070 111.8228300  23.3787020  61.9489310
 112.3465780  22.8849670  61.3179480 112.4087720  23.5137380  62.6936880
 112.0018020  23.4626890  65.4708860 111.0520730  23.4290430  65.5853850
 112.1831030  24.3727000  65.2358630  97.8562460  21.7128570  54.5807490
  98.5654160  21.2911790  54.0954770  97.1402400  21.7803800  53.9490840
  97.5036620  17.7667900  53.6210140  98.2264750  18.3076840  53.9391360
  97.7761140  17.4931320  52.7451680 111.3128270  22.6360370  57.8881720
 111.8087390  22.4031240  58.6730600 111.1144340  21.7972210  57.4719360
  97.1928810  17.0174090  63.5232760  97.8405000  16.4671470  63.0827920
  97.6130650  17.2717240  64.3448570 111.0881150  17.2115450  66.8802400
 111.7253370  17.8249590  67.2461590 111.2356040  17.2476110  65.9351630
 110.6462610  33.9131450  60.2820640 111.2421680  33.5916020  59.6055060
 110.9040760  33.4403270  61.0733910  96.9460810  17.1729760  66.2658080
  96.5975630  17.6293580  67.0316260  96.6148510  16.2786890  66.3480510
  98.5525180  30.3449360  70.4311270  98.5094810  29.9742270  71.3125730
  98.6836190  31.2826930  70.5713090 102.2531210  31.9008950  66.0320990
 102.0122570  32.1683510  65.1451510 103.1933850  32.0714680  66.0871850
 104.4585630  18.3641640  69.7877500 104.3974520  18.9563470  70.5372910
 105.3986010  18.2567600  69.6427760 107.0960190  18.0211700  69.4269790
 107.7100600  18.3390990  68.7650870 107.6409750  17.5360290  70.0465650
  97.6181450  16.7005960  69.5408850  98.1664440  16.5194010  68.7774960
  97.6836760  15.9100070  70.0765160  98.3913210  33.2911610  67.5509050
  97.7973530  33.1596310  68.2899090  98.3837050  32.4549750  67.0851150
 107.8368230  16.5843840  65.7539080 106.9628070  16.9178950  65.5512010
 107.7278980  16.1117020  66.5790950 108.7440210  18.7914710  67.1380800
 108.4153570  17.9766470  66.7582530 109.6922510  18.7484520  67.0146490
 111.1974820  34.5626750  64.1118370 110.7377790  35.3142560  63.7376390
 110.5687280  33.8433220  64.0533170  98.0225440  30.6569990  66.5017090
  97.2959500  30.0375280  66.4343040  98.0834590  31.0510600  65.6315170
 101.6270540  32.8714990  63.2866500 102.1435560  32.2602350  62.7614760
 102.2767920  33.3743770  63.7777510 104.3666040  33.7623480  64.1135480
 104.6543850  33.5077780  63.2368490 104.8789260  33.2100840  64.7041050
 105.5843050  17.5013680  64.6931990 104.8014840  17.9759180  64.9728750
 105.2905980  16.5968510  64.5845170 110.1364120  18.2036780  62.7381080
 110.5772210  18.1481880  61.8902680 109.8671710  19.1194790  62.8091260
 112.0002690  17.8352020  60.7489900 111.9391090  16.8913240  60.6020920
 112.7794720  17.9432110  61.2943360  96.3055440  33.9744380  59.7113850
  96.1377480  33.3415060  60.4095740  95.4389950  34.1803780  59.3608040
  96.9283460  17.8061160  57.2145710  97.6862820  17.9190040  56.6409740
  96.4660630  18.6430360  57.1689140 103.4697270  19.9200430  60.2048020
 102.6571780  19.5457320  59.8643900 103.9738910  19.1645510  60.5069210
 107.9722250  16.5842880  61.4431090 108.5751620  17.1563090  61.9179610
 107.2315240  17.1482320  61.2204990 111.1156850  16.9864440  56.7171370
 111.3107480  17.8847890  56.9838800 110.3286720  16.7551520  57.2104320
  97.9118140  32.6677610  57.1563990  97.3865760  33.0485640  56.4525950
  97.8362720  33.2928380  57.8773700  99.3008610  18.3325210  55.7547680
  99.8301370  17.5455010  55.6255630  99.9336930  19.0116400  55.9883210
 101.4946450  18.0700350  58.8093070 100.8649190  17.3687660  58.9763200
 100.9551590  18.8304480  58.5926230 104.4338400  34.6839580  71.4803680
 105.3605710  34.4483850  71.5239640 104.4188830  35.5111580  70.9989710
 112.6683460  34.2265150  58.4777930 112.8435650  33.5402890  57.8338850
 111.9705030  34.7512200  58.0854600 101.6202010  17.3484330  71.2445560
 101.3386280  17.8517930  70.4806380 102.0021710  16.5506080  70.8787690
 100.5111110  34.6159990  56.0313240 101.2429930  34.3319270  55.4837130
 100.7704780  34.3773270  56.9212620  99.6725900  30.7324720  56.0359570
  99.0434780  31.2009820  56.5845400  99.7873730  29.8873940  56.4705760
 108.2217470  16.7637910  71.8226030 108.1082920  17.0832520  72.7177550
 109.0387210  17.1650420  71.5263310 111.0015960  33.9109440  71.3044720
 111.7941280  33.4158670  71.0970680 111.2949110  34.5899580  71.9120330
 107.1275620  24.7830380  42.1860770 107.0469670  23.8684990  41.9152480
 106.7140040  25.2797450  41.4800480 105.2593660  26.5609400  44.0670040
 104.4835760  26.0809840  44.3568610 105.9106590  25.8815050  43.8926200
  99.2759490  26.8729210  44.9445800  98.4444370  26.6177920  45.3442310
  99.8840470  26.9439980  45.6803720 109.2801090  30.9669590  42.8469170
 108.8182620  30.1956830  43.1756340 110.0926640  30.9935660  43.3521620
  99.2560750  30.9069300  45.1403820  99.5588790  30.0167040  44.9614040
 100.0004340  31.4639520  44.9126070  97.6851440  21.8331100  38.7288190
  96.7968140  22.1747070  38.6268070  97.9692630  21.6331420  37.8369020
  95.6484450  24.4336750  44.6127890  96.2200560  23.6658950  44.6131530
  95.6485990  24.7325510  43.7034500 105.5064400  33.2527600  42.4673160
 104.8875840  33.7085100  41.8967600 106.3616180  33.4079060  42.0662860
 104.7002650  29.2366590  44.0740200 104.6310930  28.2956530  43.9129330
 105.4622510  29.3268000  44.6462770  96.8909320  19.8421110  46.3996820
  96.7112160  18.9446860  46.6799580  96.4889400  20.3892980  47.0743770
 105.7307820  22.0436970  44.3009130 106.1072640  21.1708850  44.1882800
 105.6327330  22.3795670  43.4099570  99.8612830  20.4162600  39.7626570
  99.9679580  21.3166330  40.0695330  98.9505190  20.3680570  39.4721220
 109.5131940  19.5387410  41.2337470 110.3341560  19.0483980  41.2762950
 109.5466020  20.1285070  41.9869310  97.5095990  22.3381610  45.0079160
  98.1906100  22.6019980  45.6266560  97.1944040  21.4982480  45.3417170
 101.7020560  23.3848970  44.0951750 102.2098780  23.8829940  44.7356770
 102.2333800  22.6084170  43.9191110  99.9856660  18.0247530  48.3615170
  99.9875100  18.5419920  47.5561070  99.1560970  17.5477710  48.3385100
 106.3727750  28.1366840  39.8605070 105.7545020  28.6016290  39.2967790
 106.8851000  28.8294320  40.2774580 101.2359510  27.6642710  46.5388670
 100.9028890  28.2911630  47.1809740 101.4126190  28.1904590  45.7590340
 109.7493420  21.4787790  44.0065010 109.0448990  21.7672680  44.5868120
 110.1105580  22.2887900  43.6464570  99.6671990  19.7357490  46.3685620
 100.0088800  20.5799540  46.0739490  98.7287800  19.8841230  46.4850960
 100.4478610  29.6323510  48.3537850 101.0652610  30.3074590  48.0722300
  99.5871730  30.0411490  48.2625350  95.7410950  28.8223370  37.2344700
  95.3638930  29.3110470  36.5029600  95.9984020  29.4948650  37.8651230
 111.3656200  31.0962920  46.2692490 110.6819720  31.7662030  46.2609160
 111.9050490  31.2943570  45.5037350 112.8180340  20.9242580  44.3974220
 111.8705250  20.9581560  44.5289650 113.1430330  21.7381530  44.7823580
 103.3499880  17.2239760  42.6930210 103.6574860  16.6686650  41.9765710
 102.4200580  17.3584220  42.5103200 108.9014940  32.9407050  44.9837670
 108.9142100  32.5369340  44.1159930 108.3490160  33.7154340  44.8799100
 110.1960360  29.6623270  40.0727840 110.0856690  28.7197600  40.1977260
 110.1928610  30.0238910  40.9590600 108.3000380  27.8436890  46.3120280
 108.7169170  27.6297000  45.4773740 109.0240200  28.1009680  46.8828900
 105.7380640  25.2888590  39.4290330 104.8109920  25.2225970  39.6578800
 105.8905460  26.2268720  39.3145570 105.7249720  21.5605590  36.4257490
 104.7853390  21.7219550  36.5109950 106.0432980  22.2791270  35.8793480
 112.2462480  26.2424110  46.4036520 111.4181110  26.3117200  45.9286650
 112.8412960  26.8278420  45.9352350 109.7677930  26.8508890  39.9325580
 109.1490350  26.5128440  39.2851880 109.7502380  26.2068650  40.6404770
 109.2104490  23.0293430  47.3491390 108.7975670  23.8547140  47.6031380
 108.4780440  22.4438470  47.1567750 101.3437280  25.8153330  42.2110060
 100.9394280  25.1030580  41.7155960 101.4300400  25.4706570  43.0998100
 101.8118980  29.5020890  44.3749270 101.5147270  28.8966360  43.6957050
 102.7618800  29.5398200  44.2638630 100.0565900  22.5896540  45.9909100
 100.6080490  22.6991880  45.2162350 100.5709410  22.9634140  46.7064330
 109.9004590  33.0752760  48.0372370 109.4235150  33.8824950  47.8444980
 109.2166380  32.4231090  48.1898580 100.9037410  29.2402580  51.0257070
 100.0065940  29.4642550  51.2730470 100.9290280  29.3637520  50.0768470
 107.9442630  26.0895700  36.9398330 108.3835910  25.2518130  36.7936150
 108.6571050  26.7225100  37.0262470  99.7308630  26.1115900  49.6014440
  99.5916400  26.9838700  49.9701840  98.8489990  25.7688710  49.4562380
 106.0538010  31.0291770  40.9079570 106.4933920  31.7716100  40.4934960
 105.9924900  31.2718340  41.8318530 101.5288980  32.0537600  51.8099590
 101.5004410  32.4580550  50.9428020 101.3653950  31.1247960  51.6471190
 111.5259770  17.3438510  35.2539370 111.2132430  17.4365340  36.1538440
 112.2872240  17.9219540  35.2036800  98.0441910  24.7098310  39.7116710
  97.9239510  25.4360400  39.0997980  97.7342800  23.9401220  39.2344620
  95.6827280  27.8813450  45.5185350  95.7607700  28.0162220  44.5741070
  96.2968960  27.1729340  45.7113470  96.9274910  29.5813640  41.9291530
  96.5202990  29.7228230  41.0745130  97.8187920  29.2973800  41.7262740
 112.8837050  30.0277550  50.2663770 113.0100110  29.7889430  49.3480950
 112.9258430  29.1962090  50.7385850 106.7453790  33.7305550  48.8358580
 107.2598460  33.6413560  49.6381010 105.9022870  34.0765250  49.1286490
 108.7208190  34.0160890  38.2642580 108.5609330  33.7263830  39.1624410
 108.5554900  33.2401020  37.7287810 101.1996570  33.7959420  40.0414200
 101.0239050  32.8794960  39.8282000 100.3452310  34.1546710  40.2812000
 108.4234320  31.5248450  36.8240580 107.7299480  31.5225740  36.1642860
 109.1657180  31.1007770  36.3934750 107.9884250  33.1511160  40.8989070
 108.4441200  32.3700540  41.2127690 108.3276770  33.8617980  41.4430250
 112.7361060  22.0810010  51.2313510 112.1205330  22.5889680  50.7028970
 112.4157480  21.1808340  51.1739450  95.7386800  28.9227620  48.0579810
  95.9017840  28.4532980  47.2399180  96.2039250  28.4151180  48.7228650
 100.5105570  18.0533380  43.0940380 100.0673720  18.8342920  42.7624900
 101.0690560  18.3763270  43.8011320 104.7975380  20.9201900  48.6975700
 104.3354750  21.1284920  49.5095640 104.3953490  20.1061250  48.3946370
 109.7979890  22.1410850  49.8272360 108.9473480  21.8416600  50.1481430
 109.6381680  22.3852860  48.9156180 106.8929600  23.6412600  51.9271150
 107.2183010  22.8076350  51.5873380 107.6809930  24.1641120  52.0749480
 103.6264390  17.6744080  37.9746210 103.0018570  17.6703950  38.6999520
 103.5394510  16.8075040  37.5782180 102.5481470  18.5980710  44.9529980
 102.8453800  19.5043540  44.8722000 103.0967030  18.1099490  44.3389550
 100.3019790  23.1766950  40.8221630 100.0760710  22.9604120  41.7268250
  99.5212320  23.6095410  40.4767600 107.5317550  23.1830320  39.4212280
 106.9326440  23.9066120  39.2375900 108.0797160  23.1207100  38.6388730
 102.7419000  24.0752530  51.4881900 102.6462600  23.1347260  51.3382300
 103.5850980  24.2967600  51.0929970 106.1382420  21.8193860  41.4515560
 106.5311990  22.1366060  40.6384250 106.4999270  20.9405740  41.5660080
  97.8729540  20.4866200  49.6415680  97.4792930  21.3341410  49.8488460
  97.1847940  19.8492570  49.8324320 104.4474590  20.5701170  52.7112420
 103.7572910  20.3773370  53.3458510 105.1906890  20.8535810  53.2436720
  95.1746590  18.4094660  43.6745760  94.8859640  18.9797520  44.3870740
  95.9192350  17.9299110  44.0376990  95.3616820  22.3514780  34.8848480
  95.2791490  23.2945540  35.0263470  95.0099880  22.2089690  34.0060830
 106.7237560  24.4099610  45.5466340 105.9918680  24.9186420  45.8956440
 106.3261900  23.5929590  45.2455120 103.1614950  21.0853810  43.9518830
 103.1651010  20.6443760  43.1023370 104.0566070  21.4071140  44.0590650
  99.0117330  20.9680300  42.9113040  98.6717380  21.4455530  43.6680090
  98.2494650  20.5145420  42.5514140 103.2235100  22.0865890  36.9425590
 103.3447920  22.0452370  37.8911410 102.8383610  22.9490040  36.7872320
 107.1863470  19.8633290  44.9589280 107.2036210  20.3141940  45.8031130
 106.9379050  18.9638930  45.1722720 102.2356600  24.3967030  36.3408890
 101.6673500  23.9485280  35.7144800 102.9445600  24.7559810  35.8074040
 110.6134220  17.2765470  50.7975660 110.9379990  16.5455130  51.3233640
 110.6490730  16.9579110  49.8956650  97.3125780  28.2979050  50.2175620
  96.9280570  27.6572720  50.8158580  97.6237970  29.0015170  50.7870350
 103.4622920  25.1455590  45.6984240 103.8293050  24.6714160  46.4445580
 103.2727980  26.0197160  46.0392580  96.3263410  19.8899280  41.8277710
  96.0410330  19.5254950  42.6656330  96.2642270  19.1579740  41.2140850
 101.2522290  24.1864230  48.0168450 100.9479360  25.0656210  48.2418810
 102.2068750  24.2464020  48.0525890  99.7804080  28.3925220  38.6135300
  99.0066340  27.8522840  38.4534020 100.5098710  27.8731830  38.2753060
 110.5392060  27.3890580  44.4061690 111.2591180  27.8845870  44.0157800
 110.3373880  26.7108470  43.7615560 106.0002000  18.7828540  38.5491080
 105.1866610  18.2841710  38.4736390 105.8063950  19.6226790  38.1327430
 105.9210860  27.4599640  50.2930690 105.8548170  26.5395310  50.0388280
 105.2916000  27.5575080  51.0075330 108.7150390  23.1548190  36.8453240
 109.6030010  23.4665420  36.6704580 108.6855480  22.2820440  36.4533820
  99.8241480  28.0605600  42.2514110 100.3420150  27.2573860  42.1971000
  99.3725500  27.9984740  43.0930940 104.7110980  29.3271880  37.5241410
 105.0526680  30.0714110  37.0284730 103.8823690  29.6403000  37.8866240
  97.3086020  25.0266970  49.1639810  96.9500960  25.6920820  49.7513150
  97.0140580  24.1950520  49.5352430 100.5099140  25.4851210  52.0479360
 100.2099280  25.6308390  51.1507180 101.2810380  24.9256500  51.9552750
 105.8527590  30.2820210  50.0434490 105.8672130  29.3501170  49.8253400
 105.1452690  30.3679970  50.6824260 110.9864660  24.4660030  36.3133100
 110.9028380  24.8974250  35.4629540 111.7058850  24.9258380  36.7459920
 112.0638800  26.9227550  49.3903070 111.3386990  27.5156330  49.1932460
 112.5914260  26.9151090  48.5916440 112.0151910  31.3202290  39.0415230
 111.3728070  30.6657910  39.3158950 111.6282570  31.7257380  38.2655900
 107.5938390  28.6487720  42.8886920 107.9462210  28.0515850  42.2288290
 106.7100720  28.3231950  43.0595170 103.6801670  29.4085410  40.2957330
 104.3672800  29.9554620  40.6764920 102.8934090  29.9526140  40.3306940
  95.8194070  25.0258230  35.7874410  96.6888920  25.3083030  36.0710330
  95.3284390  25.8394100  35.6723220 102.9828880  26.4131440  39.9082690
 103.4391660  27.2236690  40.1342880 102.6317090  26.0954580  40.7401180
 105.2861490  31.9237780  47.1374990 105.9303710  32.1297160  47.8148410
 105.6490930  31.1626180  46.6845840  98.8840660  16.7569090  40.3805210
  98.7555290  16.7486990  41.3290130  98.0602680  17.0952180  40.0296220
 106.5593570  29.9270130  45.8552440 107.2015800  29.2263290  45.9684610
 107.0842920  30.7068570  45.6749330 110.4049290  30.2118750  35.5791580
 110.1786870  29.4949190  36.1716220 110.0145490  29.9631190  34.7413330
 108.3331190  30.7265030  49.0588500 108.6687430  31.3131720  49.7366420
 107.4131530  30.5957740  49.2886290  96.1865320  34.2385610  36.3536040
  96.5462960  34.8374950  35.6993310  96.0457660  34.7845500  37.1271070
  95.8834590  18.5160210  49.8411910  95.1693110  18.7157130  50.4464520
  96.3029630  17.7399780  50.2126710 109.9865540  28.1290690  37.2405740
 109.6987240  28.5903380  38.0283620 110.7817710  27.6688460  37.5089960
  96.1707180  32.5040470  50.8278440  96.2798300  31.5635210  50.6873830
  95.5187740  32.7695220  50.1792170 104.1619770  30.7756360  52.2276560
 103.8416640  30.0565600  52.7722250 103.4878130  31.4511430  52.3012620
 102.2033940  31.6216810  37.1709710 102.1944040  32.3546500  36.5554220
 101.2832300  31.3748390  37.2636670  97.8040580  26.8431700  37.9156470
  97.1968530  27.5830600  37.9251770  98.2789930  26.9331060  37.0894670
 107.3773370  21.0082520  47.5913360 107.7454190  20.1877730  47.9192930
 106.5171570  21.0684410  48.0069010 110.7435400  19.9639460  38.4000920
 110.1148560  20.0685130  37.6859150 110.2487320  20.1836240  39.1894800
 105.1893540  31.6845050  35.8334900 105.2905520  31.4809040  34.9036880
 104.2895280  31.4303330  36.0382680 102.7119430  22.2425410  39.8158800
 102.0035580  22.7111750  40.2572410 102.9963910  21.5847420  40.4503990
 104.3375360  23.6622110  47.8151330 104.8360610  24.1367930  48.4803180
 104.4798310  22.7385630  48.0221360 106.7434860  18.9676070  41.2554590
 106.6202640  18.9862200  40.3064100 107.6919420  19.0155010  41.3752990
 103.8311650  34.2031370  40.5282570 104.0853150  34.1652760  39.6061940
 102.8824130  34.0764700  40.5210820 100.9154450  20.5510490  37.1909510
 101.7644980  20.9880640  37.1249700 100.5485720  20.8630750  38.0181570
 111.5442220  19.8790070  48.6579720 111.0415820  20.6195470  48.9973530
 112.3598880  20.2674070  48.3416510 109.8364230  25.1223250  42.1041080
 108.8954370  25.1373480  42.2788770 110.1508300  24.3359210  42.5501380
  99.8145870  26.8042850  35.6645040 100.5809140  26.6924210  36.2270470
  99.8920560  26.1080820  35.0121810  98.5092630  24.2367920  36.3477930
  98.5896220  23.2895430  36.4595330  99.4012380  24.5674800  36.4538590
 111.8389810  32.2932100  43.7795340 111.9637230  33.1163270  44.2519150
 112.7055370  32.0822830  43.4319490  99.3107340  34.3863310  43.4512470
 100.0469820  33.8378770  43.7221040  99.6948260  35.2519320  43.3118460
  96.1952820  30.4536880  39.3253980  95.2692600  30.6958020  39.3159390
  96.6609250  31.2811140  39.2038730  98.3165620  33.5709380  52.6398050
  99.1178350  33.8921430  53.0533450  97.8017440  33.2104960  53.3617960
 102.4209650  33.5593620  35.2738040 103.2138260  33.8482450  34.8219830
 101.9014000  33.1285790  34.5950520 107.1530250  29.6789250  52.5873460
 106.5468410  29.7020850  51.8469210 106.8484360  28.9472290  53.1240710
 108.5830620  33.4069540  51.1982870 109.5352370  33.3227560  51.1483110
 108.4358840  34.0711250  51.8716660 111.4739820  32.7863750  36.6974780
 111.1881330  32.3728890  35.8828960 111.2759370  33.7151460  36.5775300
  96.0363430  26.0582840  51.5834100  96.5402450  25.4790120  52.1550330
  95.2970850  26.3423070  52.1210470 102.9387050  28.7797030  35.1380390
 102.8337690  28.1649380  35.8641770 102.7711270  28.2562920  34.3543400
 103.0901370  27.4653830  51.1169620 102.3247040  28.0338830  51.0324290
 103.2717330  27.1730040  50.2237850 106.1789780  27.8417060  35.7422380
 105.6299880  28.2886360  36.3865120 106.8009040  27.3366310  36.2660050
 110.2324720  29.1959160  51.6744640 110.9734190  29.5334920  51.1712100
 109.4697400  29.3651220  51.1214410  98.0686510  24.2012430  52.4784170
  98.1091850  23.9026300  53.3869400  98.9232010  24.6020040  52.3191690
 101.8464900  26.8007980  37.6387680 102.2681320  26.6347850  38.4819070
 101.9715740  25.9908210  37.1442820 100.0092320  22.7804530  50.4458660
  99.4788780  22.2895480  49.8182000 100.6780390  23.2088730  49.9116590
 104.3592540  25.8245590  34.8864780 104.8798200  25.1094610  34.5205930
 105.0060940  26.4631460  35.1865290 108.9070380  27.2473990  50.2099850
 109.3211400  27.4019070  51.0590270 107.9721380  27.3729210  50.3725630
 109.3792550  24.5870150  52.2139000 109.9613320  23.8322470  52.1259480
 109.5554320  25.1177590  51.4370480 100.4964620  19.7466900  50.5255950
 100.4021490  19.1287650  49.8006820  99.9162010  20.4733190  50.2985860
 103.2626060  18.3040140  47.5583340 102.8143360  18.3264400  46.7128890
 102.6291260  17.9059160  48.1553640 103.6685610  27.1994470  48.1795780
 104.0873720  28.0427200  48.0072020 102.7494240  27.3366510  47.9502560
 106.0049510  24.9310650  49.5633620 106.1245720  24.3351790  50.3028460
 106.8643510  24.9680340  49.1434920 108.3437410  25.4847840  48.1396130
 107.8172630  26.0090460  47.5361270 108.6868750  26.1175230  48.7705860
 100.7423800  22.8741210  34.5845840 100.5412860  22.0108570  34.9459180
 100.5715850  22.7874570  33.6467440 101.5193030  33.5047480  49.2953510
 100.9814120  34.2293540  48.9762210 101.7726990  33.0277820  48.5050850
 102.7718280  21.4732000  50.8209440 103.3617970  21.1647850  51.5087260
 101.9538520  21.0011750  50.9769340 107.5911710  21.0897810  51.0542460
 106.9027230  20.4279350  50.9892450 108.3117730  20.6436080  51.4990920
 108.2212110  17.6849440  37.1132720 108.5014400  16.8417340  37.4692140
 107.4477840  17.9172550  37.6271470  99.5406600  19.9741830  34.5723720
  99.8432500  19.9809260  33.6642870 100.2801190  19.6239690  35.0691380
 104.3755240  34.7398690  49.5540160 104.3013940  35.6433830  49.8612530
 103.4734080  34.4210590  49.5262230 102.7591530  18.9176450  35.5579920
 102.4113530  18.2400440  34.9782370 102.9604300  18.4565960  36.3723310
 104.9240570  33.9057200  37.1766520 105.8191360  34.2442170  37.1985280
 104.9558200  33.1836610  36.5490800  98.5636730  29.2784250  35.4053520
  99.0011600  29.8213920  36.0611100  99.0484460  28.4531200  35.4149860
  95.7782530  32.0673280  42.8573780  96.1085540  31.1994340  42.6252420
  96.2073530  32.2731800  43.6878740 100.3744450  30.3982290  40.5175750
 100.0739990  30.2747260  41.4179660 100.2681940  29.5390880  40.1091480
  96.2672740  32.9343870  45.5955410  95.8303730  33.1144670  46.4279560
  96.8350420  33.6918490  45.4537130 111.9034920  32.4360870  49.8832720
 111.3036910  32.4953430  49.1396640 112.0328820  31.4965850  50.0129570
 113.1436370  30.1778690  35.2202430 112.3129330  30.2455340  35.6909660
 113.3208200  31.0682810  34.9169290 112.5992830  26.9226170  37.7236630
 113.3611740  27.4922820  37.8296320 112.6147200  26.3553370  38.4944940
  96.0997170  25.4464100  41.9544290  95.4446010  25.1775740  41.3103990
  96.9375120  25.3368580  41.5046270 110.5886560  29.1612850  47.9808880
 109.7746400  29.5910010  48.2434670 110.9960760  29.7731260  47.3677930
 112.6512000  27.2160540  34.8809150 112.9260840  28.1239420  34.7528370
 112.4622740  27.1523070  35.8171140 109.0487610  20.2405390  36.1762780
 109.4672490  20.0536370  35.3359440 108.7423670  19.3884440  36.4865710
 112.5477340  25.1529530  39.8738580 112.1720940  24.3857460  39.4419870
 111.8180460  25.5352230  40.3613510  97.1373100  25.8316670  46.4947630
  97.5046140  25.7444070  47.3743650  96.5683920  25.0683220  46.3954490
 111.9376960  24.3001050  49.5078100 111.7063050  24.0713800  48.6076050
 112.1981510  25.2200600  49.4622990  96.6889100  22.7425760  50.4006050
  95.7945150  22.7092520  50.7399760  97.2286650  22.9412550  51.1657300
 110.3765030  19.5257480  52.2857800 111.2535210  19.5340880  52.6691800
 110.3885870  18.7888320  51.6750150  95.3135250  22.6563030  37.8969620
  94.4099330  22.9193230  37.7221280  95.7975870  22.9274200  37.1169580
 111.8228300  23.3787020  43.1745820 112.3465780  22.8849670  42.5435990
 112.4087720  23.5137380  43.9193390 112.0018020  23.4626890  46.6965370
 111.0520730  23.4290430  46.8110360 112.1831030  24.3727000  46.4615140
  97.8562460  21.7128570  35.8064000  98.5654160  21.2911790  35.3211280
  97.1402400  21.7803800  35.1747350  97.5036620  17.7667900  34.8466650
  98.2264750  18.3076840  35.1647870  97.7761140  17.4931320  33.9708190
 111.3128270  22.6360370  39.1138230 111.8087390  22.4031240  39.8987110
 111.1144340  21.7972210  38.6975870  97.1928810  17.0174090  44.7489270
  97.8405000  16.4671470  44.3084430  97.6130650  17.2717240  45.5705080
 111.0881150  17.2115450  48.1058910 111.7253370  17.8249590  48.4718100
 111.2356040  17.2476110  47.1608140 110.6462610  33.9131450  41.5077150
 111.2421680  33.5916020  40.8311570 110.9040760  33.4403270  42.2990420
  96.9460810  17.1729760  47.4914590  96.5975630  17.6293580  48.2572770
  96.6148510  16.2786890  47.5737020  98.5525180  30.3449360  51.6567780
  98.5094810  29.9742270  52.5382240  98.6836190  31.2826930  51.7969600
 102.2531210  31.9008950  47.2577500 102.0122570  32.1683510  46.3708020
 103.1933850  32.0714680  47.3128360 104.4585630  18.3641640  51.0134010
 104.3974520  18.9563470  51.7629420 105.3986010  18.2567600  50.8684270
 107.0960190  18.0211700  50.6526300 107.7100600  18.3390990  49.9907380
 107.6409750  17.5360290  51.2722160  97.6181450  16.7005960  50.7665360
  98.1664440  16.5194010  50.0031470  97.6836760  15.9100070  51.3021670
  98.3913210  33.2911610  48.7765560  97.7973530  33.1596310  49.5155600
  98.3837050  32.4549750  48.3107660 107.8368230  16.5843840  46.9795590
 106.9628070  16.9178950  46.7768520 107.7278980  16.1117020  47.8047460
 108.7440210  18.7914710  48.3637310 108.4153570  17.9766470  47.9839040
 109.6922510  18.7484520  48.2403000 111.1974820  34.5626750  45.3374880
 110.7377790  35.3142560  44.9632900 110.5687280  33.8433220  45.2789680
  98.0225440  30.6569990  47.7273600  97.2959500  30.0375280  47.6599550
  98.0834590  31.0510600  46.8571680 101.6270540  32.8714990  44.5123010
 102.1435560  32.2602350  43.9871270 102.2767920  33.3743770  45.0034020
 104.3666040  33.7623480  45.3391990 104.6543850  33.5077780  44.4625000
 104.8789260  33.2100840  45.9297560 105.5843050  17.5013680  45.9188500
 104.8014840  17.9759180  46.1985260 105.2905980  16.5968510  45.8101680
 110.1364120  18.2036780  43.9637590 110.5772210  18.1481880  43.1159190
 109.8671710  19.1194790  44.0347770 112.0002690  17.8352020  41.9746410
 111.9391090  16.8913240  41.8277430 112.7794720  17.9432110  42.5199870
  96.3055440  33.9744380  40.9370360  96.1377480  33.3415060  41.6352250
  95.4389950  34.1803780  40.5864550  96.9283460  17.8061160  38.4402220
  97.6862820  17.9190040  37.8666250  96.4660630  18.6430360  38.3945650
 103.4697270  19.9200430  41.4304530 102.6571780  19.5457320  41.0900410
 103.9738910  19.1645510  41.7325720 107.9722250  16.5842880  42.6687600
 108.5751620  17.1563090  43.1436120 107.2315240  17.1482320  42.4461500
 111.1156850  16.9864440  37.9427880 111.3107480  17.8847890  38.2095310
 110.3286720  16.7551520  38.4360830  97.9118140  32.6677610  38.3820500
  97.3865760  33.0485640  37.6782460  97.8362720  33.2928380  39.1030210
  99.3008610  18.3325210  36.9804190  99.8301370  17.5455010  36.8512140
  99.9336930  19.0116400  37.2139720 101.4946450  18.0700350  40.0349580
 100.8649190  17.3687660  40.2019710 100.9551590  18.8304480  39.8182740
 104.4338400  34.6839580  52.7060190 105.3605710  34.4483850  52.7496150
 104.4188830  35.5111580  52.2246220 112.6683460  34.2265150  39.7034440
 112.8435650  33.5402890  39.0595360 111.9705030  34.7512200  39.3111110
 101.6202010  17.3484330  52.4702070 101.3386280  17.8517930  51.7062890
 102.0021710  16.5506080  52.1044200 100.5111110  34.6159990  37.2569750
 101.2429930  34.3319270  36.7093640 100.7704780  34.3773270  38.1469130
  99.6725900  30.7324720  37.2616080  99.0434780  31.2009820  37.8101910
  99.7873730  29.8873940  37.6962270 108.2217470  16.7637910  53.0482540
 108.1082920  17.0832520  53.9434060 109.0387210  17.1650420  52.7519820
 111.0015960  33.9109440  52.5301230 111.7941280  33.4158670  52.3227190
 111.2949110  34.5899580  53.1376840 107.1275620  24.7830380  23.4117280
 107.0469670  23.8684990  23.1408990 106.7140040  25.2797450  22.7056990
 105.2593660  26.5609400  25.2926550 104.4835760  26.0809840  25.5825120
 105.9106590  25.8815050  25.1182710  99.2759490  26.8729210  26.1702310
  98.4444370  26.6177920  26.5698820  99.8840470  26.9439980  26.9060230
 109.2801090  30.9669590  24.0725680 108.8182620  30.1956830  24.4012850
 110.0926640  30.9935660  24.5778130  99.2560750  30.9069300  26.3660330
  99.5588790  30.0167040  26.1870550 100.0004340  31.4639520  26.1382580
  97.6851440  21.8331100  19.9544700  96.7968140  22.1747070  19.8524580
  97.9692630  21.6331420  19.0625530  95.6484450  24.4336750  25.8384400
  96.2200560  23.6658950  25.8388040  95.6485990  24.7325510  24.9291010
 105.5064400  33.2527600  23.6929670 104.8875840  33.7085100  23.1224110
 106.3616180  33.4079060  23.2919370 104.7002650  29.2366590  25.2996710
 104.6310930  28.2956530  25.1385840 105.4622510  29.3268000  25.8719280
  96.8909320  19.8421110  27.6253330  96.7112160  18.9446860  27.9056090
  96.4889400  20.3892980  28.3000280 105.7307820  22.0436970  25.5265640
 106.1072640  21.1708850  25.4139310 105.6327330  22.3795670  24.6356080
  99.8612830  20.4162600  20.9883080  99.9679580  21.3166330  21.2951840
  98.9505190  20.3680570  20.6977730 109.5131940  19.5387410  22.4593980
 110.3341560  19.0483980  22.5019460 109.5466020  20.1285070  23.2125820
  97.5095990  22.3381610  26.2335670  98.1906100  22.6019980  26.8523070
  97.1944040  21.4982480  26.5673680 101.7020560  23.3848970  25.3208260
 102.2098780  23.8829940  25.9613280 102.2333800  22.6084170  25.1447620
  99.9856660  18.0247530  29.5871680  99.9875100  18.5419920  28.7817580
  99.1560970  17.5477710  29.5641610 106.3727750  28.1366840  21.0861580
 105.7545020  28.6016290  20.5224300 106.8851000  28.8294320  21.5031090
 101.2359510  27.6642710  27.7645180 100.9028890  28.2911630  28.4066250
 101.4126190  28.1904590  26.9846850 109.7493420  21.4787790  25.2321520
 109.0448990  21.7672680  25.8124630 110.1105580  22.2887900  24.8721080
  99.6671990  19.7357490  27.5942130 100.0088800  20.5799540  27.2996000
  98.7287800  19.8841230  27.7107470 100.4478610  29.6323510  29.5794360
 101.0652610  30.3074590  29.2978810  99.5871730  30.0411490  29.4881860
  95.7410950  28.8223370  18.4601210  95.3638930  29.3110470  17.7286110
  95.9984020  29.4948650  19.0907740 111.3656200  31.0962920  27.4949000
 110.6819720  31.7662030  27.4865670 111.9050490  31.2943570  26.7293860
 112.8180340  20.9242580  25.6230730 111.8705250  20.9581560  25.7546160
 113.1430330  21.7381530  26.0080090 103.3499880  17.2239760  23.9186720
 103.6574860  16.6686650  23.2022220 102.4200580  17.3584220  23.7359710
 108.9014940  32.9407050  26.2094180 108.9142100  32.5369340  25.3416440
 108.3490160  33.7154340  26.1055610 110.1960360  29.6623270  21.2984350
 110.0856690  28.7197600  21.4233770 110.1928610  30.0238910  22.1847110
 108.3000380  27.8436890  27.5376790 108.7169170  27.6297000  26.7030250
 109.0240200  28.1009680  28.1085410 105.7380640  25.2888590  20.6546840
 104.8109920  25.2225970  20.8835310 105.8905460  26.2268720  20.5402080
 105.7249720  21.5605590  17.6514000 104.7853390  21.7219550  17.7366460
 106.0432980  22.2791270  17.1049990 112.2462480  26.2424110  27.6293030
 111.4181110  26.3117200  27.1543160 112.8412960  26.8278420  27.1608860
 109.7677930  26.8508890  21.1582090 109.1490350  26.5128440  20.5108390
 109.7502380  26.2068650  21.8661280 109.2104490  23.0293430  28.5747900
 108.7975670  23.8547140  28.8287890 108.4780440  22.4438470  28.3824260
 101.3437280  25.8153330  23.4366570 100.9394280  25.1030580  22.9412470
 101.4300400  25.4706570  24.3254610 101.8118980  29.5020890  25.6005780
 101.5147270  28.8966360  24.9213560 102.7618800  29.5398200  25.4895140
 100.0565900  22.5896540  27.2165610 100.6080490  22.6991880  26.4418860
 100.5709410  22.9634140  27.9320840 109.9004590  33.0752760  29.2628880
 109.4235150  33.8824950  29.0701490 109.2166380  32.4231090  29.4155090
 100.9037410  29.2402580  32.2513580 100.0065940  29.4642550  32.4986980
 100.9290280  29.3637520  31.3024980 107.9442630  26.0895700  18.1654840
 108.3835910  25.2518130  18.0192660 108.6571050  26.7225100  18.2518980
  99.7308630  26.1115900  30.8270950  99.5916400  26.9838700  31.1958350
  98.8489990  25.7688710  30.6818890 106.0538010  31.0291770  22.1336080
 106.4933920  31.7716100  21.7191470 105.9924900  31.2718340  23.0575040
 101.5288980  32.0537600  33.0356100 101.5004410  32.4580550  32.1684530
 101.3653950  31.1247960  32.8727700 111.5259770  17.3438510  16.4795880
 111.2132430  17.4365340  17.3794950 112.2872240  17.9219540  16.4293310
  98.0441910  24.7098310  20.9373220  97.9239510  25.4360400  20.3254490
  97.7342800  23.9401220  20.4601130  95.6827280  27.8813450  26.7441860
  95.7607700  28.0162220  25.7997580  96.2968960  27.1729340  26.9369980
  96.9274910  29.5813640  23.1548040  96.5202990  29.7228230  22.3001640
  97.8187920  29.2973800  22.9519250 112.8837050  30.0277550  31.4920280
 113.0100110  29.7889430  30.5737460 112.9258430  29.1962090  31.9642360
 106.7453790  33.7305550  30.0615090 107.2598460  33.6413560  30.8637520
 105.9022870  34.0765250  30.3543000 108.7208190  34.0160890  19.4899090
 108.5609330  33.7263830  20.3880920 108.5554900  33.2401020  18.9544320
 101.1996570  33.7959420  21.2670710 101.0239050  32.8794960  21.0538510
 100.3452310  34.1546710  21.5068510 108.4234320  31.5248450  18.0497090
 107.7299480  31.5225740  17.3899370 109.1657180  31.1007770  17.6191260
 107.9884250  33.1511160  22.1245580 108.4441200  32.3700540  22.4384200
 108.3276770  33.8617980  22.6686760 112.7361060  22.0810010  32.4570020
 112.1205330  22.5889680  31.9285480 112.4157480  21.1808340  32.3995960
  95.7386800  28.9227620  29.2836320  95.9017840  28.4532980  28.4655690
  96.2039250  28.4151180  29.9485160 100.5105570  18.0533380  24.3196890
 100.0673720  18.8342920  23.9881410 101.0690560  18.3763270  25.0267830
 104.7975380  20.9201900  29.9232210 104.3354750  21.1284920  30.7352150
 104.3953490  20.1061250  29.6202880 109.7979890  22.1410850  31.0528870
 108.9473480  21.8416600  31.3737940 109.6381680  22.3852860  30.1412690
 106.8929600  23.6412600  33.1527660 107.2183010  22.8076350  32.8129890
 107.6809930  24.1641120  33.3005990 103.6264390  17.6744080  19.2002720
 103.0018570  17.6703950  19.9256030 103.5394510  16.8075040  18.8038690
 102.5481470  18.5980710  26.1786490 102.8453800  19.5043540  26.0978510
 103.0967030  18.1099490  25.5646060 100.3019790  23.1766950  22.0478140
 100.0760710  22.9604120  22.9524760  99.5212320  23.6095410  21.7024110
 107.5317550  23.1830320  20.6468790 106.9326440  23.9066120  20.4632410
 108.0797160  23.1207100  19.8645240 102.7419000  24.0752530  32.7138410
 102.6462600  23.1347260  32.5638810 103.5850980  24.2967600  32.3186480
 106.1382420  21.8193860  22.6772070 106.5311990  22.1366060  21.8640760
 106.4999270  20.9405740  22.7916590  97.8729540  20.4866200  30.8672190
  97.4792930  21.3341410  31.0744970  97.1847940  19.8492570  31.0580830
 104.4474590  20.5701170  33.9368930 103.7572910  20.3773370  34.5715020
 105.1906890  20.8535810  34.4693230  95.1746590  18.4094660  24.9002270
  94.8859640  18.9797520  25.6127250  95.9192350  17.9299110  25.2633500
  95.3616820  22.3514780  16.1104990  95.2791490  23.2945540  16.2519980
  95.0099880  22.2089690  15.2317340 106.7237560  24.4099610  26.7722850
 105.9918680  24.9186420  27.1212950 106.3261900  23.5929590  26.4711630
 103.1614950  21.0853810  25.1775340 103.1651010  20.6443760  24.3279880
 104.0566070  21.4071140  25.2847160  99.0117330  20.9680300  24.1369550
  98.6717380  21.4455530  24.8936600  98.2494650  20.5145420  23.7770650
 103.2235100  22.0865890  18.1682100 103.3447920  22.0452370  19.1167920
 102.8383610  22.9490040  18.0128830 107.1863470  19.8633290  26.1845790
 107.2036210  20.3141940  27.0287640 106.9379050  18.9638930  26.3979230
 102.2356600  24.3967030  17.5665400 101.6673500  23.9485280  16.9401310
 102.9445600  24.7559810  17.0330550 110.6134220  17.2765470  32.0232170
 110.9379990  16.5455130  32.5490150 110.6490730  16.9579110  31.1213160
  97.3125780  28.2979050  31.4432130  96.9280570  27.6572720  32.0415090
  97.6237970  29.0015170  32.0126860 103.4622920  25.1455590  26.9240750
 103.8293050  24.6714160  27.6702090 103.2727980  26.0197160  27.2649090
  96.3263410  19.8899280  23.0534220  96.0410330  19.5254950  23.8912840
  96.2642270  19.1579740  22.4397360 101.2522290  24.1864230  29.2424960
 100.9479360  25.0656210  29.4675320 102.2068750  24.2464020  29.2782400
  99.7804080  28.3925220  19.8391810  99.0066340  27.8522840  19.6790530
 100.5098710  27.8731830  19.5009570 110.5392060  27.3890580  25.6318200
 111.2591180  27.8845870  25.2414310 110.3373880  26.7108470  24.9872070
 106.0002000  18.7828540  19.7747590 105.1866610  18.2841710  19.6992900
 105.8063950  19.6226790  19.3583940 105.9210860  27.4599640  31.5187200
 105.8548170  26.5395310  31.2644790 105.2916000  27.5575080  32.2331840
 108.7150390  23.1548190  18.0709750 109.6030010  23.4665420  17.8961090
 108.6855480  22.2820440  17.6790330  99.8241480  28.0605600  23.4770620
 100.3420150  27.2573860  23.4227510  99.3725500  27.9984740  24.3187450
 104.7110980  29.3271880  18.7497920 105.0526680  30.0714110  18.2541240
 103.8823690  29.6403000  19.1122750  97.3086020  25.0266970  30.3896320
  96.9500960  25.6920820  30.9769660  97.0140580  24.1950520  30.7608940
 100.5099140  25.4851210  33.2735870 100.2099280  25.6308390  32.3763690
 101.2810380  24.9256500  33.1809260 105.8527590  30.2820210  31.2691000
 105.8672130  29.3501170  31.0509910 105.1452690  30.3679970  31.9080770
 110.9864660  24.4660030  17.5389610 110.9028380  24.8974250  16.6886050
 111.7058850  24.9258380  17.9716430 112.0638800  26.9227550  30.6159580
 111.3386990  27.5156330  30.4188970 112.5914260  26.9151090  29.8172950
 112.0151910  31.3202290  20.2671740 111.3728070  30.6657910  20.5415460
 111.6282570  31.7257380  19.4912410 107.5938390  28.6487720  24.1143430
 107.9462210  28.0515850  23.4544800 106.7100720  28.3231950  24.2851680
 103.6801670  29.4085410  21.5213840 104.3672800  29.9554620  21.9021430
 102.8934090  29.9526140  21.5563450  95.8194070  25.0258230  17.0130920
  96.6888920  25.3083030  17.2966840  95.3284390  25.8394100  16.8979730
 102.9828880  26.4131440  21.1339200 103.4391660  27.2236690  21.3599390
 102.6317090  26.0954580  21.9657690 105.2861490  31.9237780  28.3631500
 105.9303710  32.1297160  29.0404920 105.6490930  31.1626180  27.9102350
  98.8840660  16.7569090  21.6061720  98.7555290  16.7486990  22.5546640
  98.0602680  17.0952180  21.2552730 106.5593570  29.9270130  27.0808950
 107.2015800  29.2263290  27.1941120 107.0842920  30.7068570  26.9005840
 110.4049290  30.2118750  16.8048090 110.1786870  29.4949190  17.3972730
 110.0145490  29.9631190  15.9669840 108.3331190  30.7265030  30.2845010
 108.6687430  31.3131720  30.9622930 107.4131530  30.5957740  30.5142800
  96.1865320  34.2385610  17.5792550  96.5462960  34.8374950  16.9249820
  96.0457660  34.7845500  18.3527580  95.8834590  18.5160210  31.0668420
  95.1693110  18.7157130  31.6721030  96.3029630  17.7399780  31.4383220
 109.9865540  28.1290690  18.4662250 109.6987240  28.5903380  19.2540130
 110.7817710  27.6688460  18.7346470  96.1707180  32.5040470  32.0534950
  96.2798300  31.5635210  31.9130340  95.5187740  32.7695220  31.4048680
 104.1619770  30.7756360  33.4533070 103.8416640  30.0565600  33.9978760
 103.4878130  31.4511430  33.5269130 102.2033940  31.6216810  18.3966220
 102.1944040  32.3546500  17.7810730 101.2832300  31.3748390  18.4893180
  97.8040580  26.8431700  19.1412980  97.1968530  27.5830600  19.1508280
  98.2789930  26.9331060  18.3151180 107.3773370  21.0082520  28.8169870
 107.7454190  20.1877730  29.1449440 106.5171570  21.0684410  29.2325520
 110.7435400  19.9639460  19.6257430 110.1148560  20.0685130  18.9115660
 110.2487320  20.1836240  20.4151310 105.1893540  31.6845050  17.0591410
 105.2905520  31.4809040  16.1293390 104.2895280  31.4303330  17.2639190
 102.7119430  22.2425410  21.0415310 102.0035580  22.7111750  21.4828920
 102.9963910  21.5847420  21.6760500 104.3375360  23.6622110  29.0407840
 104.8360610  24.1367930  29.7059690 104.4798310  22.7385630  29.2477870
 106.7434860  18.9676070  22.4811100 106.6202640  18.9862200  21.5320610
 107.6919420  19.0155010  22.6009500 103.8311650  34.2031370  21.7539080
 104.0853150  34.1652760  20.8318450 102.8824130  34.0764700  21.7467330
 100.9154450  20.5510490  18.4166020 101.7644980  20.9880640  18.3506210
 100.5485720  20.8630750  19.2438080 111.5442220  19.8790070  29.8836230
 111.0415820  20.6195470  30.2230040 112.3598880  20.2674070  29.5673020
 109.8364230  25.1223250  23.3297590 108.8954370  25.1373480  23.5045280
 110.1508300  24.3359210  23.7757890  99.8145870  26.8042850  16.8901550
 100.5809140  26.6924210  17.4526980  99.8920560  26.1080820  16.2378320
  98.5092630  24.2367920  17.5734440  98.5896220  23.2895430  17.6851840
  99.4012380  24.5674800  17.6795100 111.8389810  32.2932100  25.0051850
 111.9637230  33.1163270  25.4775660 112.7055370  32.0822830  24.6576000
  99.3107340  34.3863310  24.6768980 100.0469820  33.8378770  24.9477550
  99.6948260  35.2519320  24.5374970  96.1952820  30.4536880  20.5510490
  95.2692600  30.6958020  20.5415900  96.6609250  31.2811140  20.4295240
  98.3165620  33.5709380  33.8654560  99.1178350  33.8921430  34.2789960
  97.8017440  33.2104960  34.5874470 102.4209650  33.5593620  16.4994550
 103.2138260  33.8482450  16.0476340 101.9014000  33.1285790  15.8207030
 107.1530250  29.6789250  33.8129970 106.5468410  29.7020850  33.0725720
 106.8484360  28.9472290  34.3497220 108.5830620  33.4069540  32.4239380
 109.5352370  33.3227560  32.3739620 108.4358840  34.0711250  33.0973170
 111.4739820  32.7863750  17.9231290 111.1881330  32.3728890  17.1085470
 111.2759370  33.7151460  17.8031810  96.0363430  26.0582840  32.8090610
  96.5402450  25.4790120  33.3806840  95.2970850  26.3423070  33.3466980
 102.9387050  28.7797030  16.3636900 102.8337690  28.1649380  17.0898280
 102.7711270  28.2562920  15.5799910 103.0901370  27.4653830  32.3426130
 102.3247040  28.0338830  32.2580800 103.2717330  27.1730040  31.4494360
 106.1789780  27.8417060  16.9678890 105.6299880  28.2886360  17.6121630
 106.8009040  27.3366310  17.4916560 110.2324720  29.1959160  32.9001150
 110.9734190  29.5334920  32.3968610 109.4697400  29.3651220  32.3470920
  98.0686510  24.2012430  33.7040680  98.1091850  23.9026300  34.6125910
  98.9232010  24.6020040  33.5448200 101.8464900  26.8007980  18.8644190
 102.2681320  26.6347850  19.7075580 101.9715740  25.9908210  18.3699330
 100.0092320  22.7804530  31.6715170  99.4788780  22.2895480  31.0438510
 100.6780390  23.2088730  31.1373100 104.3592540  25.8245590  16.1121290
 104.8798200  25.1094610  15.7462440 105.0060940  26.4631460  16.4121800
 108.9070380  27.2473990  31.4356360 109.3211400  27.4019070  32.2846780
 107.9721380  27.3729210  31.5982140 109.3792550  24.5870150  33.4395510
 109.9613320  23.8322470  33.3515990 109.5554320  25.1177590  32.6626990
 100.4964620  19.7466900  31.7512460 100.4021490  19.1287650  31.0263330
  99.9162010  20.4733190  31.5242370 103.2626060  18.3040140  28.7839850
 102.8143360  18.3264400  27.9385400 102.6291260  17.9059160  29.3810150
 103.6685610  27.1994470  29.4052290 104.0873720  28.0427200  29.2328530
 102.7494240  27.3366510  29.1759070 106.0049510  24.9310650  30.7890130
 106.1245720  24.3351790  31.5284970 106.8643510  24.9680340  30.3691430
 108.3437410  25.4847840  29.3652640 107.8172630  26.0090460  28.7617780
 108.6868750  26.1175230  29.9962370 100.7423800  22.8741210  15.8102350
 100.5412860  22.0108570  16.1715690 100.5715850  22.7874570  14.8723950
 101.5193030  33.5047480  30.5210020 100.9814120  34.2293540  30.2018720
 101.7726990  33.0277820  29.7307360 102.7718280  21.4732000  32.0465950
 103.3617970  21.1647850  32.7343770 101.9538520  21.0011750  32.2025850
 107.5911710  21.0897810  32.2798970 106.9027230  20.4279350  32.2148960
 108.3117730  20.6436080  32.7247430 108.2212110  17.6849440  18.3389230
 108.5014400  16.8417340  18.6948650 107.4477840  17.9172550  18.8527980
  99.5406600  19.9741830  15.7980230  99.8432500  19.9809260  14.8899380
 100.2801190  19.6239690  16.2947890 104.3755240  34.7398690  30.7796670
 104.3013940  35.6433830  31.0869040 103.4734080  34.4210590  30.7518740
 102.7591530  18.9176450  16.7836430 102.4113530  18.2400440  16.2038880
 102.9604300  18.4565960  17.5979820 104.9240570  33.9057200  18.4023030
 105.8191360  34.2442170  18.4241790 104.9558200  33.1836610  17.7747310
  98.5636730  29.2784250  16.6310030  99.0011600  29.8213920  17.2867610
  99.0484460  28.4531200  16.6406370  95.7782530  32.0673280  24.0830290
  96.1085540  31.1994340  23.8508930  96.2073530  32.2731800  24.9135250
 100.3744450  30.3982290  21.7432260 100.0739990  30.2747260  22.6436170
 100.2681940  29.5390880  21.3347990  96.2672740  32.9343870  26.8211920
  95.8303730  33.1144670  27.6536070  96.8350420  33.6918490  26.6793640
 111.9034920  32.4360870  31.1089230 111.3036910  32.4953430  30.3653150
 112.0328820  31.4965850  31.2386080 113.1436370  30.1778690  16.4458940
 112.3129330  30.2455340  16.9166170 113.3208200  31.0682810  16.1425800
 112.5992830  26.9226170  18.9493140 113.3611740  27.4922820  19.0552830
 112.6147200  26.3553370  19.7201450  96.0997170  25.4464100  23.1800800
  95.4446010  25.1775740  22.5360500  96.9375120  25.3368580  22.7302780
 110.5886560  29.1612850  29.2065390 109.7746400  29.5910010  29.4691180
 110.9960760  29.7731260  28.5934440 112.6512000  27.2160540  16.1065660
 112.9260840  28.1239420  15.9784880 112.4622740  27.1523070  17.0427650
 109.0487610  20.2405390  17.4019290 109.4672490  20.0536370  16.5615950
 108.7423670  19.3884440  17.7122220 112.5477340  25.1529530  21.0995090
 112.1720940  24.3857460  20.6676380 111.8180460  25.5352230  21.5870020
  97.1373100  25.8316670  27.7204140  97.5046140  25.7444070  28.6000160
  96.5683920  25.0683220  27.6211000 111.9376960  24.3001050  30.7334610
 111.7063050  24.0713800  29.8332560 112.1981510  25.2200600  30.6879500
  96.6889100  22.7425760  31.6262560  95.7945150  22.7092520  31.9656270
  97.2286650  22.9412550  32.3913810 110.3765030  19.5257480  33.5114310
 111.2535210  19.5340880  33.8948310 110.3885870  18.7888320  32.9006660
  95.3135250  22.6563030  19.1226130  94.4099330  22.9193230  18.9477790
  95.7975870  22.9274200  18.3426090 111.8228300  23.3787020  24.4002330
 112.3465780  22.8849670  23.7692500 112.4087720  23.5137380  25.1449900
 112.0018020  23.4626890  27.9221880 111.0520730  23.4290430  28.0366870
 112.1831030  24.3727000  27.6871650  97.8562460  21.7128570  17.0320510
  98.5654160  21.2911790  16.5467790  97.1402400  21.7803800  16.4003860
  97.5036620  17.7667900  16.0723160  98.2264750  18.3076840  16.3904380
  97.7761140  17.4931320  15.1964700 111.3128270  22.6360370  20.3394740
 111.8087390  22.4031240  21.1243620 111.1144340  21.7972210  19.9232380
  97.1928810  17.0174090  25.9745780  97.8405000  16.4671470  25.5340940
  97.6130650  17.2717240  26.7961590 111.0881150  17.2115450  29.3315420
 111.7253370  17.8249590  29.6974610 111.2356040  17.2476110  28.3864650
 110.6462610  33.9131450  22.7333660 111.2421680  33.5916020  22.0568080
 110.9040760  33.4403270  23.5246930  96.9460810  17.1729760  28.7171100
  96.5975630  17.6293580  29.4829280  96.6148510  16.2786890  28.7993530
  98.5525180  30.3449360  32.8824290  98.5094810  29.9742270  33.7638750
  98.6836190  31.2826930  33.0226110 102.2531210  31.9008950  28.4834010
 102.0122570  32.1683510  27.5964530 103.1933850  32.0714680  28.5384870
 104.4585630  18.3641640  32.2390520 104.3974520  18.9563470  32.9885930
 105.3986010  18.2567600  32.0940780 107.0960190  18.0211700  31.8782810
 107.7100600  18.3390990  31.2163890 107.6409750  17.5360290  32.4978670
  97.6181450  16.7005960  31.9921870  98.1664440  16.5194010  31.2287980
  97.6836760  15.9100070  32.5278180  98.3913210  33.2911610  30.0022070
  97.7973530  33.1596310  30.7412110  98.3837050  32.4549750  29.5364170
 107.8368230  16.5843840  28.2052100 106.9628070  16.9178950  28.0025030
 107.7278980  16.1117020  29.0303970 108.7440210  18.7914710  29.5893820
 108.4153570  17.9766470  29.2095550 109.6922510  18.7484520  29.4659510
 111.1974820  34.5626750  26.5631390 110.7377790  35.3142560  26.1889410
 110.5687280  33.8433220  26.5046190  98.0225440  30.6569990  28.9530110
  97.2959500  30.0375280  28.8856060  98.0834590  31.0510600  28.0828190
 101.6270540  32.8714990  25.7379520 102.1435560  32.2602350  25.2127780
 102.2767920  33.3743770  26.2290530 104.3666040  33.7623480  26.5648500
 104.6543850  33.5077780  25.6881510 104.8789260  33.2100840  27.1554070
 105.5843050  17.5013680  27.1445010 104.8014840  17.9759180  27.4241770
 105.2905980  16.5968510  27.0358190 110.1364120  18.2036780  25.1894100
 110.5772210  18.1481880  24.3415700 109.8671710  19.1194790  25.2604280
 112.0002690  17.8352020  23.2002920 111.9391090  16.8913240  23.0533940
 112.7794720  17.9432110  23.7456380  96.3055440  33.9744380  22.1626870
  96.1377480  33.3415060  22.8608760  95.4389950  34.1803780  21.8121060
  96.9283460  17.8061160  19.6658730  97.6862820  17.9190040  19.0922760
  96.4660630  18.6430360  19.6202160 103.4697270  19.9200430  22.6561040
 102.6571780  19.5457320  22.3156920 103.9738910  19.1645510  22.9582230
 107.9722250  16.5842880  23.8944110 108.5751620  17.1563090  24.3692630
 107.2315240  17.1482320  23.6718010 111.1156850  16.9864440  19.1684390
 111.3107480  17.8847890  19.4351820 110.3286720  16.7551520  19.6617340
  97.9118140  32.6677610  19.6077010  97.3865760  33.0485640  18.9038970
  97.8362720  33.2928380  20.3286720  99.3008610  18.3325210  18.2060700
  99.8301370  17.5455010  18.0768650  99.9336930  19.0116400  18.4396230
 101.4946450  18.0700350  21.2606090 100.8649190  17.3687660  21.4276220
 100.9551590  18.8304480  21.0439250 104.4338400  34.6839580  33.9316700
 105.3605710  34.4483850  33.9752660 104.4188830  35.5111580  33.4502730
 112.6683460  34.2265150  20.9290950 112.8435650  33.5402890  20.2851870
 111.9705030  34.7512200  20.5367620 101.6202010  17.3484330  33.6958580
 101.3386280  17.8517930  32.9319400 102.0021710  16.5506080  33.3300710
 100.5111110  34.6159990  18.4826260 101.2429930  34.3319270  17.9350150
 100.7704780  34.3773270  19.3725640  99.6725900  30.7324720  18.4872590
  99.0434780  31.2009820  19.0358420  99.7873730  29.8873940  18.9218780
 108.2217470  16.7637910  34.2739050 108.1082920  17.0832520  35.1690570
 109.0387210  17.1650420  33.9776330 111.0015960  33.9109440  33.7557740
 111.7941280  33.4158670  33.5483700 111.2949110  34.5899580  34.3633350
 107.1275620  24.7830380   4.6373790 107.0469670  23.8684990   4.3665500
 106.7140040  25.2797450   3.9313500 105.2593660  26.5609400   6.5183060
 104.4835760  26.0809840   6.8081630 105.9106590  25.8815050   6.3439220
  99.2759490  26.8729210   7.3958820  98.4444370  26.6177920   7.7955330
  99.8840470  26.9439980   8.1316740 109.2801090  30.9669590   5.2982190
 108.8182620  30.1956830   5.6269360 110.0926640  30.9935660   5.8034640
  99.2560750  30.9069300   7.5916840  99.5588790  30.0167040   7.4127060
 100.0004340  31.4639520   7.3639090  95.6484450  24.4336750   7.0640910
  96.2200560  23.6658950   7.0644550  95.6485990  24.7325510   6.1547520
 105.5064400  33.2527600   4.9186180 104.8875840  33.7085100   4.3480620
 106.3616180  33.4079060   4.5175880 104.7002650  29.2366590   6.5253220
 104.6310930  28.2956530   6.3642350 105.4622510  29.3268000   7.0975790
  96.8909320  19.8421110   8.8509840  96.7112160  18.9446860   9.1312600
  96.4889400  20.3892980   9.5256790 105.7307820  22.0436970   6.7522150
 106.1072640  21.1708850   6.6395820 105.6327330  22.3795670   5.8612590
  99.8612830  20.4162600   2.2139590  99.9679580  21.3166330   2.5208350
  98.9505190  20.3680570   1.9234240 109.5131940  19.5387410   3.6850490
 110.3341560  19.0483980   3.7275970 109.5466020  20.1285070   4.4382330
  97.5095990  22.3381610   7.4592180  98.1906100  22.6019980   8.0779580
  97.1944040  21.4982480   7.7930190 101.7020560  23.3848970   6.5464770
 102.2098780  23.8829940   7.1869790 102.2333800  22.6084170   6.3704130
  99.9856660  18.0247530  10.8128190  99.9875100  18.5419920  10.0074090
  99.1560970  17.5477710  10.7898120 106.3727750  28.1366840   2.3118090
 105.7545020  28.6016290   1.7480810 106.8851000  28.8294320   2.7287600
 101.2359510  27.6642710   8.9901690 100.9028890  28.2911630   9.6322760
 101.4126190  28.1904590   8.2103360 109.7493420  21.4787790   6.4578030
 109.0448990  21.7672680   7.0381140 110.1105580  22.2887900   6.0977590
  99.6671990  19.7357490   8.8198640 100.0088800  20.5799540   8.5252510
  98.7287800  19.8841230   8.9363980 100.4478610  29.6323510  10.8050870
 101.0652610  30.3074590  10.5235320  99.5871730  30.0411490  10.7138370
 111.3656200  31.0962920   8.7205510 110.6819720  31.7662030   8.7122180
 111.9050490  31.2943570   7.9550370 112.8180340  20.9242580   6.8487240
 111.8705250  20.9581560   6.9802670 113.1430330  21.7381530   7.2336600
 103.3499880  17.2239760   5.1443230 103.6574860  16.6686650   4.4278730
 102.4200580  17.3584220   4.9616220 108.9014940  32.9407050   7.4350690
 108.9142100  32.5369340   6.5672950 108.3490160  33.7154340   7.3312120
 110.1960360  29.6623270   2.5240860 110.0856690  28.7197600   2.6490280
 110.1928610  30.0238910   3.4103620 108.3000380  27.8436890   8.7633300
 108.7169170  27.6297000   7.9286760 109.0240200  28.1009680   9.3341920
 105.7380640  25.2888590   1.8803350 104.8109920  25.2225970   2.1091820
 105.8905460  26.2268720   1.7658590 112.2462480  26.2424110   8.8549540
 111.4181110  26.3117200   8.3799670 112.8412960  26.8278420   8.3865370
 109.7677930  26.8508890   2.3838600 109.1490350  26.5128440   1.7364900
 109.7502380  26.2068650   3.0917790 109.2104490  23.0293430   9.8004410
 108.7975670  23.8547140  10.0544400 108.4780440  22.4438470   9.6080770
 101.3437280  25.8153330   4.6623080 100.9394280  25.1030580   4.1668980
 101.4300400  25.4706570   5.5511120 101.8118980  29.5020890   6.8262290
 101.5147270  28.8966360   6.1470070 102.7618800  29.5398200   6.7151650
 100.0565900  22.5896540   8.4422120 100.6080490  22.6991880   7.6675370
 100.5709410  22.9634140   9.1577350 109.9004590  33.0752760  10.4885390
 109.4235150  33.8824950  10.2958000 109.2166380  32.4231090  10.6411600
 100.9037410  29.2402580  13.4770090 100.0065940  29.4642550  13.7243490
 100.9290280  29.3637520  12.5281490  99.7308630  26.1115900  12.0527460
  99.5916400  26.9838700  12.4214860  98.8489990  25.7688710  11.9075400
 106.0538010  31.0291770   3.3592590 106.4933920  31.7716100   2.9447980
 105.9924900  31.2718340   4.2831550 101.5288980  32.0537600  14.2612610
 101.5004410  32.4580550  13.3941040 101.3653950  31.1247960  14.0984210
  95.6827280  27.8813450   7.9698370  95.7607700  28.0162220   7.0254090
  96.2968960  27.1729340   8.1626490  96.9274910  29.5813640   4.3804550
  96.5202990  29.7228230   3.5258150  97.8187920  29.2973800   4.1775760
 112.8837050  30.0277550  12.7176790 113.0100110  29.7889430  11.7993970
 112.9258430  29.1962090  13.1898870 106.7453790  33.7305550  11.2871600
 107.2598460  33.6413560  12.0894030 105.9022870  34.0765250  11.5799510
 101.1996570  33.7959420   2.4927220 101.0239050  32.8794960   2.2795020
 100.3452310  34.1546710   2.7325020 107.9884250  33.1511160   3.3502090
 108.4441200  32.3700540   3.6640710 108.3276770  33.8617980   3.8943270
 112.7361060  22.0810010  13.6826530 112.1205330  22.5889680  13.1541990
 112.4157480  21.1808340  13.6252470  95.7386800  28.9227620  10.5092830
  95.9017840  28.4532980   9.6912200  96.2039250  28.4151180  11.1741670
 100.5105570  18.0533380   5.5453400 100.0673720  18.8342920   5.2137920
 101.0690560  18.3763270   6.2524340 104.7975380  20.9201900  11.1488720
 104.3354750  21.1284920  11.9608660 104.3953490  20.1061250  10.8459390
 109.7979890  22.1410850  12.2785380 108.9473480  21.8416600  12.5994450
 109.6381680  22.3852860  11.3669200 106.8929600  23.6412600  14.3784170
 107.2183010  22.8076350  14.0386400 107.6809930  24.1641120  14.5262500
 102.5481470  18.5980710   7.4043000 102.8453800  19.5043540   7.3235020
 103.0967030  18.1099490   6.7902570 100.3019790  23.1766950   3.2734650
 100.0760710  22.9604120   4.1781270  99.5212320  23.6095410   2.9280620
 102.7419000  24.0752530  13.9394920 102.6462600  23.1347260  13.7895320
 103.5850980  24.2967600  13.5442990 106.1382420  21.8193860   3.9028580
 106.5311990  22.1366060   3.0897270 106.4999270  20.9405740   4.0173100
  97.8729540  20.4866200  12.0928700  97.4792930  21.3341410  12.3001480
  97.1847940  19.8492570  12.2837340 104.4474590  20.5701170  15.1625440
 103.7572910  20.3773370  15.7971530 105.1906890  20.8535810  15.6949740
  95.1746590  18.4094660   6.1258780  94.8859640  18.9797520   6.8383760
  95.9192350  17.9299110   6.4890010 106.7237560  24.4099610   7.9979360
 105.9918680  24.9186420   8.3469460 106.3261900  23.5929590   7.6968140
 103.1614950  21.0853810   6.4031850 103.1651010  20.6443760   5.5536390
 104.0566070  21.4071140   6.5103670  99.0117330  20.9680300   5.3626060
  98.6717380  21.4455530   6.1193110  98.2494650  20.5145420   5.0027160
 107.1863470  19.8633290   7.4102300 107.2036210  20.3141940   8.2544150
 106.9379050  18.9638930   7.6235740 110.6134220  17.2765470  13.2488680
 110.9379990  16.5455130  13.7746660 110.6490730  16.9579110  12.3469670
  97.3125780  28.2979050  12.6688640  96.9280570  27.6572720  13.2671600
  97.6237970  29.0015170  13.2383370 103.4622920  25.1455590   8.1497260
 103.8293050  24.6714160   8.8958600 103.2727980  26.0197160   8.4905600
  96.3263410  19.8899280   4.2790730  96.0410330  19.5254950   5.1169350
  96.2642270  19.1579740   3.6653870 101.2522290  24.1864230  10.4681470
 100.9479360  25.0656210  10.6931830 102.2068750  24.2464020  10.5038910
 110.5392060  27.3890580   6.8574710 111.2591180  27.8845870   6.4670820
 110.3373880  26.7108470   6.2128580 105.9210860  27.4599640  12.7443710
 105.8548170  26.5395310  12.4901300 105.2916000  27.5575080  13.4588350
  99.8241480  28.0605600   4.7027130 100.3420150  27.2573860   4.6484020
  99.3725500  27.9984740   5.5443960  97.3086020  25.0266970  11.6152830
  96.9500960  25.6920820  12.2026170  97.0140580  24.1950520  11.9865450
 100.5099140  25.4851210  14.4992380 100.2099280  25.6308390  13.6020200
 101.2810380  24.9256500  14.4065770 105.8527590  30.2820210  12.4947510
 105.8672130  29.3501170  12.2766420 105.1452690  30.3679970  13.1337280
 112.0638800  26.9227550  11.8416090 111.3386990  27.5156330  11.6445480
 112.5914260  26.9151090  11.0429460 107.5938390  28.6487720   5.3399940
 107.9462210  28.0515850   4.6801310 106.7100720  28.3231950   5.5108190
 103.6801670  29.4085410   2.7470350 104.3672800  29.9554620   3.1277940
 102.8934090  29.9526140   2.7819960 102.9828880  26.4131440   2.3595710
 103.4391660  27.2236690   2.5855900 102.6317090  26.0954580   3.1914200
 105.2861490  31.9237780   9.5888010 105.9303710  32.1297160  10.2661430
 105.6490930  31.1626180   9.1358860  98.8840660  16.7569090   2.8318230
  98.7555290  16.7486990   3.7803150  98.0602680  17.0952180   2.4809240
 106.5593570  29.9270130   8.3065460 107.2015800  29.2263290   8.4197630
 107.0842920  30.7068570   8.1262350 108.3331190  30.7265030  11.5101520
 108.6687430  31.3131720  12.1879440 107.4131530  30.5957740  11.7399310
  95.8834590  18.5160210  12.2924930  95.1693110  18.7157130  12.8977540
  96.3029630  17.7399780  12.6639730  96.1707180  32.5040470  13.2791460
  96.2798300  31.5635210  13.1386850  95.5187740  32.7695220  12.6305190
 104.1619770  30.7756360  14.6789580 103.8416640  30.0565600  15.2235270
 103.4878130  31.4511430  14.7525640 107.3773370  21.0082520  10.0426380
 107.7454190  20.1877730  10.3705950 106.5171570  21.0684410  10.4582030
 102.7119430  22.2425410   2.2671820 102.0035580  22.7111750   2.7085430
 102.9963910  21.5847420   2.9017010 104.3375360  23.6622110  10.2664350
 104.8360610  24.1367930  10.9316200 104.4798310  22.7385630  10.4734380
 106.7434860  18.9676070   3.7067610 106.6202640  18.9862200   2.7577120
 107.6919420  19.0155010   3.8266010 103.8311650  34.2031370   2.9795590
 104.0853150  34.1652760   2.0574960 102.8824130  34.0764700   2.9723840
 111.5442220  19.8790070  11.1092740 111.0415820  20.6195470  11.4486550
 112.3598880  20.2674070  10.7929530 109.8364230  25.1223250   4.5554100
 108.8954370  25.1373480   4.7301790 110.1508300  24.3359210   5.0014400
 111.8389810  32.2932100   6.2308360 111.9637230  33.1163270   6.7032170
 112.7055370  32.0822830   5.8832510  99.3107340  34.3863310   5.9025490
 100.0469820  33.8378770   6.1734060  99.6948260  35.2519320   5.7631480
  96.1952820  30.4536880   1.7767000  95.2692600  30.6958020   1.7672410
  96.6609250  31.2811140   1.6551750  98.3165620  33.5709380  15.0911070
  99.1178350  33.8921430  15.5046470  97.8017440  33.2104960  15.8130980
 107.1530250  29.6789250  15.0386480 106.5468410  29.7020850  14.2982230
 106.8484360  28.9472290  15.5753730 108.5830620  33.4069540  13.6495890
 109.5352370  33.3227560  13.5996130 108.4358840  34.0711250  14.3229680
  96.0363430  26.0582840  14.0347120  96.5402450  25.4790120  14.6063350
  95.2970850  26.3423070  14.5723490 103.0901370  27.4653830  13.5682640
 102.3247040  28.0338830  13.4837310 103.2717330  27.1730040  12.6750870
 110.2324720  29.1959160  14.1257660 110.9734190  29.5334920  13.6225120
 109.4697400  29.3651220  13.5727430  98.0686510  24.2012430  14.9297190
  98.1091850  23.9026300  15.8382420  98.9232010  24.6020040  14.7704710
 100.0092320  22.7804530  12.8971680  99.4788780  22.2895480  12.2695020
 100.6780390  23.2088730  12.3629610 108.9070380  27.2473990  12.6612870
 109.3211400  27.4019070  13.5103290 107.9721380  27.3729210  12.8238650
 109.3792550  24.5870150  14.6652020 109.9613320  23.8322470  14.5772500
 109.5554320  25.1177590  13.8883500 100.4964620  19.7466900  12.9768970
 100.4021490  19.1287650  12.2519840  99.9162010  20.4733190  12.7498880
 103.2626060  18.3040140  10.0096360 102.8143360  18.3264400   9.1641910
 102.6291260  17.9059160  10.6066660 103.6685610  27.1994470  10.6308800
 104.0873720  28.0427200  10.4585040 102.7494240  27.3366510  10.4015580
 106.0049510  24.9310650  12.0146640 106.1245720  24.3351790  12.7541480
 106.8643510  24.9680340  11.5947940 108.3437410  25.4847840  10.5909150
 107.8172630  26.0090460   9.9874290 108.6868750  26.1175230  11.2218880
 101.5193030  33.5047480  11.7466530 100.9814120  34.2293540  11.4275230
 101.7726990  33.0277820  10.9563870 102.7718280  21.4732000  13.2722460
 103.3617970  21.1647850  13.9600280 101.9538520  21.0011750  13.4282360
 107.5911710  21.0897810  13.5055480 106.9027230  20.4279350  13.4405470
 108.3117730  20.6436080  13.9503940 104.3755240  34.7398690  12.0053180
 104.3013940  35.6433830  12.3125550 103.4734080  34.4210590  11.9775250
  95.7782530  32.0673280   5.3086800  96.1085540  31.1994340   5.0765440
  96.2073530  32.2731800   6.1391760 100.3744450  30.3982290   2.9688770
 100.0739990  30.2747260   3.8692680 100.2681940  29.5390880   2.5604500
  96.2672740  32.9343870   8.0468430  95.8303730  33.1144670   8.8792580
  96.8350420  33.6918490   7.9050150 111.9034920  32.4360870  12.3345740
 111.3036910  32.4953430  11.5909660 112.0328820  31.4965850  12.4642590
  96.0997170  25.4464100   4.4057310  95.4446010  25.1775740   3.7617010
  96.9375120  25.3368580   3.9559290 110.5886560  29.1612850  10.4321900
 109.7746400  29.5910010  10.6947690 110.9960760  29.7731260   9.8190950
 112.5477340  25.1529530   2.3251600 112.1720940  24.3857460   1.8932890
 111.8180460  25.5352230   2.8126530  97.1373100  25.8316670   8.9460650
  97.5046140  25.7444070   9.8256670  96.5683920  25.0683220   8.8467510
 111.9376960  24.3001050  11.9591120 111.7063050  24.0713800  11.0589070
 112.1981510  25.2200600  11.9136010  96.6889100  22.7425760  12.8519070
  95.7945150  22.7092520  13.1912780  97.2286650  22.9412550  13.6170320
 110.3765030  19.5257480  14.7370820 111.2535210  19.5340880  15.1204820
 110.3885870  18.7888320  14.1263170 111.8228300  23.3787020   5.6258840
 112.3465780  22.8849670   4.9949010 112.4087720  23.5137380   6.3706410
 112.0018020  23.4626890   9.1478390 111.0520730  23.4290430   9.2623380
 112.1831030  24.3727000   8.9128160  97.1928810  17.0174090   7.2002290
  97.8405000  16.4671470   6.7597450  97.6130650  17.2717240   8.0218100
 111.0881150  17.2115450  10.5571930 111.7253370  17.8249590  10.9231120
 111.2356040  17.2476110   9.6121160 110.6462610  33.9131450   3.9590170
 111.2421680  33.5916020   3.2824590 110.9040760  33.4403270   4.7503440
  96.9460810  17.1729760   9.9427610  96.5975630  17.6293580  10.7085790
  96.6148510  16.2786890  10.0250040  98.5525180  30.3449360  14.1080800
  98.5094810  29.9742270  14.9895260  98.6836190  31.2826930  14.2482620
 102.2531210  31.9008950   9.7090520 102.0122570  32.1683510   8.8221040
 103.1933850  32.0714680   9.7641380 104.4585630  18.3641640  13.4647030
 104.3974520  18.9563470  14.2142440 105.3986010  18.2567600  13.3197290
 107.0960190  18.0211700  13.1039320 107.7100600  18.3390990  12.4420400
 107.6409750  17.5360290  13.7235180  97.6181450  16.7005960  13.2178380
  98.1664440  16.5194010  12.4544490  97.6836760  15.9100070  13.7534690
  98.3913210  33.2911610  11.2278580  97.7973530  33.1596310  11.9668620
  98.3837050  32.4549750  10.7620680 107.8368230  16.5843840   9.4308610
 106.9628070  16.9178950   9.2281540 107.7278980  16.1117020  10.2560480
 108.7440210  18.7914710  10.8150330 108.4153570  17.9766470  10.4352060
 109.6922510  18.7484520  10.6916020 111.1974820  34.5626750   7.7887900
 110.7377790  35.3142560   7.4145920 110.5687280  33.8433220   7.7302700
  98.0225440  30.6569990  10.1786620  97.2959500  30.0375280  10.1112570
  98.0834590  31.0510600   9.3084700 101.6270540  32.8714990   6.9636030
 102.1435560  32.2602350   6.4384290 102.2767920  33.3743770   7.4547040
 104.3666040  33.7623480   7.7905010 104.6543850  33.5077780   6.9138020
 104.8789260  33.2100840   8.3810580 105.5843050  17.5013680   8.3701520
 104.8014840  17.9759180   8.6498280 105.2905980  16.5968510   8.2614700
 110.1364120  18.2036780   6.4150610 110.5772210  18.1481880   5.5672210
 109.8671710  19.1194790   6.4860790 112.0002690  17.8352020   4.4259430
 111.9391090  16.8913240   4.2790450 112.7794720  17.9432110   4.9712890
  96.3055440  33.9744380   3.3883380  96.1377480  33.3415060   4.0865270
  95.4389950  34.1803780   3.0377570 103.4697270  19.9200430   3.8817550
 102.6571780  19.5457320   3.5413430 103.9738910  19.1645510   4.1838740
 107.9722250  16.5842880   5.1200620 108.5751620  17.1563090   5.5949140
 107.2315240  17.1482320   4.8974520 101.4946450  18.0700350   2.4862600
 100.8649190  17.3687660   2.6532730 100.9551590  18.8304480   2.2695760
 104.4338400  34.6839580  15.1573210 105.3605710  34.4483850  15.2009170
 104.4188830  35.5111580  14.6759240 101.6202010  17.3484330  14.9215090
 101.3386280  17.8517930  14.1575910 102.0021710  16.5506080  14.5557220
 108.2217470  16.7637910  15.4995560 108.1082920  17.0832520  16.3947080
 109.0387210  17.1650420  15.2032840 111.0015960  33.9109440  14.9814250
 111.7941280  33.4158670  14.7740210 111.2949110  34.5899580  15.5889860
 107.1275620   6.0086890  79.7347750 107.0469670   5.0941500  79.4639460
 106.7140040   6.5053960  79.0287460 105.2593660   7.7865910  81.6157020
 104.4835760   7.3066350  81.9055590 105.9106590   7.1071560  81.4413180
  99.2759490   8.0985720  82.4932780  98.4444370   7.8434430  82.8929290
  99.8840470   8.1696490  83.2290700 109.2801090  12.1926100  80.3956150
 108.8182620  11.4213340  80.7243320 110.0926640  12.2192170  80.9008600
  99.2560750  12.1325810  82.6890800  99.5588790  11.2423550  82.5101020
 100.0004340  12.6896030  82.4613050  97.6851440   3.0587610  76.2775170
  96.7968140   3.4003580  76.1755050  97.9692630   2.8587930  75.3856000
  95.6484450   5.6593260  82.1614870  96.2200560   4.8915460  82.1618510
  95.6485990   5.9582020  81.2521480 105.5064400  14.4784110  80.0160140
 104.8875840  14.9341610  79.4454580 106.3616180  14.6335570  79.6149840
 104.7002650  10.4623100  81.6227180 104.6310930   9.5213040  81.4616310
 105.4622510  10.5524510  82.1949750 105.7307820   3.2693480  81.8496110
 106.1072640   2.3965360  81.7369780 105.6327330   3.6052180  80.9586550
  97.5095990   3.5638120  82.5566140  98.1906100   3.8276490  83.1753540
  97.1944040   2.7238990  82.8904150 101.7020560   4.6105480  81.6438730
 102.2098780   5.1086450  82.2843750 102.2333800   3.8340680  81.4678090
 106.3727750   9.3623350  77.4092050 105.7545020   9.8272800  76.8454770
 106.8851000  10.0550830  77.8261560 101.2359510   8.8899220  84.0875650
 100.9028890   9.5168140  84.7296720 101.4126190   9.4161100  83.3077320
 109.7493420   2.7044300  81.5551990 109.0448990   2.9929190  82.1355100
 110.1105580   3.5144410  81.1951550 100.4478610  10.8580020  85.9024830
 101.0652610  11.5331100  85.6209280  99.5871730  11.2668000  85.8112330
  95.7410950  10.0479880  74.7831680  95.3638930  10.5366980  74.0516580
  95.9984020  10.7205160  75.4138210 111.3656200  12.3219430  83.8179470
 110.6819720  12.9918540  83.8096140 111.9050490  12.5200080  83.0524330
 112.8180340   2.1499090  81.9461200 111.8705250   2.1838070  82.0776630
 113.1430330   2.9638040  82.3310560 108.9014940  14.1663560  82.5324650
 108.9142100  13.7625850  81.6646910 108.3490160  14.9410850  82.4286080
 110.1960360  10.8879780  77.6214820 110.0856690   9.9454110  77.7464240
 110.1928610  11.2495420  78.5077580 108.3000380   9.0693400  83.8607260
 108.7169170   8.8553510  83.0260720 109.0240200   9.3266190  84.4315880
 105.7380640   6.5145100  76.9777310 104.8109920   6.4482480  77.2065780
 105.8905460   7.4525230  76.8632550 105.7249720   2.7862100  73.9744470
 104.7853390   2.9476060  74.0596930 106.0432980   3.5047780  73.4280460
 112.2462480   7.4680620  83.9523500 111.4181110   7.5373710  83.4773630
 112.8412960   8.0534930  83.4839330 109.7677930   8.0765400  77.4812560
 109.1490350   7.7384950  76.8338860 109.7502380   7.4325160  78.1891750
 109.2104490   4.2549940  84.8978370 108.7975670   5.0803650  85.1518360
 108.4780440   3.6694980  84.7054730 101.3437280   7.0409840  79.7597040
 100.9394280   6.3287090  79.2642940 101.4300400   6.6963080  80.6485080
 101.8118980  10.7277400  81.9236250 101.5147270  10.1222870  81.2444030
 102.7618800  10.7654710  81.8125610 100.0565900   3.8153050  83.5396080
 100.6080490   3.9248390  82.7649330 100.5709410   4.1890650  84.2551310
 109.9004590  14.3009270  85.5859350 109.4235150  15.1081460  85.3931960
 109.2166380  13.6487600  85.7385560 107.9442630   7.3152210  74.4885310
 108.3835910   6.4774640  74.3423130 108.6571050   7.9481610  74.5749450
 106.0538010  12.2548280  78.4566550 106.4933920  12.9972610  78.0421940
 105.9924900  12.4974850  79.3805510  98.0441910   5.9354820  77.2603690
  97.9239510   6.6616910  76.6484960  97.7342800   5.1657730  76.7831600
  95.6827280   9.1069960  83.0672330  95.7607700   9.2418730  82.1228050
  96.2968960   8.3985850  83.2600450  96.9274910  10.8070150  79.4778510
  96.5202990  10.9484740  78.6232110  97.8187920  10.5230310  79.2749720
 108.7208190  15.2417400  75.8129560 108.5609330  14.9520340  76.7111390
 108.5554900  14.4657530  75.2774790 101.1996570  15.0215930  77.5901180
 101.0239050  14.1051470  77.3768980 100.3452310  15.3803220  77.8298980
 108.4234320  12.7504960  74.3727560 107.7299480  12.7482250  73.7129840
 109.1657180  12.3264280  73.9421730 107.9884250  14.3767670  78.4476050
 108.4441200  13.5957050  78.7614670 108.3276770  15.0874490  78.9917230
 100.3019790   4.4023460  78.3708610 100.0760710   4.1860630  79.2755230
  99.5212320   4.8351920  78.0254580 107.5317550   4.4086830  76.9699260
 106.9326440   5.1322630  76.7862880 108.0797160   4.3463610  76.1875710
 106.1382420   3.0450370  79.0002540 106.5311990   3.3622570  78.1871230
 106.4999270   2.1662250  79.1147060  95.3616820   3.5771290  72.4335460
  95.2791490   4.5202050  72.5750450  95.0099880   3.4346200  71.5547810
 106.7237560   5.6356120  83.0953320 105.9918680   6.1442930  83.4443420
 106.3261900   4.8186100  82.7942100 103.1614950   2.3110320  81.5005810
 103.1651010   1.8700270  80.6510350 104.0566070   2.6327650  81.6077630
  99.0117330   2.1936810  80.4600020  98.6717380   2.6712040  81.2167070
  98.2494650   1.7401930  80.1001120 103.2235100   3.3122400  74.4912570
 103.3447920   3.2708880  75.4398390 102.8383610   4.1746550  74.3359300
 102.2356600   5.6223540  73.8895870 101.6673500   5.1741790  73.2631780
 102.9445600   5.9816320  73.3561020 103.4622920   6.3712100  83.2471220
 103.8293050   5.8970670  83.9932560 103.2727980   7.2453670  83.5879560
 101.2522290   5.4120740  85.5655430 100.9479360   6.2912720  85.7905790
 102.2068750   5.4720530  85.6012870  99.7804080   9.6181730  76.1622280
  99.0066340   9.0779350  76.0021000 100.5098710   9.0988340  75.8240040
 110.5392060   8.6147090  81.9548670 111.2591180   9.1102380  81.5644780
 110.3373880   7.9364980  81.3102540 108.7150390   4.3804700  74.3940220
 109.6030010   4.6921930  74.2191560 108.6855480   3.5076950  74.0020800
  99.8241480   9.2862110  79.8001090 100.3420150   8.4830370  79.7457980
  99.3725500   9.2241250  80.6417920 104.7110980  10.5528390  75.0728390
 105.0526680  11.2970620  74.5771710 103.8823690  10.8659510  75.4353220
 110.9864660   5.6916540  73.8620080 110.9028380   6.1230760  73.0116520
 111.7058850   6.1514890  74.2946900 112.0151910  12.5458800  76.5902210
 111.3728070  11.8914420  76.8645930 111.6282570  12.9513890  75.8142880
 107.5938390   9.8744230  80.4373900 107.9462210   9.2772360  79.7775270
 106.7100720   9.5488460  80.6082150 103.6801670  10.6341920  77.8444310
 104.3672800  11.1811130  78.2251900 102.8934090  11.1782650  77.8793920
  95.8194070   6.2514740  73.3361390  96.6888920   6.5339540  73.6197310
  95.3284390   7.0650610  73.2210200 102.9828880   7.6387950  77.4569670
 103.4391660   8.4493200  77.6829860 102.6317090   7.3211090  78.2888160
 105.2861490  13.1494290  84.6861970 105.9303710  13.3553670  85.3635390
 105.6490930  12.3882690  84.2332820 106.5593570  11.1526640  83.4039420
 107.2015800  10.4519800  83.5171590 107.0842920  11.9325080  83.2236310
 110.4049290  11.4375260  73.1278560 110.1786870  10.7205700  73.7203200
 110.0145490  11.1887700  72.2900310  96.1865320  15.4642120  73.9023020
  96.5462960  16.0631460  73.2480290  96.0457660  16.0102010  74.6758050
 109.9865540   9.3547200  74.7892720 109.6987240   9.8159890  75.5770600
 110.7817710   8.8944970  75.0576940 102.2033940  12.8473320  74.7196690
 102.1944040  13.5803010  74.1041200 101.2832300  12.6004900  74.8123650
  97.8040580   8.0688210  75.4643450  97.1968530   8.8087110  75.4738750
  98.2789930   8.1587570  74.6381650 105.1893540  12.9101560  73.3821880
 105.2905520  12.7065550  72.4523860 104.2895280  12.6559840  73.5869660
 102.7119430   3.4681920  77.3645780 102.0035580   3.9368260  77.8059390
 102.9963910   2.8103930  77.9990970 103.8311650  15.4287880  78.0769550
 104.0853150  15.3909270  77.1548920 102.8824130  15.3021210  78.0697800
 100.9154450   1.7767000  74.7396490 101.7644980   2.2137150  74.6736680
 100.5485720   2.0887260  75.5668550 109.8364230   6.3479760  79.6528060
 108.8954370   6.3629990  79.8275750 110.1508300   5.5615720  80.0988360
  99.8145870   8.0299360  73.2132020 100.5809140   7.9180720  73.7757450
  99.8920560   7.3337330  72.5608790  98.5092630   5.4624430  73.8964910
  98.5896220   4.5151940  74.0082310  99.4012380   5.7931310  74.0025570
 111.8389810  13.5188610  81.3282320 111.9637230  14.3419780  81.8006130
 112.7055370  13.3079340  80.9806470  99.3107340  15.6119820  80.9999450
 100.0469820  15.0635280  81.2708020  99.6948260  16.4775830  80.8605440
  96.1952820  11.6793390  76.8740960  95.2692600  11.9214530  76.8646370
  96.6609250  12.5067650  76.7525710 102.4209650  14.7850130  72.8225020
 103.2138260  15.0738960  72.3706810 101.9014000  14.3542300  72.1437500
 111.4739820  14.0120260  74.2461760 111.1881330  13.5985400  73.4315940
 111.2759370  14.9407970  74.1262280 102.9387050  10.0053540  72.6867370
 102.8337690   9.3905890  73.4128750 102.7711270   9.4819430  71.9030380
 106.1789780   9.0673570  73.2909360 105.6299880   9.5142870  73.9352100
 106.8009040   8.5622820  73.8147030 101.8464900   8.0264490  75.1874660
 102.2681320   7.8604360  76.0306050 101.9715740   7.2164720  74.6929800
 104.3592540   7.0502100  72.4351760 104.8798200   6.3351120  72.0692910
 105.0060940   7.6887970  72.7352270 103.6685610   8.4250980  85.7282760
 104.0873720   9.2683710  85.5559000 102.7494240   8.5623020  85.4989540
 100.7423800   4.0997720  72.1332820 100.5412860   3.2365080  72.4946160
 100.5715850   4.0131080  71.1954420 104.9240570  15.1313710  74.7253500
 105.8191360  15.4698680  74.7472260 104.9558200  14.4093120  74.0977780
  98.5636730  10.5040760  72.9540500  99.0011600  11.0470430  73.6098080
  99.0484460   9.6787710  72.9636840  95.7782530  13.2929790  80.4060760
  96.1085540  12.4250850  80.1739400  96.2073530  13.4988310  81.2365720
 100.3744450  11.6238800  78.0662730 100.0739990  11.5003770  78.9666640
 100.2681940  10.7647390  77.6578460  96.2672740  14.1600380  83.1442390
  95.8303730  14.3401180  83.9766540  96.8350420  14.9175000  83.0024110
 113.1436370  11.4035200  72.7689410 112.3129330  11.4711850  73.2396640
 113.3208200  12.2939320  72.4656270 112.5992830   8.1482680  75.2723610
 113.3611740   8.7179330  75.3783300 112.6147200   7.5809880  76.0431920
  96.0997170   6.6720610  79.5031270  95.4446010   6.4032250  78.8590970
  96.9375120   6.5625090  79.0533250 110.5886560  10.3869360  85.5295860
 109.7746400  10.8166520  85.7921650 110.9960760  10.9987770  84.9164910
 112.6512000   8.4417050  72.4296130 112.9260840   9.3495930  72.3015350
 112.4622740   8.3779580  73.3658120 112.5477340   6.3786040  77.4225560
 112.1720940   5.6113970  76.9906850 111.8180460   6.7608740  77.9100490
  97.1373100   7.0573180  84.0434610  97.5046140   6.9700580  84.9230630
  96.5683920   6.2939730  83.9441470  95.3135250   3.8819540  75.4456600
  94.4099330   4.1449740  75.2708260  95.7975870   4.1530710  74.6656560
 111.8228300   4.6043530  80.7232800 112.3465780   4.1106180  80.0922970
 112.4087720   4.7393890  81.4680370 112.0018020   4.6883400  84.2452350
 111.0520730   4.6546940  84.3597340 112.1831030   5.5983510  84.0102120
  97.8562460   2.9385080  73.3550980  98.5654160   2.5168300  72.8698260
  97.1402400   3.0060310  72.7234330 111.3128270   3.8616880  76.6625210
 111.8087390   3.6287750  77.4474090 111.1144340   3.0228720  76.2462850
 110.6462610  15.1387960  79.0564130 111.2421680  14.8172530  78.3798550
 110.9040760  14.6659780  79.8477400 102.2531210  13.1265460  84.8064480
 102.0122570  13.3940020  83.9195000 103.1933850  13.2971190  84.8615340
 111.1974820  15.7883260  82.8861860 110.7377790  16.5399070  82.5119880
 110.5687280  15.0689730  82.8276660  98.0225440  11.8826500  85.2760580
  97.2959500  11.2631790  85.2086530  98.0834590  12.2767110  84.4058660
 101.6270540  14.0971500  82.0609990 102.1435560  13.4858860  81.5358250
 102.2767920  14.6000280  82.5521000 104.3666040  14.9879990  82.8878970
 104.6543850  14.7334290  82.0111980 104.8789260  14.4357350  83.4784540
  96.3055440  15.2000890  78.4857340  96.1377480  14.5671570  79.1839230
  95.4389950  15.4060290  78.1351530  97.9118140  13.8934120  75.9307480
  97.3865760  14.2742150  75.2269440  97.8362720  14.5184890  76.6517190
 112.6683460  15.4521660  77.2521420 112.8435650  14.7659400  76.6082340
 111.9705030  15.9768710  76.8598090 100.5111110  15.8416500  74.8056730
 101.2429930  15.5575780  74.2580620 100.7704780  15.6029780  75.6956110
  99.6725900  11.9581230  74.8103060  99.0434780  12.4266330  75.3588890
  99.7873730  11.1130450  75.2449250 107.1275620   6.0086890  60.9604260
 107.0469670   5.0941500  60.6895970 106.7140040   6.5053960  60.2543970
 105.2593660   7.7865910  62.8413530 104.4835760   7.3066350  63.1312100
 105.9106590   7.1071560  62.6669690  99.2759490   8.0985720  63.7189290
  98.4444370   7.8434430  64.1185800  99.8840470   8.1696490  64.4547210
 109.2801090  12.1926100  61.6212660 108.8182620  11.4213340  61.9499830
 110.0926640  12.2192170  62.1265110  99.2560750  12.1325810  63.9147310
  99.5588790  11.2423550  63.7357530 100.0004340  12.6896030  63.6869560
  97.6851440   3.0587610  57.5031680  96.7968140   3.4003580  57.4011560
  97.9692630   2.8587930  56.6112510  95.6484450   5.6593260  63.3871380
  96.2200560   4.8915460  63.3875020  95.6485990   5.9582020  62.4777990
 105.5064400  14.4784110  61.2416650 104.8875840  14.9341610  60.6711090
 106.3616180  14.6335570  60.8406350 104.7002650  10.4623100  62.8483690
 104.6310930   9.5213040  62.6872820 105.4622510  10.5524510  63.4206260
 105.7307820   3.2693480  63.0752620 106.1072640   2.3965360  62.9626290
 105.6327330   3.6052180  62.1843060  97.5095990   3.5638120  63.7822650
  98.1906100   3.8276490  64.4010050  97.1944040   2.7238990  64.1160660
 101.7020560   4.6105480  62.8695240 102.2098780   5.1086450  63.5100260
 102.2333800   3.8340680  62.6934600 106.3727750   9.3623350  58.6348560
 105.7545020   9.8272800  58.0711280 106.8851000  10.0550830  59.0518070
 101.2359510   8.8899220  65.3132160 100.9028890   9.5168140  65.9553230
 101.4126190   9.4161100  64.5333830 109.7493420   2.7044300  62.7808500
 109.0448990   2.9929190  63.3611610 110.1105580   3.5144410  62.4208060
 100.4478610  10.8580020  67.1281340 101.0652610  11.5331100  66.8465790
  99.5871730  11.2668000  67.0368840  95.7410950  10.0479880  56.0088190
  95.3638930  10.5366980  55.2773090  95.9984020  10.7205160  56.6394720
 111.3656200  12.3219430  65.0435980 110.6819720  12.9918540  65.0352650
 111.9050490  12.5200080  64.2780840 112.8180340   2.1499090  63.1717710
 111.8705250   2.1838070  63.3033140 113.1430330   2.9638040  63.5567070
 108.9014940  14.1663560  63.7581160 108.9142100  13.7625850  62.8903420
 108.3490160  14.9410850  63.6542590 110.1960360  10.8879780  58.8471330
 110.0856690   9.9454110  58.9720750 110.1928610  11.2495420  59.7334090
 108.3000380   9.0693400  65.0863770 108.7169170   8.8553510  64.2517230
 109.0240200   9.3266190  65.6572390 105.7380640   6.5145100  58.2033820
 104.8109920   6.4482480  58.4322290 105.8905460   7.4525230  58.0889060
 105.7249720   2.7862100  55.2000980 104.7853390   2.9476060  55.2853440
 106.0432980   3.5047780  54.6536970 112.2462480   7.4680620  65.1780010
 111.4181110   7.5373710  64.7030140 112.8412960   8.0534930  64.7095840
 109.7677930   8.0765400  58.7069070 109.1490350   7.7384950  58.0595370
 109.7502380   7.4325160  59.4148260 109.2104490   4.2549940  66.1234880
 108.7975670   5.0803650  66.3774870 108.4780440   3.6694980  65.9311240
 101.3437280   7.0409840  60.9853550 100.9394280   6.3287090  60.4899450
 101.4300400   6.6963080  61.8741590 101.8118980  10.7277400  63.1492760
 101.5147270  10.1222870  62.4700540 102.7618800  10.7654710  63.0382120
 100.0565900   3.8153050  64.7652590 100.6080490   3.9248390  63.9905840
 100.5709410   4.1890650  65.4807820 109.9004590  14.3009270  66.8115860
 109.4235150  15.1081460  66.6188470 109.2166380  13.6487600  66.9642070
 100.9037410  10.4659090  69.8000560 100.0065940  10.6899060  70.0473960
 100.9290280  10.5894030  68.8511960 107.9442630   7.3152210  55.7141820
 108.3835910   6.4774640  55.5679640 108.6571050   7.9481610  55.8005960
  99.7308630   7.3372410  68.3757930  99.5916400   8.2095210  68.7445330
  98.8489990   6.9945220  68.2305870 106.0538010  12.2548280  59.6823060
 106.4933920  12.9972610  59.2678450 105.9924900  12.4974850  60.6062020
 101.5288980  13.2794110  70.5843080 101.5004410  13.6837060  69.7171510
 101.3653950  12.3504470  70.4214680  98.0441910   5.9354820  58.4860200
  97.9239510   6.6616910  57.8741470  97.7342800   5.1657730  58.0088110
  95.6827280   9.1069960  64.2928840  95.7607700   9.2418730  63.3484560
  96.2968960   8.3985850  64.4856960  96.9274910  10.8070150  60.7035020
  96.5202990  10.9484740  59.8488620  97.8187920  10.5230310  60.5006230
 112.8837050  11.2534060  69.0407260 113.0100110  11.0145940  68.1224440
 112.9258430  10.4218600  69.5129340 106.7453790  14.9562060  67.6102070
 107.2598460  14.8670070  68.4124500 105.9022870  15.3021760  67.9029980
 108.7208190  15.2417400  57.0386070 108.5609330  14.9520340  57.9367900
 108.5554900  14.4657530  56.5031300 101.1996570  15.0215930  58.8157690
 101.0239050  14.1051470  58.6025490 100.3452310  15.3803220  59.0555490
 108.4234320  12.7504960  55.5984070 107.7299480  12.7482250  54.9386350
 109.1657180  12.3264280  55.1678240 107.9884250  14.3767670  59.6732560
 108.4441200  13.5957050  59.9871180 108.3276770  15.0874490  60.2173740
 112.7361060   3.3066520  70.0057000 112.1205330   3.8146190  69.4772460
 112.4157480   2.4064850  69.9482940  95.7386800  10.1484130  66.8323300
  95.9017840   9.6789490  66.0142670  96.2039250   9.6407690  67.4972140
 109.7979890   3.3667360  68.6015850 108.9473480   3.0673110  68.9224920
 109.6381680   3.6109370  67.6899670 106.8929600   4.8669110  70.7014640
 107.2183010   4.0332860  70.3616870 107.6809930   5.3897630  70.8492970
 100.3019790   4.4023460  59.5965120 100.0760710   4.1860630  60.5011740
  99.5212320   4.8351920  59.2511090 107.5317550   4.4086830  58.1955770
 106.9326440   5.1322630  58.0119390 108.0797160   4.3463610  57.4132220
 102.7419000   5.3009040  70.2625390 102.6462600   4.3603770  70.1125790
 103.5850980   5.5224110  69.8673460 106.1382420   3.0450370  60.2259050
 106.5311990   3.3622570  59.4127740 106.4999270   2.1662250  60.3403570
  95.3616820   3.5771290  53.6591970  95.2791490   4.5202050  53.8006960
  95.0099880   3.4346200  52.7804320 106.7237560   5.6356120  64.3209830
 105.9918680   6.1442930  64.6699930 106.3261900   4.8186100  64.0198610
 103.1614950   2.3110320  62.7262320 103.1651010   1.8700270  61.8766860
 104.0566070   2.6327650  62.8334140  99.0117330   2.1936810  61.6856530
  98.6717380   2.6712040  62.4423580  98.2494650   1.7401930  61.3257630
 103.2235100   3.3122400  55.7169080 103.3447920   3.2708880  56.6654900
 102.8383610   4.1746550  55.5615810 102.2356600   5.6223540  55.1152380
 101.6673500   5.1741790  54.4888290 102.9445600   5.9816320  54.5817530
  97.3125780   9.5235560  68.9919110  96.9280570   8.8829230  69.5902070
  97.6237970  10.2271680  69.5613840 103.4622920   6.3712100  64.4727730
 103.8293050   5.8970670  65.2189070 103.2727980   7.2453670  64.8136070
 101.2522290   5.4120740  66.7911940 100.9479360   6.2912720  67.0162300
 102.2068750   5.4720530  66.8269380  99.7804080   9.6181730  57.3878790
  99.0066340   9.0779350  57.2277510 100.5098710   9.0988340  57.0496550
 110.5392060   8.6147090  63.1805180 111.2591180   9.1102380  62.7901290
 110.3373880   7.9364980  62.5359050 105.9210860   8.6856150  69.0674180
 105.8548170   7.7651820  68.8131770 105.2916000   8.7831590  69.7818820
 108.7150390   4.3804700  55.6196730 109.6030010   4.6921930  55.4448070
 108.6855480   3.5076950  55.2277310  99.8241480   9.2862110  61.0257600
 100.3420150   8.4830370  60.9714490  99.3725500   9.2241250  61.8674430
 104.7110980  10.5528390  56.2984900 105.0526680  11.2970620  55.8028220
 103.8823690  10.8659510  56.6609730  97.3086020   6.2523480  67.9383300
  96.9500960   6.9177330  68.5256640  97.0140580   5.4207030  68.3095920
 100.5099140   6.7107720  70.8222850 100.2099280   6.8564900  69.9250670
 101.2810380   6.1513010  70.7296240 105.8527590  11.5076720  68.8177980
 105.8672130  10.5757680  68.5996890 105.1452690  11.5936480  69.4567750
 110.9864660   5.6916540  55.0876590 110.9028380   6.1230760  54.2373030
 111.7058850   6.1514890  55.5203410 112.0638800   8.1484060  68.1646560
 111.3386990   8.7412840  67.9675950 112.5914260   8.1407600  67.3659930
 112.0151910  12.5458800  57.8158720 111.3728070  11.8914420  58.0902440
 111.6282570  12.9513890  57.0399390 107.5938390   9.8744230  61.6630410
 107.9462210   9.2772360  61.0031780 106.7100720   9.5488460  61.8338660
 103.6801670  10.6341920  59.0700820 104.3672800  11.1811130  59.4508410
 102.8934090  11.1782650  59.1050430  95.8194070   6.2514740  54.5617900
  96.6888920   6.5339540  54.8453820  95.3284390   7.0650610  54.4466710
 102.9828880   7.6387950  58.6826180 103.4391660   8.4493200  58.9086370
 102.6317090   7.3211090  59.5144670 105.2861490  13.1494290  65.9118480
 105.9303710  13.3553670  66.5891900 105.6490930  12.3882690  65.4589330
 106.5593570  11.1526640  64.6295930 107.2015800  10.4519800  64.7428100
 107.0842920  11.9325080  64.4492820 110.4049290  11.4375260  54.3535070
 110.1786870  10.7205700  54.9459710 110.0145490  11.1887700  53.5156820
 108.3331190  11.9521540  67.8331990 108.6687430  12.5388230  68.5109910
 107.4131530  11.8214250  68.0629780  96.1865320  15.4642120  55.1279530
  96.5462960  16.0631460  54.4736800  96.0457660  16.0102010  55.9014560
 109.9865540   9.3547200  56.0149230 109.6987240   9.8159890  56.8027110
 110.7817710   8.8944970  56.2833450  96.1707180  13.7296980  69.6021930
  96.2798300  12.7891720  69.4617320  95.5187740  13.9951730  68.9535660
 104.1619770  12.0012870  71.0020050 103.8416640  11.2822110  71.5465740
 103.4878130  12.6767940  71.0756110 102.2033940  12.8473320  55.9453200
 102.1944040  13.5803010  55.3297710 101.2832300  12.6004900  56.0380160
  97.8040580   8.0688210  56.6899960  97.1968530   8.8087110  56.6995260
  98.2789930   8.1587570  55.8638160 105.1893540  12.9101560  54.6078390
 105.2905520  12.7065550  53.6780370 104.2895280  12.6559840  54.8126170
 102.7119430   3.4681920  58.5902290 102.0035580   3.9368260  59.0315900
 102.9963910   2.8103930  59.2247480 104.3375360   4.8878620  66.5894820
 104.8360610   5.3624440  67.2546670 104.4798310   3.9642140  66.7964850
 103.8311650  15.4287880  59.3026060 104.0853150  15.3909270  58.3805430
 102.8824130  15.3021210  59.2954310 100.9154450   1.7767000  55.9653000
 101.7644980   2.2137150  55.8993190 100.5485720   2.0887260  56.7925060
 109.8364230   6.3479760  60.8784570 108.8954370   6.3629990  61.0532260
 110.1508300   5.5615720  61.3244870  99.8145870   8.0299360  54.4388530
 100.5809140   7.9180720  55.0013960  99.8920560   7.3337330  53.7865300
  98.5092630   5.4624430  55.1221420  98.5896220   4.5151940  55.2338820
  99.4012380   5.7931310  55.2282080 111.8389810  13.5188610  62.5538830
 111.9637230  14.3419780  63.0262640 112.7055370  13.3079340  62.2062980
  99.3107340  15.6119820  62.2255960 100.0469820  15.0635280  62.4964530
  99.6948260  16.4775830  62.0861950  96.1952820  11.6793390  58.0997470
  95.2692600  11.9214530  58.0902880  96.6609250  12.5067650  57.9782220
  98.3165620  14.7965890  71.4141540  99.1178350  15.1177940  71.8276940
  97.8017440  14.4361470  72.1361450 102.4209650  14.7850130  54.0481530
 103.2138260  15.0738960  53.5963320 101.9014000  14.3542300  53.3694010
 107.1530250  10.9045760  71.3616950 106.5468410  10.9277360  70.6212700
 106.8484360  10.1728800  71.8984200 108.5830620  14.6326050  69.9726360
 109.5352370  14.5484070  69.9226600 108.4358840  15.2967760  70.6460150
 111.4739820  14.0120260  55.4718270 111.1881330  13.5985400  54.6572450
 111.2759370  14.9407970  55.3518790  96.0363430   7.2839350  70.3577590
  96.5402450   6.7046630  70.9293820  95.2970850   7.5679580  70.8953960
 102.9387050  10.0053540  53.9123880 102.8337690   9.3905890  54.6385260
 102.7711270   9.4819430  53.1286890 103.0901370   8.6910340  69.8913110
 102.3247040   9.2595340  69.8067780 103.2717330   8.3986550  68.9981340
 106.1789780   9.0673570  54.5165870 105.6299880   9.5142870  55.1608610
 106.8009040   8.5622820  55.0403540 110.2324720  10.4215670  70.4488130
 110.9734190  10.7591430  69.9455590 109.4697400  10.5907730  69.8957900
  98.0686510   5.4268940  71.2527660  98.1091850   5.1282810  72.1612890
  98.9232010   5.8276550  71.0935180 101.8464900   8.0264490  56.4131170
 102.2681320   7.8604360  57.2562560 101.9715740   7.2164720  55.9186310
 100.0092320   4.0061040  69.2202150  99.4788780   3.5151990  68.5925490
 100.6780390   4.4345240  68.6860080 104.3592540   7.0502100  53.6608270
 104.8798200   6.3351120  53.2949420 105.0060940   7.6887970  53.9608780
 108.9070380   8.4730500  68.9843340 109.3211400   8.6275580  69.8333760
 107.9721380   8.5985720  69.1469120 109.3792550   5.8126660  70.9882490
 109.9613320   5.0578980  70.9002970 109.5554320   6.3434100  70.2113970
 103.6685610   8.4250980  66.9539270 104.0873720   9.2683710  66.7815510
 102.7494240   8.5623020  66.7246050 106.0049510   6.1567160  68.3377110
 106.1245720   5.5608300  69.0771950 106.8643510   6.1936850  67.9178410
 108.3437410   6.7104350  66.9139620 107.8172630   7.2346970  66.3104760
 108.6868750   7.3431740  67.5449350 100.7423800   4.0997720  53.3589330
 100.5412860   3.2365080  53.7202670 100.5715850   4.0131080  52.4210930
 101.5193030  14.7303990  68.0697000 100.9814120  15.4550050  67.7505700
 101.7726990  14.2534330  67.2794340 102.7718280   2.6988510  69.5952930
 103.3617970   2.3904360  70.2830750 101.9538520   2.2268260  69.7512830
 107.5911710   2.3154320  69.8285950 106.9027230   1.6535860  69.7635940
 108.3117730   1.8692590  70.2734410 104.3755240  15.9655200  68.3283650
 104.3013940  16.8690340  68.6356020 103.4734080  15.6467100  68.3005720
 104.9240570  15.1313710  55.9510010 105.8191360  15.4698680  55.9728770
 104.9558200  14.4093120  55.3234290  98.5636730  10.5040760  54.1797010
  99.0011600  11.0470430  54.8354590  99.0484460   9.6787710  54.1893350
  95.7782530  13.2929790  61.6317270  96.1085540  12.4250850  61.3995910
  96.2073530  13.4988310  62.4622230 100.3744450  11.6238800  59.2919240
 100.0739990  11.5003770  60.1923150 100.2681940  10.7647390  58.8834970
  96.2672740  14.1600380  64.3698900  95.8303730  14.3401180  65.2023050
  96.8350420  14.9175000  64.2280620 111.9034920  13.6617380  68.6576210
 111.3036910  13.7209940  67.9140130 112.0328820  12.7222360  68.7873060
 113.1436370  11.4035200  53.9945920 112.3129330  11.4711850  54.4653150
 113.3208200  12.2939320  53.6912780 112.5992830   8.1482680  56.4980120
 113.3611740   8.7179330  56.6039810 112.6147200   7.5809880  57.2688430
  96.0997170   6.6720610  60.7287780  95.4446010   6.4032250  60.0847480
  96.9375120   6.5625090  60.2789760 110.5886560  10.3869360  66.7552370
 109.7746400  10.8166520  67.0178160 110.9960760  10.9987770  66.1421420
 112.6512000   8.4417050  53.6552640 112.9260840   9.3495930  53.5271860
 112.4622740   8.3779580  54.5914630 112.5477340   6.3786040  58.6482070
 112.1720940   5.6113970  58.2163360 111.8180460   6.7608740  59.1357000
  97.1373100   7.0573180  65.2691120  97.5046140   6.9700580  66.1487140
  96.5683920   6.2939730  65.1697980 111.9376960   5.5257560  68.2821590
 111.7063050   5.2970310  67.3819540 112.1981510   6.4457110  68.2366480
  96.6889100   3.9682270  69.1749540  95.7945150   3.9349030  69.5143250
  97.2286650   4.1669060  69.9400790  95.3135250   3.8819540  56.6713110
  94.4099330   4.1449740  56.4964770  95.7975870   4.1530710  55.8913070
 111.8228300   4.6043530  61.9489310 112.3465780   4.1106180  61.3179480
 112.4087720   4.7393890  62.6936880 112.0018020   4.6883400  65.4708860
 111.0520730   4.6546940  65.5853850 112.1831030   5.5983510  65.2358630
  97.8562460   2.9385080  54.5807490  98.5654160   2.5168300  54.0954770
  97.1402400   3.0060310  53.9490840 111.3128270   3.8616880  57.8881720
 111.8087390   3.6287750  58.6730600 111.1144340   3.0228720  57.4719360
 110.6462610  15.1387960  60.2820640 111.2421680  14.8172530  59.6055060
 110.9040760  14.6659780  61.0733910  98.5525180  11.5705870  70.4311270
  98.5094810  11.1998780  71.3125730  98.6836190  12.5083440  70.5713090
 102.2531210  13.1265460  66.0320990 102.0122570  13.3940020  65.1451510
 103.1933850  13.2971190  66.0871850  98.3913210  14.5168120  67.5509050
  97.7973530  14.3852820  68.2899090  98.3837050  13.6806260  67.0851150
 111.1974820  15.7883260  64.1118370 110.7377790  16.5399070  63.7376390
 110.5687280  15.0689730  64.0533170  98.0225440  11.8826500  66.5017090
  97.2959500  11.2631790  66.4343040  98.0834590  12.2767110  65.6315170
 101.6270540  14.0971500  63.2866500 102.1435560  13.4858860  62.7614760
 102.2767920  14.6000280  63.7777510 104.3666040  14.9879990  64.1135480
 104.6543850  14.7334290  63.2368490 104.8789260  14.4357350  64.7041050
  96.3055440  15.2000890  59.7113850  96.1377480  14.5671570  60.4095740
  95.4389950  15.4060290  59.3608040  97.9118140  13.8934120  57.1563990
  97.3865760  14.2742150  56.4525950  97.8362720  14.5184890  57.8773700
 104.4338400  15.9096090  71.4803680 105.3605710  15.6740360  71.5239640
 104.4188830  16.7368090  70.9989710 112.6683460  15.4521660  58.4777930
 112.8435650  14.7659400  57.8338850 111.9705030  15.9768710  58.0854600
 100.5111110  15.8416500  56.0313240 101.2429930  15.5575780  55.4837130
 100.7704780  15.6029780  56.9212620  99.6725900  11.9581230  56.0359570
  99.0434780  12.4266330  56.5845400  99.7873730  11.1130450  56.4705760
 111.0015960  15.1365950  71.3044720 111.7941280  14.6415180  71.0970680
 111.2949110  15.8156090  71.9120330 107.1275620   6.0086890  42.1860770
 107.0469670   5.0941500  41.9152480 106.7140040   6.5053960  41.4800480
 105.2593660   7.7865910  44.0670040 104.4835760   7.3066350  44.3568610
 105.9106590   7.1071560  43.8926200  99.2759490   8.0985720  44.9445800
  98.4444370   7.8434430  45.3442310  99.8840470   8.1696490  45.6803720
 109.2801090  12.1926100  42.8469170 108.8182620  11.4213340  43.1756340
 110.0926640  12.2192170  43.3521620  99.2560750  12.1325810  45.1403820
  99.5588790  11.2423550  44.9614040 100.0004340  12.6896030  44.9126070
  97.6851440   3.0587610  38.7288190  96.7968140   3.4003580  38.6268070
  97.9692630   2.8587930  37.8369020  95.6484450   5.6593260  44.6127890
  96.2200560   4.8915460  44.6131530  95.6485990   5.9582020  43.7034500
 105.5064400  14.4784110  42.4673160 104.8875840  14.9341610  41.8967600
 106.3616180  14.6335570  42.0662860 104.7002650  10.4623100  44.0740200
 104.6310930   9.5213040  43.9129330 105.4622510  10.5524510  44.6462770
 105.7307820   3.2693480  44.3009130 106.1072640   2.3965360  44.1882800
 105.6327330   3.6052180  43.4099570  97.5095990   3.5638120  45.0079160
  98.1906100   3.8276490  45.6266560  97.1944040   2.7238990  45.3417170
 101.7020560   4.6105480  44.0951750 102.2098780   5.1086450  44.7356770
 102.2333800   3.8340680  43.9191110 106.3727750   9.3623350  39.8605070
 105.7545020   9.8272800  39.2967790 106.8851000  10.0550830  40.2774580
 101.2359510   8.8899220  46.5388670 100.9028890   9.5168140  47.1809740
 101.4126190   9.4161100  45.7590340 109.7493420   2.7044300  44.0065010
 109.0448990   2.9929190  44.5868120 110.1105580   3.5144410  43.6464570
 100.4478610  10.8580020  48.3537850 101.0652610  11.5331100  48.0722300
  99.5871730  11.2668000  48.2625350  95.7410950  10.0479880  37.2344700
  95.3638930  10.5366980  36.5029600  95.9984020  10.7205160  37.8651230
 111.3656200  12.3219430  46.2692490 110.6819720  12.9918540  46.2609160
 111.9050490  12.5200080  45.5037350 112.8180340   2.1499090  44.3974220
 111.8705250   2.1838070  44.5289650 113.1430330   2.9638040  44.7823580
 108.9014940  14.1663560  44.9837670 108.9142100  13.7625850  44.1159930
 108.3490160  14.9410850  44.8799100 110.1960360  10.8879780  40.0727840
 110.0856690   9.9454110  40.1977260 110.1928610  11.2495420  40.9590600
 108.3000380   9.0693400  46.3120280 108.7169170   8.8553510  45.4773740
 109.0240200   9.3266190  46.8828900 105.7380640   6.5145100  39.4290330
 104.8109920   6.4482480  39.6578800 105.8905460   7.4525230  39.3145570
 105.7249720   2.7862100  36.4257490 104.7853390   2.9476060  36.5109950
 106.0432980   3.5047780  35.8793480 112.2462480   7.4680620  46.4036520
 111.4181110   7.5373710  45.9286650 112.8412960   8.0534930  45.9352350
 109.7677930   8.0765400  39.9325580 109.1490350   7.7384950  39.2851880
 109.7502380   7.4325160  40.6404770 109.2104490   4.2549940  47.3491390
 108.7975670   5.0803650  47.6031380 108.4780440   3.6694980  47.1567750
 101.3437280   7.0409840  42.2110060 100.9394280   6.3287090  41.7155960
 101.4300400   6.6963080  43.0998100 101.8118980  10.7277400  44.3749270
 101.5147270  10.1222870  43.6957050 102.7618800  10.7654710  44.2638630
 100.0565900   3.8153050  45.9909100 100.6080490   3.9248390  45.2162350
 100.5709410   4.1890650  46.7064330 109.9004590  14.3009270  48.0372370
 109.4235150  15.1081460  47.8444980 109.2166380  13.6487600  48.1898580
 100.9037410  10.4659090  51.0257070 100.0065940  10.6899060  51.2730470
 100.9290280  10.5894030  50.0768470 107.9442630   7.3152210  36.9398330
 108.3835910   6.4774640  36.7936150 108.6571050   7.9481610  37.0262470
  99.7308630   7.3372410  49.6014440  99.5916400   8.2095210  49.9701840
  98.8489990   6.9945220  49.4562380 106.0538010  12.2548280  40.9079570
 106.4933920  12.9972610  40.4934960 105.9924900  12.4974850  41.8318530
 101.5288980  13.2794110  51.8099590 101.5004410  13.6837060  50.9428020
 101.3653950  12.3504470  51.6471190  98.0441910   5.9354820  39.7116710
  97.9239510   6.6616910  39.0997980  97.7342800   5.1657730  39.2344620
  95.6827280   9.1069960  45.5185350  95.7607700   9.2418730  44.5741070
  96.2968960   8.3985850  45.7113470  96.9274910  10.8070150  41.9291530
  96.5202990  10.9484740  41.0745130  97.8187920  10.5230310  41.7262740
 112.8837050  11.2534060  50.2663770 113.0100110  11.0145940  49.3480950
 112.9258430  10.4218600  50.7385850 106.7453790  14.9562060  48.8358580
 107.2598460  14.8670070  49.6381010 105.9022870  15.3021760  49.1286490
 108.7208190  15.2417400  38.2642580 108.5609330  14.9520340  39.1624410
 108.5554900  14.4657530  37.7287810 101.1996570  15.0215930  40.0414200
 101.0239050  14.1051470  39.8282000 100.3452310  15.3803220  40.2812000
 108.4234320  12.7504960  36.8240580 107.7299480  12.7482250  36.1642860
 109.1657180  12.3264280  36.3934750 107.9884250  14.3767670  40.8989070
 108.4441200  13.5957050  41.2127690 108.3276770  15.0874490  41.4430250
 112.7361060   3.3066520  51.2313510 112.1205330   3.8146190  50.7028970
 112.4157480   2.4064850  51.1739450  95.7386800  10.1484130  48.0579810
  95.9017840   9.6789490  47.2399180  96.2039250   9.6407690  48.7228650
 109.7979890   3.3667360  49.8272360 108.9473480   3.0673110  50.1481430
 109.6381680   3.6109370  48.9156180 106.8929600   4.8669110  51.9271150
 107.2183010   4.0332860  51.5873380 107.6809930   5.3897630  52.0749480
 100.3019790   4.4023460  40.8221630 100.0760710   4.1860630  41.7268250
  99.5212320   4.8351920  40.4767600 107.5317550   4.4086830  39.4212280
 106.9326440   5.1322630  39.2375900 108.0797160   4.3463610  38.6388730
 102.7419000   5.3009040  51.4881900 102.6462600   4.3603770  51.3382300
 103.5850980   5.5224110  51.0929970 106.1382420   3.0450370  41.4515560
 106.5311990   3.3622570  40.6384250 106.4999270   2.1662250  41.5660080
  95.3616820   3.5771290  34.8848480  95.2791490   4.5202050  35.0263470
  95.0099880   3.4346200  34.0060830 106.7237560   5.6356120  45.5466340
 105.9918680   6.1442930  45.8956440 106.3261900   4.8186100  45.2455120
 103.1614950   2.3110320  43.9518830 103.1651010   1.8700270  43.1023370
 104.0566070   2.6327650  44.0590650  99.0117330   2.1936810  42.9113040
  98.6717380   2.6712040  43.6680090  98.2494650   1.7401930  42.5514140
 103.2235100   3.3122400  36.9425590 103.3447920   3.2708880  37.8911410
 102.8383610   4.1746550  36.7872320 102.2356600   5.6223540  36.3408890
 101.6673500   5.1741790  35.7144800 102.9445600   5.9816320  35.8074040
  97.3125780   9.5235560  50.2175620  96.9280570   8.8829230  50.8158580
  97.6237970  10.2271680  50.7870350 103.4622920   6.3712100  45.6984240
 103.8293050   5.8970670  46.4445580 103.2727980   7.2453670  46.0392580
 101.2522290   5.4120740  48.0168450 100.9479360   6.2912720  48.2418810
 102.2068750   5.4720530  48.0525890  99.7804080   9.6181730  38.6135300
  99.0066340   9.0779350  38.4534020 100.5098710   9.0988340  38.2753060
 110.5392060   8.6147090  44.4061690 111.2591180   9.1102380  44.0157800
 110.3373880   7.9364980  43.7615560 105.9210860   8.6856150  50.2930690
 105.8548170   7.7651820  50.0388280 105.2916000   8.7831590  51.0075330
 108.7150390   4.3804700  36.8453240 109.6030010   4.6921930  36.6704580
 108.6855480   3.5076950  36.4533820  99.8241480   9.2862110  42.2514110
 100.3420150   8.4830370  42.1971000  99.3725500   9.2241250  43.0930940
 104.7110980  10.5528390  37.5241410 105.0526680  11.2970620  37.0284730
 103.8823690  10.8659510  37.8866240  97.3086020   6.2523480  49.1639810
  96.9500960   6.9177330  49.7513150  97.0140580   5.4207030  49.5352430
 100.5099140   6.7107720  52.0479360 100.2099280   6.8564900  51.1507180
 101.2810380   6.1513010  51.9552750 105.8527590  11.5076720  50.0434490
 105.8672130  10.5757680  49.8253400 105.1452690  11.5936480  50.6824260
 110.9864660   5.6916540  36.3133100 110.9028380   6.1230760  35.4629540
 111.7058850   6.1514890  36.7459920 112.0638800   8.1484060  49.3903070
 111.3386990   8.7412840  49.1932460 112.5914260   8.1407600  48.5916440
 112.0151910  12.5458800  39.0415230 111.3728070  11.8914420  39.3158950
 111.6282570  12.9513890  38.2655900 107.5938390   9.8744230  42.8886920
 107.9462210   9.2772360  42.2288290 106.7100720   9.5488460  43.0595170
 103.6801670  10.6341920  40.2957330 104.3672800  11.1811130  40.6764920
 102.8934090  11.1782650  40.3306940  95.8194070   6.2514740  35.7874410
  96.6888920   6.5339540  36.0710330  95.3284390   7.0650610  35.6723220
 102.9828880   7.6387950  39.9082690 103.4391660   8.4493200  40.1342880
 102.6317090   7.3211090  40.7401180 105.2861490  13.1494290  47.1374990
 105.9303710  13.3553670  47.8148410 105.6490930  12.3882690  46.6845840
 106.5593570  11.1526640  45.8552440 107.2015800  10.4519800  45.9684610
 107.0842920  11.9325080  45.6749330 110.4049290  11.4375260  35.5791580
 110.1786870  10.7205700  36.1716220 110.0145490  11.1887700  34.7413330
 108.3331190  11.9521540  49.0588500 108.6687430  12.5388230  49.7366420
 107.4131530  11.8214250  49.2886290  96.1865320  15.4642120  36.3536040
  96.5462960  16.0631460  35.6993310  96.0457660  16.0102010  37.1271070
 109.9865540   9.3547200  37.2405740 109.6987240   9.8159890  38.0283620
 110.7817710   8.8944970  37.5089960  96.1707180  13.7296980  50.8278440
  96.2798300  12.7891720  50.6873830  95.5187740  13.9951730  50.1792170
 104.1619770  12.0012870  52.2276560 103.8416640  11.2822110  52.7722250
 103.4878130  12.6767940  52.3012620 102.2033940  12.8473320  37.1709710
 102.1944040  13.5803010  36.5554220 101.2832300  12.6004900  37.2636670
  97.8040580   8.0688210  37.9156470  97.1968530   8.8087110  37.9251770
  98.2789930   8.1587570  37.0894670 105.1893540  12.9101560  35.8334900
 105.2905520  12.7065550  34.9036880 104.2895280  12.6559840  36.0382680
 102.7119430   3.4681920  39.8158800 102.0035580   3.9368260  40.2572410
 102.9963910   2.8103930  40.4503990 104.3375360   4.8878620  47.8151330
 104.8360610   5.3624440  48.4803180 104.4798310   3.9642140  48.0221360
 103.8311650  15.4287880  40.5282570 104.0853150  15.3909270  39.6061940
 102.8824130  15.3021210  40.5210820 100.9154450   1.7767000  37.1909510
 101.7644980   2.2137150  37.1249700 100.5485720   2.0887260  38.0181570
 109.8364230   6.3479760  42.1041080 108.8954370   6.3629990  42.2788770
 110.1508300   5.5615720  42.5501380  99.8145870   8.0299360  35.6645040
 100.5809140   7.9180720  36.2270470  99.8920560   7.3337330  35.0121810
  98.5092630   5.4624430  36.3477930  98.5896220   4.5151940  36.4595330
  99.4012380   5.7931310  36.4538590 111.8389810  13.5188610  43.7795340
 111.9637230  14.3419780  44.2519150 112.7055370  13.3079340  43.4319490
  99.3107340  15.6119820  43.4512470 100.0469820  15.0635280  43.7221040
  99.6948260  16.4775830  43.3118460  96.1952820  11.6793390  39.3253980
  95.2692600  11.9214530  39.3159390  96.6609250  12.5067650  39.2038730
  98.3165620  14.7965890  52.6398050  99.1178350  15.1177940  53.0533450
  97.8017440  14.4361470  53.3617960 102.4209650  14.7850130  35.2738040
 103.2138260  15.0738960  34.8219830 101.9014000  14.3542300  34.5950520
 107.1530250  10.9045760  52.5873460 106.5468410  10.9277360  51.8469210
 106.8484360  10.1728800  53.1240710 108.5830620  14.6326050  51.1982870
 109.5352370  14.5484070  51.1483110 108.4358840  15.2967760  51.8716660
 111.4739820  14.0120260  36.6974780 111.1881330  13.5985400  35.8828960
 111.2759370  14.9407970  36.5775300  96.0363430   7.2839350  51.5834100
  96.5402450   6.7046630  52.1550330  95.2970850   7.5679580  52.1210470
 102.9387050  10.0053540  35.1380390 102.8337690   9.3905890  35.8641770
 102.7711270   9.4819430  34.3543400 103.0901370   8.6910340  51.1169620
 102.3247040   9.2595340  51.0324290 103.2717330   8.3986550  50.2237850
 106.1789780   9.0673570  35.7422380 105.6299880   9.5142870  36.3865120
 106.8009040   8.5622820  36.2660050 110.2324720  10.4215670  51.6744640
 110.9734190  10.7591430  51.1712100 109.4697400  10.5907730  51.1214410
  98.0686510   5.4268940  52.4784170  98.1091850   5.1282810  53.3869400
  98.9232010   5.8276550  52.3191690 101.8464900   8.0264490  37.6387680
 102.2681320   7.8604360  38.4819070 101.9715740   7.2164720  37.1442820
 100.0092320   4.0061040  50.4458660  99.4788780   3.5151990  49.8182000
 100.6780390   4.4345240  49.9116590 104.3592540   7.0502100  34.8864780
 104.8798200   6.3351120  34.5205930 105.0060940   7.6887970  35.1865290
 108.9070380   8.4730500  50.2099850 109.3211400   8.6275580  51.0590270
 107.9721380   8.5985720  50.3725630 109.3792550   5.8126660  52.2139000
 109.9613320   5.0578980  52.1259480 109.5554320   6.3434100  51.4370480
 103.6685610   8.4250980  48.1795780 104.0873720   9.2683710  48.0072020
 102.7494240   8.5623020  47.9502560 106.0049510   6.1567160  49.5633620
 106.1245720   5.5608300  50.3028460 106.8643510   6.1936850  49.1434920
 108.3437410   6.7104350  48.1396130 107.8172630   7.2346970  47.5361270
 108.6868750   7.3431740  48.7705860 100.7423800   4.0997720  34.5845840
 100.5412860   3.2365080  34.9459180 100.5715850   4.0131080  33.6467440
 101.5193030  14.7303990  49.2953510 100.9814120  15.4550050  48.9762210
 101.7726990  14.2534330  48.5050850 102.7718280   2.6988510  50.8209440
 103.3617970   2.3904360  51.5087260 101.9538520   2.2268260  50.9769340
 107.5911710   2.3154320  51.0542460 106.9027230   1.6535860  50.9892450
 108.3117730   1.8692590  51.4990920 104.3755240  15.9655200  49.5540160
 104.3013940  16.8690340  49.8612530 103.4734080  15.6467100  49.5262230
 104.9240570  15.1313710  37.1766520 105.8191360  15.4698680  37.1985280
 104.9558200  14.4093120  36.5490800  98.5636730  10.5040760  35.4053520
  99.0011600  11.0470430  36.0611100  99.0484460   9.6787710  35.4149860
  95.7782530  13.2929790  42.8573780  96.1085540  12.4250850  42.6252420
  96.2073530  13.4988310  43.6878740 100.3744450  11.6238800  40.5175750
 100.0739990  11.5003770  41.4179660 100.2681940  10.7647390  40.1091480
  96.2672740  14.1600380  45.5955410  95.8303730  14.3401180  46.4279560
  96.8350420  14.9175000  45.4537130 111.9034920  13.6617380  49.8832720
 111.3036910  13.7209940  49.1396640 112.0328820  12.7222360  50.0129570
 113.1436370  11.4035200  35.2202430 112.3129330  11.4711850  35.6909660
 113.3208200  12.2939320  34.9169290 112.5992830   8.1482680  37.7236630
 113.3611740   8.7179330  37.8296320 112.6147200   7.5809880  38.4944940
  96.0997170   6.6720610  41.9544290  95.4446010   6.4032250  41.3103990
  96.9375120   6.5625090  41.5046270 110.5886560  10.3869360  47.9808880
 109.7746400  10.8166520  48.2434670 110.9960760  10.9987770  47.3677930
 112.6512000   8.4417050  34.8809150 112.9260840   9.3495930  34.7528370
 112.4622740   8.3779580  35.8171140 112.5477340   6.3786040  39.8738580
 112.1720940   5.6113970  39.4419870 111.8180460   6.7608740  40.3613510
  97.1373100   7.0573180  46.4947630  97.5046140   6.9700580  47.3743650
  96.5683920   6.2939730  46.3954490 111.9376960   5.5257560  49.5078100
 111.7063050   5.2970310  48.6076050 112.1981510   6.4457110  49.4622990
  96.6889100   3.9682270  50.4006050  95.7945150   3.9349030  50.7399760
  97.2286650   4.1669060  51.1657300  95.3135250   3.8819540  37.8969620
  94.4099330   4.1449740  37.7221280  95.7975870   4.1530710  37.1169580
 111.8228300   4.6043530  43.1745820 112.3465780   4.1106180  42.5435990
 112.4087720   4.7393890  43.9193390 112.0018020   4.6883400  46.6965370
 111.0520730   4.6546940  46.8110360 112.1831030   5.5983510  46.4615140
  97.8562460   2.9385080  35.8064000  98.5654160   2.5168300  35.3211280
  97.1402400   3.0060310  35.1747350 111.3128270   3.8616880  39.1138230
 111.8087390   3.6287750  39.8987110 111.1144340   3.0228720  38.6975870
 110.6462610  15.1387960  41.5077150 111.2421680  14.8172530  40.8311570
 110.9040760  14.6659780  42.2990420  98.5525180  11.5705870  51.6567780
  98.5094810  11.1998780  52.5382240  98.6836190  12.5083440  51.7969600
 102.2531210  13.1265460  47.2577500 102.0122570  13.3940020  46.3708020
 103.1933850  13.2971190  47.3128360  98.3913210  14.5168120  48.7765560
  97.7973530  14.3852820  49.5155600  98.3837050  13.6806260  48.3107660
 111.1974820  15.7883260  45.3374880 110.7377790  16.5399070  44.9632900
 110.5687280  15.0689730  45.2789680  98.0225440  11.8826500  47.7273600
  97.2959500  11.2631790  47.6599550  98.0834590  12.2767110  46.8571680
 101.6270540  14.0971500  44.5123010 102.1435560  13.4858860  43.9871270
 102.2767920  14.6000280  45.0034020 104.3666040  14.9879990  45.3391990
 104.6543850  14.7334290  44.4625000 104.8789260  14.4357350  45.9297560
  96.3055440  15.2000890  40.9370360  96.1377480  14.5671570  41.6352250
  95.4389950  15.4060290  40.5864550  97.9118140  13.8934120  38.3820500
  97.3865760  14.2742150  37.6782460  97.8362720  14.5184890  39.1030210
 104.4338400  15.9096090  52.7060190 105.3605710  15.6740360  52.7496150
 104.4188830  16.7368090  52.2246220 112.6683460  15.4521660  39.7034440
 112.8435650  14.7659400  39.0595360 111.9705030  15.9768710  39.3111110
 100.5111110  15.8416500  37.2569750 101.2429930  15.5575780  36.7093640
 100.7704780  15.6029780  38.1469130  99.6725900  11.9581230  37.2616080
  99.0434780  12.4266330  37.8101910  99.7873730  11.1130450  37.6962270
 111.0015960  15.1365950  52.5301230 111.7941280  14.6415180  52.3227190
 111.2949110  15.8156090  53.1376840 107.1275620   6.0086890  23.4117280
 107.0469670   5.0941500  23.1408990 106.7140040   6.5053960  22.7056990
 105.2593660   7.7865910  25.2926550 104.4835760   7.3066350  25.5825120
 105.9106590   7.1071560  25.1182710  99.2759490   8.0985720  26.1702310
  98.4444370   7.8434430  26.5698820  99.8840470   8.1696490  26.9060230
 109.2801090  12.1926100  24.0725680 108.8182620  11.4213340  24.4012850
 110.0926640  12.2192170  24.5778130  99.2560750  12.1325810  26.3660330
  99.5588790  11.2423550  26.1870550 100.0004340  12.6896030  26.1382580
  97.6851440   3.0587610  19.9544700  96.7968140   3.4003580  19.8524580
  97.9692630   2.8587930  19.0625530  95.6484450   5.6593260  25.8384400
  96.2200560   4.8915460  25.8388040  95.6485990   5.9582020  24.9291010
 105.5064400  14.4784110  23.6929670 104.8875840  14.9341610  23.1224110
 106.3616180  14.6335570  23.2919370 104.7002650  10.4623100  25.2996710
 104.6310930   9.5213040  25.1385840 105.4622510  10.5524510  25.8719280
 105.7307820   3.2693480  25.5265640 106.1072640   2.3965360  25.4139310
 105.6327330   3.6052180  24.6356080  97.5095990   3.5638120  26.2335670
  98.1906100   3.8276490  26.8523070  97.1944040   2.7238990  26.5673680
 101.7020560   4.6105480  25.3208260 102.2098780   5.1086450  25.9613280
 102.2333800   3.8340680  25.1447620 106.3727750   9.3623350  21.0861580
 105.7545020   9.8272800  20.5224300 106.8851000  10.0550830  21.5031090
 101.2359510   8.8899220  27.7645180 100.9028890   9.5168140  28.4066250
 101.4126190   9.4161100  26.9846850 109.7493420   2.7044300  25.2321520
 109.0448990   2.9929190  25.8124630 110.1105580   3.5144410  24.8721080
 100.4478610  10.8580020  29.5794360 101.0652610  11.5331100  29.2978810
  99.5871730  11.2668000  29.4881860  95.7410950  10.0479880  18.4601210
  95.3638930  10.5366980  17.7286110  95.9984020  10.7205160  19.0907740
 111.3656200  12.3219430  27.4949000 110.6819720  12.9918540  27.4865670
 111.9050490  12.5200080  26.7293860 112.8180340   2.1499090  25.6230730
 111.8705250   2.1838070  25.7546160 113.1430330   2.9638040  26.0080090
 108.9014940  14.1663560  26.2094180 108.9142100  13.7625850  25.3416440
 108.3490160  14.9410850  26.1055610 110.1960360  10.8879780  21.2984350
 110.0856690   9.9454110  21.4233770 110.1928610  11.2495420  22.1847110
 108.3000380   9.0693400  27.5376790 108.7169170   8.8553510  26.7030250
 109.0240200   9.3266190  28.1085410 105.7380640   6.5145100  20.6546840
 104.8109920   6.4482480  20.8835310 105.8905460   7.4525230  20.5402080
 105.7249720   2.7862100  17.6514000 104.7853390   2.9476060  17.7366460
 106.0432980   3.5047780  17.1049990 112.2462480   7.4680620  27.6293030
 111.4181110   7.5373710  27.1543160 112.8412960   8.0534930  27.1608860
 109.7677930   8.0765400  21.1582090 109.1490350   7.7384950  20.5108390
 109.7502380   7.4325160  21.8661280 109.2104490   4.2549940  28.5747900
 108.7975670   5.0803650  28.8287890 108.4780440   3.6694980  28.3824260
 101.3437280   7.0409840  23.4366570 100.9394280   6.3287090  22.9412470
 101.4300400   6.6963080  24.3254610 101.8118980  10.7277400  25.6005780
 101.5147270  10.1222870  24.9213560 102.7618800  10.7654710  25.4895140
 100.0565900   3.8153050  27.2165610 100.6080490   3.9248390  26.4418860
 100.5709410   4.1890650  27.9320840 109.9004590  14.3009270  29.2628880
 109.4235150  15.1081460  29.0701490 109.2166380  13.6487600  29.4155090
 100.9037410  10.4659090  32.2513580 100.0065940  10.6899060  32.4986980
 100.9290280  10.5894030  31.3024980 107.9442630   7.3152210  18.1654840
 108.3835910   6.4774640  18.0192660 108.6571050   7.9481610  18.2518980
  99.7308630   7.3372410  30.8270950  99.5916400   8.2095210  31.1958350
  98.8489990   6.9945220  30.6818890 106.0538010  12.2548280  22.1336080
 106.4933920  12.9972610  21.7191470 105.9924900  12.4974850  23.0575040
 101.5288980  13.2794110  33.0356100 101.5004410  13.6837060  32.1684530
 101.3653950  12.3504470  32.8727700  98.0441910   5.9354820  20.9373220
  97.9239510   6.6616910  20.3254490  97.7342800   5.1657730  20.4601130
  95.6827280   9.1069960  26.7441860  95.7607700   9.2418730  25.7997580
  96.2968960   8.3985850  26.9369980  96.9274910  10.8070150  23.1548040
  96.5202990  10.9484740  22.3001640  97.8187920  10.5230310  22.9519250
 112.8837050  11.2534060  31.4920280 113.0100110  11.0145940  30.5737460
 112.9258430  10.4218600  31.9642360 106.7453790  14.9562060  30.0615090
 107.2598460  14.8670070  30.8637520 105.9022870  15.3021760  30.3543000
 108.7208190  15.2417400  19.4899090 108.5609330  14.9520340  20.3880920
 108.5554900  14.4657530  18.9544320 101.1996570  15.0215930  21.2670710
 101.0239050  14.1051470  21.0538510 100.3452310  15.3803220  21.5068510
 108.4234320  12.7504960  18.0497090 107.7299480  12.7482250  17.3899370
 109.1657180  12.3264280  17.6191260 107.9884250  14.3767670  22.1245580
 108.4441200  13.5957050  22.4384200 108.3276770  15.0874490  22.6686760
 112.7361060   3.3066520  32.4570020 112.1205330   3.8146190  31.9285480
 112.4157480   2.4064850  32.3995960  95.7386800  10.1484130  29.2836320
  95.9017840   9.6789490  28.4655690  96.2039250   9.6407690  29.9485160
 109.7979890   3.3667360  31.0528870 108.9473480   3.0673110  31.3737940
 109.6381680   3.6109370  30.1412690 106.8929600   4.8669110  33.1527660
 107.2183010   4.0332860  32.8129890 107.6809930   5.3897630  33.3005990
 100.3019790   4.4023460  22.0478140 100.0760710   4.1860630  22.9524760
  99.5212320   4.8351920  21.7024110 107.5317550   4.4086830  20.6468790
 106.9326440   5.1322630  20.4632410 108.0797160   4.3463610  19.8645240
 102.7419000   5.3009040  32.7138410 102.6462600   4.3603770  32.5638810
 103.5850980   5.5224110  32.3186480 106.1382420   3.0450370  22.6772070
 106.5311990   3.3622570  21.8640760 106.4999270   2.1662250  22.7916590
  95.3616820   3.5771290  16.1104990  95.2791490   4.5202050  16.2519980
  95.0099880   3.4346200  15.2317340 106.7237560   5.6356120  26.7722850
 105.9918680   6.1442930  27.1212950 106.3261900   4.8186100  26.4711630
 103.1614950   2.3110320  25.1775340 103.1651010   1.8700270  24.3279880
 104.0566070   2.6327650  25.2847160  99.0117330   2.1936810  24.1369550
  98.6717380   2.6712040  24.8936600  98.2494650   1.7401930  23.7770650
 103.2235100   3.3122400  18.1682100 103.3447920   3.2708880  19.1167920
 102.8383610   4.1746550  18.0128830 102.2356600   5.6223540  17.5665400
 101.6673500   5.1741790  16.9401310 102.9445600   5.9816320  17.0330550
  97.3125780   9.5235560  31.4432130  96.9280570   8.8829230  32.0415090
  97.6237970  10.2271680  32.0126860 103.4622920   6.3712100  26.9240750
 103.8293050   5.8970670  27.6702090 103.2727980   7.2453670  27.2649090
 101.2522290   5.4120740  29.2424960 100.9479360   6.2912720  29.4675320
 102.2068750   5.4720530  29.2782400  99.7804080   9.6181730  19.8391810
  99.0066340   9.0779350  19.6790530 100.5098710   9.0988340  19.5009570
 110.5392060   8.6147090  25.6318200 111.2591180   9.1102380  25.2414310
 110.3373880   7.9364980  24.9872070 105.9210860   8.6856150  31.5187200
 105.8548170   7.7651820  31.2644790 105.2916000   8.7831590  32.2331840
 108.7150390   4.3804700  18.0709750 109.6030010   4.6921930  17.8961090
 108.6855480   3.5076950  17.6790330  99.8241480   9.2862110  23.4770620
 100.3420150   8.4830370  23.4227510  99.3725500   9.2241250  24.3187450
 104.7110980  10.5528390  18.7497920 105.0526680  11.2970620  18.2541240
 103.8823690  10.8659510  19.1122750  97.3086020   6.2523480  30.3896320
  96.9500960   6.9177330  30.9769660  97.0140580   5.4207030  30.7608940
 100.5099140   6.7107720  33.2735870 100.2099280   6.8564900  32.3763690
 101.2810380   6.1513010  33.1809260 105.8527590  11.5076720  31.2691000
 105.8672130  10.5757680  31.0509910 105.1452690  11.5936480  31.9080770
 110.9864660   5.6916540  17.5389610 110.9028380   6.1230760  16.6886050
 111.7058850   6.1514890  17.9716430 112.0638800   8.1484060  30.6159580
 111.3386990   8.7412840  30.4188970 112.5914260   8.1407600  29.8172950
 112.0151910  12.5458800  20.2671740 111.3728070  11.8914420  20.5415460
 111.6282570  12.9513890  19.4912410 107.5938390   9.8744230  24.1143430
 107.9462210   9.2772360  23.4544800 106.7100720   9.5488460  24.2851680
 103.6801670  10.6341920  21.5213840 104.3672800  11.1811130  21.9021430
 102.8934090  11.1782650  21.5563450  95.8194070   6.2514740  17.0130920
  96.6888920   6.5339540  17.2966840  95.3284390   7.0650610  16.8979730
 102.9828880   7.6387950  21.1339200 103.4391660   8.4493200  21.3599390
 102.6317090   7.3211090  21.9657690 105.2861490  13.1494290  28.3631500
 105.9303710  13.3553670  29.0404920 105.6490930  12.3882690  27.9102350
 106.5593570  11.1526640  27.0808950 107.2015800  10.4519800  27.1941120
 107.0842920  11.9325080  26.9005840 110.4049290  11.4375260  16.8048090
 110.1786870  10.7205700  17.3972730 110.0145490  11.1887700  15.9669840
 108.3331190  11.9521540  30.2845010 108.6687430  12.5388230  30.9622930
 107.4131530  11.8214250  30.5142800  96.1865320  15.4642120  17.5792550
  96.5462960  16.0631460  16.9249820  96.0457660  16.0102010  18.3527580
 109.9865540   9.3547200  18.4662250 109.6987240   9.8159890  19.2540130
 110.7817710   8.8944970  18.7346470  96.1707180  13.7296980  32.0534950
  96.2798300  12.7891720  31.9130340  95.5187740  13.9951730  31.4048680
 104.1619770  12.0012870  33.4533070 103.8416640  11.2822110  33.9978760
 103.4878130  12.6767940  33.5269130 102.2033940  12.8473320  18.3966220
 102.1944040  13.5803010  17.7810730 101.2832300  12.6004900  18.4893180
  97.8040580   8.0688210  19.1412980  97.1968530   8.8087110  19.1508280
  98.2789930   8.1587570  18.3151180 105.1893540  12.9101560  17.0591410
 105.2905520  12.7065550  16.1293390 104.2895280  12.6559840  17.2639190
 102.7119430   3.4681920  21.0415310 102.0035580   3.9368260  21.4828920
 102.9963910   2.8103930  21.6760500 104.3375360   4.8878620  29.0407840
 104.8360610   5.3624440  29.7059690 104.4798310   3.9642140  29.2477870
 103.8311650  15.4287880  21.7539080 104.0853150  15.3909270  20.8318450
 102.8824130  15.3021210  21.7467330 100.9154450   1.7767000  18.4166020
 101.7644980   2.2137150  18.3506210 100.5485720   2.0887260  19.2438080
 109.8364230   6.3479760  23.3297590 108.8954370   6.3629990  23.5045280
 110.1508300   5.5615720  23.7757890  99.8145870   8.0299360  16.8901550
 100.5809140   7.9180720  17.4526980  99.8920560   7.3337330  16.2378320
  98.5092630   5.4624430  17.5734440  98.5896220   4.5151940  17.6851840
  99.4012380   5.7931310  17.6795100 111.8389810  13.5188610  25.0051850
 111.9637230  14.3419780  25.4775660 112.7055370  13.3079340  24.6576000
  99.3107340  15.6119820  24.6768980 100.0469820  15.0635280  24.9477550
  99.6948260  16.4775830  24.5374970  96.1952820  11.6793390  20.5510490
  95.2692600  11.9214530  20.5415900  96.6609250  12.5067650  20.4295240
  98.3165620  14.7965890  33.8654560  99.1178350  15.1177940  34.2789960
  97.8017440  14.4361470  34.5874470 102.4209650  14.7850130  16.4994550
 103.2138260  15.0738960  16.0476340 101.9014000  14.3542300  15.8207030
 107.1530250  10.9045760  33.8129970 106.5468410  10.9277360  33.0725720
 106.8484360  10.1728800  34.3497220 108.5830620  14.6326050  32.4239380
 109.5352370  14.5484070  32.3739620 108.4358840  15.2967760  33.0973170
 111.4739820  14.0120260  17.9231290 111.1881330  13.5985400  17.1085470
 111.2759370  14.9407970  17.8031810  96.0363430   7.2839350  32.8090610
  96.5402450   6.7046630  33.3806840  95.2970850   7.5679580  33.3466980
 102.9387050  10.0053540  16.3636900 102.8337690   9.3905890  17.0898280
 102.7711270   9.4819430  15.5799910 103.0901370   8.6910340  32.3426130
 102.3247040   9.2595340  32.2580800 103.2717330   8.3986550  31.4494360
 106.1789780   9.0673570  16.9678890 105.6299880   9.5142870  17.6121630
 106.8009040   8.5622820  17.4916560 110.2324720  10.4215670  32.9001150
 110.9734190  10.7591430  32.3968610 109.4697400  10.5907730  32.3470920
  98.0686510   5.4268940  33.7040680  98.1091850   5.1282810  34.6125910
  98.9232010   5.8276550  33.5448200 101.8464900   8.0264490  18.8644190
 102.2681320   7.8604360  19.7075580 101.9715740   7.2164720  18.3699330
 100.0092320   4.0061040  31.6715170  99.4788780   3.5151990  31.0438510
 100.6780390   4.4345240  31.1373100 104.3592540   7.0502100  16.1121290
 104.8798200   6.3351120  15.7462440 105.0060940   7.6887970  16.4121800
 108.9070380   8.4730500  31.4356360 109.3211400   8.6275580  32.2846780
 107.9721380   8.5985720  31.5982140 109.3792550   5.8126660  33.4395510
 109.9613320   5.0578980  33.3515990 109.5554320   6.3434100  32.6626990
 103.6685610   8.4250980  29.4052290 104.0873720   9.2683710  29.2328530
 102.7494240   8.5623020  29.1759070 106.0049510   6.1567160  30.7890130
 106.1245720   5.5608300  31.5284970 106.8643510   6.1936850  30.3691430
 108.3437410   6.7104350  29.3652640 107.8172630   7.2346970  28.7617780
 108.6868750   7.3431740  29.9962370 100.7423800   4.0997720  15.8102350
 100.5412860   3.2365080  16.1715690 100.5715850   4.0131080  14.8723950
 101.5193030  14.7303990  30.5210020 100.9814120  15.4550050  30.2018720
 101.7726990  14.2534330  29.7307360 102.7718280   2.6988510  32.0465950
 103.3617970   2.3904360  32.7343770 101.9538520   2.2268260  32.2025850
 107.5911710   2.3154320  32.2798970 106.9027230   1.6535860  32.2148960
 108.3117730   1.8692590  32.7247430 104.3755240  15.9655200  30.7796670
 104.3013940  16.8690340  31.0869040 103.4734080  15.6467100  30.7518740
 104.9240570  15.1313710  18.4023030 105.8191360  15.4698680  18.4241790
 104.9558200  14.4093120  17.7747310  98.5636730  10.5040760  16.6310030
  99.0011600  11.0470430  17.2867610  99.0484460   9.6787710  16.6406370
  95.7782530  13.2929790  24.0830290  96.1085540  12.4250850  23.8508930
  96.2073530  13.4988310  24.9135250 100.3744450  11.6238800  21.7432260
 100.0739990  11.5003770  22.6436170 100.2681940  10.7647390  21.3347990
  96.2672740  14.1600380  26.8211920  95.8303730  14.3401180  27.6536070
  96.8350420  14.9175000  26.6793640 111.9034920  13.6617380  31.1089230
 111.3036910  13.7209940  30.3653150 112.0328820  12.7222360  31.2386080
 113.1436370  11.4035200  16.4458940 112.3129330  11.4711850  16.9166170
 113.3208200  12.2939320  16.1425800 112.5992830   8.1482680  18.9493140
 113.3611740   8.7179330  19.0552830 112.6147200   7.5809880  19.7201450
  96.0997170   6.6720610  23.1800800  95.4446010   6.4032250  22.5360500
  96.9375120   6.5625090  22.7302780 110.5886560  10.3869360  29.2065390
 109.7746400  10.8166520  29.4691180 110.9960760  10.9987770  28.5934440
 112.6512000   8.4417050  16.1065660 112.9260840   9.3495930  15.9784880
 112.4622740   8.3779580  17.0427650 112.5477340   6.3786040  21.0995090
 112.1720940   5.6113970  20.6676380 111.8180460   6.7608740  21.5870020
  97.1373100   7.0573180  27.7204140  97.5046140   6.9700580  28.6000160
  96.5683920   6.2939730  27.6211000 111.9376960   5.5257560  30.7334610
 111.7063050   5.2970310  29.8332560 112.1981510   6.4457110  30.6879500
  96.6889100   3.9682270  31.6262560  95.7945150   3.9349030  31.9656270
  97.2286650   4.1669060  32.3913810  95.3135250   3.8819540  19.1226130
  94.4099330   4.1449740  18.9477790  95.7975870   4.1530710  18.3426090
 111.8228300   4.6043530  24.4002330 112.3465780   4.1106180  23.7692500
 112.4087720   4.7393890  25.1449900 112.0018020   4.6883400  27.9221880
 111.0520730   4.6546940  28.0366870 112.1831030   5.5983510  27.6871650
  97.8562460   2.9385080  17.0320510  98.5654160   2.5168300  16.5467790
  97.1402400   3.0060310  16.4003860 111.3128270   3.8616880  20.3394740
 111.8087390   3.6287750  21.1243620 111.1144340   3.0228720  19.9232380
 110.6462610  15.1387960  22.7333660 111.2421680  14.8172530  22.0568080
 110.9040760  14.6659780  23.5246930  98.5525180  11.5705870  32.8824290
  98.5094810  11.1998780  33.7638750  98.6836190  12.5083440  33.0226110
 102.2531210  13.1265460  28.4834010 102.0122570  13.3940020  27.5964530
 103.1933850  13.2971190  28.5384870  98.3913210  14.5168120  30.0022070
  97.7973530  14.3852820  30.7412110  98.3837050  13.6806260  29.5364170
 111.1974820  15.7883260  26.5631390 110.7377790  16.5399070  26.1889410
 110.5687280  15.0689730  26.5046190  98.0225440  11.8826500  28.9530110
  97.2959500  11.2631790  28.8856060  98.0834590  12.2767110  28.0828190
 101.6270540  14.0971500  25.7379520 102.1435560  13.4858860  25.2127780
 102.2767920  14.6000280  26.2290530 104.3666040  14.9879990  26.5648500
 104.6543850  14.7334290  25.6881510 104.8789260  14.4357350  27.1554070
  96.3055440  15.2000890  22.1626870  96.1377480  14.5671570  22.8608760
  95.4389950  15.4060290  21.8121060  97.9118140  13.8934120  19.6077010
  97.3865760  14.2742150  18.9038970  97.8362720  14.5184890  20.3286720
 104.4338400  15.9096090  33.9316700 105.3605710  15.6740360  33.9752660
 104.4188830  16.7368090  33.4502730 112.6683460  15.4521660  20.9290950
 112.8435650  14.7659400  20.2851870 111.9705030  15.9768710  20.5367620
 100.5111110  15.8416500  18.4826260 101.2429930  15.5575780  17.9350150
 100.7704780  15.6029780  19.3725640  99.6725900  11.9581230  18.4872590
  99.0434780  12.4266330  19.0358420  99.7873730  11.1130450  18.9218780
 111.0015960  15.1365950  33.7557740 111.7941280  14.6415180  33.5483700
 111.2949110  15.8156090  34.3633350 107.1275620   6.0086890   4.6373790
 107.0469670   5.0941500   4.3665500 106.7140040   6.5053960   3.9313500
 105.2593660   7.7865910   6.5183060 104.4835760   7.3066350   6.8081630
 105.9106590   7.1071560   6.3439220  99.2759490   8.0985720   7.3958820
  98.4444370   7.8434430   7.7955330  99.8840470   8.1696490   8.1316740
 109.2801090  12.1926100   5.2982190 108.8182620  11.4213340   5.6269360
 110.0926640  12.2192170   5.8034640  99.2560750  12.1325810   7.5916840
  99.5588790  11.2423550   7.4127060 100.0004340  12.6896030   7.3639090
  95.6484450   5.6593260   7.0640910  96.2200560   4.8915460   7.0644550
  95.6485990   5.9582020   6.1547520 105.5064400  14.4784110   4.9186180
 104.8875840  14.9341610   4.3480620 106.3616180  14.6335570   4.5175880
 104.7002650  10.4623100   6.5253220 104.6310930   9.5213040   6.3642350
 105.4622510  10.5524510   7.0975790 105.7307820   3.2693480   6.7522150
 106.1072640   2.3965360   6.6395820 105.6327330   3.6052180   5.8612590
  97.5095990   3.5638120   7.4592180  98.1906100   3.8276490   8.0779580
  97.1944040   2.7238990   7.7930190 101.7020560   4.6105480   6.5464770
 102.2098780   5.1086450   7.1869790 102.2333800   3.8340680   6.3704130
 106.3727750   9.3623350   2.3118090 105.7545020   9.8272800   1.7480810
 106.8851000  10.0550830   2.7287600 101.2359510   8.8899220   8.9901690
 100.9028890   9.5168140   9.6322760 101.4126190   9.4161100   8.2103360
 109.7493420   2.7044300   6.4578030 109.0448990   2.9929190   7.0381140
 110.1105580   3.5144410   6.0977590 100.4478610  10.8580020  10.8050870
 101.0652610  11.5331100  10.5235320  99.5871730  11.2668000  10.7138370
 111.3656200  12.3219430   8.7205510 110.6819720  12.9918540   8.7122180
 111.9050490  12.5200080   7.9550370 112.8180340   2.1499090   6.8487240
 111.8705250   2.1838070   6.9802670 113.1430330   2.9638040   7.2336600
 108.9014940  14.1663560   7.4350690 108.9142100  13.7625850   6.5672950
 108.3490160  14.9410850   7.3312120 110.1960360  10.8879780   2.5240860
 110.0856690   9.9454110   2.6490280 110.1928610  11.2495420   3.4103620
 108.3000380   9.0693400   8.7633300 108.7169170   8.8553510   7.9286760
 109.0240200   9.3266190   9.3341920 105.7380640   6.5145100   1.8803350
 104.8109920   6.4482480   2.1091820 105.8905460   7.4525230   1.7658590
 112.2462480   7.4680620   8.8549540 111.4181110   7.5373710   8.3799670
 112.8412960   8.0534930   8.3865370 109.7677930   8.0765400   2.3838600
 109.1490350   7.7384950   1.7364900 109.7502380   7.4325160   3.0917790
 109.2104490   4.2549940   9.8004410 108.7975670   5.0803650  10.0544400
 108.4780440   3.6694980   9.6080770 101.3437280   7.0409840   4.6623080
 100.9394280   6.3287090   4.1668980 101.4300400   6.6963080   5.5511120
 101.8118980  10.7277400   6.8262290 101.5147270  10.1222870   6.1470070
 102.7618800  10.7654710   6.7151650 100.0565900   3.8153050   8.4422120
 100.6080490   3.9248390   7.6675370 100.5709410   4.1890650   9.1577350
 109.9004590  14.3009270  10.4885390 109.4235150  15.1081460  10.2958000
 109.2166380  13.6487600  10.6411600 100.9037410  10.4659090  13.4770090
 100.0065940  10.6899060  13.7243490 100.9290280  10.5894030  12.5281490
  99.7308630   7.3372410  12.0527460  99.5916400   8.2095210  12.4214860
  98.8489990   6.9945220  11.9075400 106.0538010  12.2548280   3.3592590
 106.4933920  12.9972610   2.9447980 105.9924900  12.4974850   4.2831550
 101.5288980  13.2794110  14.2612610 101.5004410  13.6837060  13.3941040
 101.3653950  12.3504470  14.0984210  95.6827280   9.1069960   7.9698370
  95.7607700   9.2418730   7.0254090  96.2968960   8.3985850   8.1626490
  96.9274910  10.8070150   4.3804550  96.5202990  10.9484740   3.5258150
  97.8187920  10.5230310   4.1775760 112.8837050  11.2534060  12.7176790
 113.0100110  11.0145940  11.7993970 112.9258430  10.4218600  13.1898870
 106.7453790  14.9562060  11.2871600 107.2598460  14.8670070  12.0894030
 105.9022870  15.3021760  11.5799510 101.1996570  15.0215930   2.4927220
 101.0239050  14.1051470   2.2795020 100.3452310  15.3803220   2.7325020
 107.9884250  14.3767670   3.3502090 108.4441200  13.5957050   3.6640710
 108.3276770  15.0874490   3.8943270 112.7361060   3.3066520  13.6826530
 112.1205330   3.8146190  13.1541990 112.4157480   2.4064850  13.6252470
  95.7386800  10.1484130  10.5092830  95.9017840   9.6789490   9.6912200
  96.2039250   9.6407690  11.1741670 109.7979890   3.3667360  12.2785380
 108.9473480   3.0673110  12.5994450 109.6381680   3.6109370  11.3669200
 106.8929600   4.8669110  14.3784170 107.2183010   4.0332860  14.0386400
 107.6809930   5.3897630  14.5262500 100.3019790   4.4023460   3.2734650
 100.0760710   4.1860630   4.1781270  99.5212320   4.8351920   2.9280620
 102.7419000   5.3009040  13.9394920 102.6462600   4.3603770  13.7895320
 103.5850980   5.5224110  13.5442990 106.1382420   3.0450370   3.9028580
 106.5311990   3.3622570   3.0897270 106.4999270   2.1662250   4.0173100
 106.7237560   5.6356120   7.9979360 105.9918680   6.1442930   8.3469460
 106.3261900   4.8186100   7.6968140 103.1614950   2.3110320   6.4031850
 103.1651010   1.8700270   5.5536390 104.0566070   2.6327650   6.5103670
  99.0117330   2.1936810   5.3626060  98.6717380   2.6712040   6.1193110
  98.2494650   1.7401930   5.0027160  97.3125780   9.5235560  12.6688640
  96.9280570   8.8829230  13.2671600  97.6237970  10.2271680  13.2383370
 103.4622920   6.3712100   8.1497260 103.8293050   5.8970670   8.8958600
 103.2727980   7.2453670   8.4905600 101.2522290   5.4120740  10.4681470
 100.9479360   6.2912720  10.6931830 102.2068750   5.4720530  10.5038910
 110.5392060   8.6147090   6.8574710 111.2591180   9.1102380   6.4670820
 110.3373880   7.9364980   6.2128580 105.9210860   8.6856150  12.7443710
 105.8548170   7.7651820  12.4901300 105.2916000   8.7831590  13.4588350
  99.8241480   9.2862110   4.7027130 100.3420150   8.4830370   4.6484020
  99.3725500   9.2241250   5.5443960  97.3086020   6.2523480  11.6152830
  96.9500960   6.9177330  12.2026170  97.0140580   5.4207030  11.9865450
 100.5099140   6.7107720  14.4992380 100.2099280   6.8564900  13.6020200
 101.2810380   6.1513010  14.4065770 105.8527590  11.5076720  12.4947510
 105.8672130  10.5757680  12.2766420 105.1452690  11.5936480  13.1337280
 112.0638800   8.1484060  11.8416090 111.3386990   8.7412840  11.6445480
 112.5914260   8.1407600  11.0429460 107.5938390   9.8744230   5.3399940
 107.9462210   9.2772360   4.6801310 106.7100720   9.5488460   5.5108190
 103.6801670  10.6341920   2.7470350 104.3672800  11.1811130   3.1277940
 102.8934090  11.1782650   2.7819960 102.9828880   7.6387950   2.3595710
 103.4391660   8.4493200   2.5855900 102.6317090   7.3211090   3.1914200
 105.2861490  13.1494290   9.5888010 105.9303710  13.3553670  10.2661430
 105.6490930  12.3882690   9.1358860 106.5593570  11.1526640   8.3065460
 107.2015800  10.4519800   8.4197630 107.0842920  11.9325080   8.1262350
 108.3331190  11.9521540  11.5101520 108.6687430  12.5388230  12.1879440
 107.4131530  11.8214250  11.7399310  96.1707180  13.7296980  13.2791460
  96.2798300  12.7891720  13.1386850  95.5187740  13.9951730  12.6305190
 104.1619770  12.0012870  14.6789580 103.8416640  11.2822110  15.2235270
 103.4878130  12.6767940  14.7525640 102.7119430   3.4681920   2.2671820
 102.0035580   3.9368260   2.7085430 102.9963910   2.8103930   2.9017010
 104.3375360   4.8878620  10.2664350 104.8360610   5.3624440  10.9316200
 104.4798310   3.9642140  10.4734380 103.8311650  15.4287880   2.9795590
 104.0853150  15.3909270   2.0574960 102.8824130  15.3021210   2.9723840
 109.8364230   6.3479760   4.5554100 108.8954370   6.3629990   4.7301790
 110.1508300   5.5615720   5.0014400 111.8389810  13.5188610   6.2308360
 111.9637230  14.3419780   6.7032170 112.7055370  13.3079340   5.8832510
  99.3107340  15.6119820   5.9025490 100.0469820  15.0635280   6.1734060
  99.6948260  16.4775830   5.7631480  96.1952820  11.6793390   1.7767000
  95.2692600  11.9214530   1.7672410  96.6609250  12.5067650   1.6551750
  98.3165620  14.7965890  15.0911070  99.1178350  15.1177940  15.5046470
  97.8017440  14.4361470  15.8130980 107.1530250  10.9045760  15.0386480
 106.5468410  10.9277360  14.2982230 106.8484360  10.1728800  15.5753730
 108.5830620  14.6326050  13.6495890 109.5352370  14.5484070  13.5996130
 108.4358840  15.2967760  14.3229680  96.0363430   7.2839350  14.0347120
  96.5402450   6.7046630  14.6063350  95.2970850   7.5679580  14.5723490
 103.0901370   8.6910340  13.5682640 102.3247040   9.2595340  13.4837310
 103.2717330   8.3986550  12.6750870 110.2324720  10.4215670  14.1257660
 110.9734190  10.7591430  13.6225120 109.4697400  10.5907730  13.5727430
  98.0686510   5.4268940  14.9297190  98.1091850   5.1282810  15.8382420
  98.9232010   5.8276550  14.7704710 100.0092320   4.0061040  12.8971680
  99.4788780   3.5151990  12.2695020 100.6780390   4.4345240  12.3629610
 108.9070380   8.4730500  12.6612870 109.3211400   8.6275580  13.5103290
 107.9721380   8.5985720  12.8238650 109.3792550   5.8126660  14.6652020
 109.9613320   5.0578980  14.5772500 109.5554320   6.3434100  13.8883500
 103.6685610   8.4250980  10.6308800 104.0873720   9.2683710  10.4585040
 102.7494240   8.5623020  10.4015580 106.0049510   6.1567160  12.0146640
 106.1245720   5.5608300  12.7541480 106.8643510   6.1936850  11.5947940
 108.3437410   6.7104350  10.5909150 107.8172630   7.2346970   9.9874290
 108.6868750   7.3431740  11.2218880 101.5193030  14.7303990  11.7466530
 100.9814120  15.4550050  11.4275230 101.7726990  14.2534330  10.9563870
 102.7718280   2.6988510  13.2722460 103.3617970   2.3904360  13.9600280
 101.9538520   2.2268260  13.4282360 107.5911710   2.3154320  13.5055480
 106.9027230   1.6535860  13.4405470 108.3117730   1.8692590  13.9503940
 104.3755240  15.9655200  12.0053180 104.3013940  16.8690340  12.3125550
 103.4734080  15.6467100  11.9775250  95.7782530  13.2929790   5.3086800
  96.1085540  12.4250850   5.0765440  96.2073530  13.4988310   6.1391760
 100.3744450  11.6238800   2.9688770 100.0739990  11.5003770   3.8692680
 100.2681940  10.7647390   2.5604500  96.2672740  14.1600380   8.0468430
  95.8303730  14.3401180   8.8792580  96.8350420  14.9175000   7.9050150
 111.9034920  13.6617380  12.3345740 111.3036910  13.7209940  11.5909660
 112.0328820  12.7222360  12.4642590  96.0997170   6.6720610   4.4057310
  95.4446010   6.4032250   3.7617010  96.9375120   6.5625090   3.9559290
 110.5886560  10.3869360  10.4321900 109.7746400  10.8166520  10.6947690
 110.9960760  10.9987770   9.8190950 112.5477340   6.3786040   2.3251600
 112.1720940   5.6113970   1.8932890 111.8180460   6.7608740   2.8126530
  97.1373100   7.0573180   8.9460650  97.5046140   6.9700580   9.8256670
  96.5683920   6.2939730   8.8467510 111.9376960   5.5257560  11.9591120
 111.7063050   5.2970310  11.0589070 112.1981510   6.4457110  11.9136010
  96.6889100   3.9682270  12.8519070  95.7945150   3.9349030  13.1912780
  97.2286650   4.1669060  13.6170320 111.8228300   4.6043530   5.6258840
 112.3465780   4.1106180   4.9949010 112.4087720   4.7393890   6.3706410
 112.0018020   4.6883400   9.1478390 111.0520730   4.6546940   9.2623380
 112.1831030   5.5983510   8.9128160 110.6462610  15.1387960   3.9590170
 111.2421680  14.8172530   3.2824590 110.9040760  14.6659780   4.7503440
  98.5525180  11.5705870  14.1080800  98.5094810  11.1998780  14.9895260
  98.6836190  12.5083440  14.2482620 102.2531210  13.1265460   9.7090520
 102.0122570  13.3940020   8.8221040 103.1933850  13.2971190   9.7641380
  98.3913210  14.5168120  11.2278580  97.7973530  14.3852820  11.9668620
  98.3837050  13.6806260  10.7620680 111.1974820  15.7883260   7.7887900
 110.7377790  16.5399070   7.4145920 110.5687280  15.0689730   7.7302700
  98.0225440  11.8826500  10.1786620  97.2959500  11.2631790  10.1112570
  98.0834590  12.2767110   9.3084700 101.6270540  14.0971500   6.9636030
 102.1435560  13.4858860   6.4384290 102.2767920  14.6000280   7.4547040
 104.3666040  14.9879990   7.7905010 104.6543850  14.7334290   6.9138020
 104.8789260  14.4357350   8.3810580  96.3055440  15.2000890   3.3883380
  96.1377480  14.5671570   4.0865270  95.4389950  15.4060290   3.0377570
 104.4338400  15.9096090  15.1573210 105.3605710  15.6740360  15.2009170
 104.4188830  16.7368090  14.6759240 111.0015960  15.1365950  14.9814250
 111.7941280  14.6415180  14.7740210 111.2949110  15.8156090  15.5889860
  88.3532130  81.1060850  79.7347750  88.2726180  80.1915460  79.4639460
  87.9396550  81.6027920  79.0287460  86.4850170  82.8839870  81.6157020
  85.7092270  82.4040310  81.9055590  87.1363100  82.2045520  81.4413180
  80.5016000  83.1959680  82.4932780  79.6700880  82.9408390  82.8929290
  81.1096980  83.2670450  83.2290700  78.9107950  78.1561570  76.2775170
  78.0224650  78.4977540  76.1755050  79.1949140  77.9561890  75.3856000
  76.8740960  80.7567220  82.1614870  77.4457070  79.9889420  82.1618510
  76.8742500  81.0555980  81.2521480  85.9259160  85.5597060  81.6227180
  85.8567440  84.6187000  81.4616310  86.6879020  85.6498470  82.1949750
  78.1165830  76.1651580  83.9483800  77.9368670  75.2677330  84.2286560
  77.7145910  76.7123450  84.6230750  86.9564330  78.3667440  81.8496110
  87.3329150  77.4939320  81.7369780  86.8583840  78.7026140  80.9586550
  81.0869340  76.7393070  77.3113550  81.1936090  77.6396800  77.6182310
  80.1761700  76.6911040  77.0208200  90.7388450  75.8617880  78.7824450
  91.5598070  75.3714450  78.8249930  90.7722530  76.4515540  79.5356290
  78.7352500  78.6612080  82.5566140  79.4162610  78.9250450  83.1753540
  78.4200550  77.8212950  82.8904150  82.9277070  79.7079440  81.6438730
  83.4355290  80.2060410  82.2843750  83.4590310  78.9314640  81.4678090
  95.0288000  77.8784630  85.3468080  94.3240170  78.2666340  84.8283190
  95.2945920  78.5734920  85.9489010  81.2113170  74.3478000  85.9102150
  81.2131610  74.8650390  85.1048050  80.3817480  73.8708180  85.8872080
  87.5984260  84.4597310  77.4092050  86.9801530  84.9246760  76.8454770
  88.1107510  85.1524790  77.8261560  82.4616020  83.9873180  84.0875650
  82.1285400  84.6142100  84.7296720  82.6382700  84.5135060  83.3077320
  90.9749930  77.8018260  81.5551990  90.2705500  78.0903150  82.1355100
  91.3362090  78.6118370  81.1951550  80.8928500  76.0587960  83.9172600
  81.2345310  76.9030010  83.6226470  79.9544310  76.2071700  84.0337940
  81.6735120  85.9553980  85.9024830  82.2909120  86.6305060  85.6209280
  80.8128240  86.3641960  85.8112330  76.9667460  85.1453840  74.7831680
  76.5895440  85.6340940  74.0516580  77.2240530  85.8179120  75.4138210
  94.0436850  77.2473050  81.9461200  93.0961760  77.2812030  82.0776630
  94.3686840  78.0612000  82.3310560  84.5756390  73.5470230  80.2417190
  84.8831370  72.9917120  79.5252690  83.6457090  73.6814690  80.0590180
  91.4216870  85.9853740  77.6214820  91.3113200  85.0428070  77.7464240
  91.4185120  86.3469380  78.5077580  89.5256890  84.1667360  83.8607260
  89.9425680  83.9527470  83.0260720  90.2496710  84.4240150  84.4315880
  86.9637150  81.6119060  76.9777310  86.0366430  81.5456440  77.2065780
  87.1161970  82.5499190  76.8632550  86.9506230  77.8836060  73.9744470
  86.0109900  78.0450020  74.0596930  87.2689490  78.6021740  73.4280460
  93.4718990  82.5654580  83.9523500  92.6437620  82.6347670  83.4773630
  94.0669470  83.1508890  83.4839330  90.9934440  83.1739360  77.4812560
  90.3746860  82.8358910  76.8338860  90.9758890  82.5299120  78.1891750
  90.4361000  79.3523900  84.8978370  90.0232180  80.1777610  85.1518360
  89.7036950  78.7668940  84.7054730  82.5693790  82.1383800  79.7597040
  82.1650790  81.4261050  79.2642940  82.6556910  81.7937040  80.6485080
  83.0375490  85.8251360  81.9236250  82.7403780  85.2196830  81.2444030
  83.9875310  85.8628670  81.8125610  81.2822410  78.9127010  83.5396080
  81.8337000  79.0222350  82.7649330  81.7965920  79.2864610  84.2551310
  89.1699140  82.4126170  74.4885310  89.6092420  81.5748600  74.3423130
  89.8827560  83.0455570  74.5749450  92.7516280  73.6668980  72.8026350
  92.4388940  73.7595810  73.7025420  93.5128750  74.2450010  72.7523780
  79.2698420  81.0328780  77.2603690  79.1496020  81.7590870  76.6484960
  78.9599310  80.2631690  76.7831600  76.9083790  84.2043920  83.0672330
  76.9864210  84.3392690  82.1228050  77.5225470  83.4959810  83.2600450
  78.1531420  85.9044110  79.4778510  77.7459500  86.0458700  78.6232110
  79.0444430  85.6204270  79.2749720  81.7362080  74.3763850  80.6427360
  81.2930230  75.1573390  80.3111880  82.2947070  74.6993740  81.3498300
  84.8520900  73.9974550  75.5233190  84.2275080  73.9934420  76.2486500
  84.7651020  73.1305510  75.1269160  83.7737980  74.9211180  82.5016960
  84.0710310  75.8274010  82.4208980  84.3223540  74.4329960  81.8876530
  81.5276300  79.4997420  78.3708610  81.3017220  79.2834590  79.2755230
  80.7468830  79.9325880  78.0254580  88.7574060  79.5060790  76.9699260
  88.1582950  80.2296590  76.7862880  89.3053670  79.4437570  76.1875710
  87.3638930  78.1424330  79.0002540  87.7568500  78.4596530  78.1871230
  87.7255780  77.2636210  79.1147060  76.4003100  74.7325130  81.2232740
  76.1116150  75.3027990  81.9357720  77.1448860  74.2529580  81.5863970
  76.5873330  78.6745250  72.4335460  76.5048000  79.6176010  72.5750450
  76.2356390  78.5320160  71.5547810  87.9494070  80.7330080  83.0953320
  87.2175190  81.2416890  83.4443420  87.5518410  79.9160060  82.7942100
  84.3871460  77.4084280  81.5005810  84.3907520  76.9674230  80.6510350
  85.2822580  77.7301610  81.6077630  80.2373840  77.2910770  80.4600020
  79.8973890  77.7686000  81.2167070  79.4751160  76.8375890  80.1001120
  84.4491610  78.4096360  74.4912570  84.5704430  78.3682840  75.4398390
  84.0640120  79.2720510  74.3359300  88.4119980  76.1863760  82.5076260
  88.4292720  76.6372410  83.3518110  88.1635560  75.2869400  82.7209700
  83.4613110  80.7197500  73.8895870  82.8930010  80.2715750  73.2631780
  84.1702110  81.0790280  73.3561020  84.6879430  81.4686060  83.2471220
  85.0549560  80.9944630  83.9932560  84.4984490  82.3427630  83.5879560
  77.5519920  76.2129750  79.3764690  77.2666840  75.8485420  80.2143310
  77.4898780  75.4810210  78.7627830  82.4778800  80.5094700  85.5655430
  82.1735870  81.3886680  85.7905790  83.4325260  80.5694490  85.6012870
  81.0060590  84.7155690  76.1622280  80.2322850  84.1753310  76.0021000
  81.7355220  84.1962300  75.8240040  91.7648570  83.7121050  81.9548670
  92.4847690  84.2076340  81.5644780  91.5630390  83.0338940  81.3102540
  87.2258510  75.1059010  76.0978060  86.4123120  74.6072180  76.0223370
  87.0320460  75.9457260  75.6814410  89.9406900  79.4778660  74.3940220
  90.8286520  79.7895890  74.2191560  89.9111990  78.6050910  74.0020800
  81.0497990  84.3836070  79.8001090  81.5676660  83.5804330  79.7457980
  80.5982010  84.3215210  80.6417920  85.9367490  85.6502350  75.0728390
  86.2783190  86.3944580  74.5771710  85.1080200  85.9633470  75.4353220
  92.2121170  80.7890500  73.8620080  92.1284890  81.2204720  73.0116520
  92.9315360  81.2488850  74.2946900  88.8194900  84.9718190  80.4373900
  89.1718720  84.3746320  79.7775270  87.9357230  84.6462420  80.6082150
  84.9058180  85.7315880  77.8444310  85.5929310  86.2785090  78.2251900
  84.1190600  86.2756610  77.8793920  77.0450580  81.3488700  73.3361390
  77.9145430  81.6313500  73.6197310  76.5540900  82.1624570  73.2210200
  84.2085390  82.7361910  77.4569670  84.6648170  83.5467160  77.6829860
  83.8573600  82.4185050  78.2888160  80.1097170  73.0799560  77.9292190
  79.9811800  73.0717460  78.8777110  79.2859190  73.4182650  77.5783200
  87.7850080  86.2500600  83.4039420  88.4272310  85.5493760  83.5171590
  88.3099430  87.0299040  83.2236310  91.6305800  86.5349220  73.1278560
  91.4043380  85.8179660  73.7203200  91.2402000  86.2861660  72.2900310
  91.2122050  84.4521160  74.7892720  90.9243750  84.9133850  75.5770600
  92.0074220  83.9918930  75.0576940  79.0297090  83.1662170  75.4643450
  78.4225040  83.9061070  75.4738750  79.5046440  83.2561530  74.6381650
  88.6029880  77.3312990  85.1400340  88.9710700  76.5108200  85.4679910
  87.7428080  77.3914880  85.5555990  91.9691910  76.2869930  75.9487900
  91.3405070  76.3915600  75.2346130  91.4743830  76.5066710  76.7381780
  83.9375940  78.5655880  77.3645780  83.2292090  79.0342220  77.8059390
  84.2220420  77.9077890  77.9990970  87.9691370  75.2906540  78.8041570
  87.8459150  75.3092670  77.8551080  88.9175930  75.3385480  78.9239970
  82.1410960  76.8740960  74.7396490  82.9901490  77.3111110  74.6736680
  81.7742230  77.1861220  75.5668550  91.0620740  81.4453720  79.6528060
  90.1210880  81.4603950  79.8275750  91.3764810  80.6589680  80.0988360
  81.0402380  83.1273320  73.2132020  81.8065650  83.0154680  73.7757450
  81.1177070  82.4311290  72.5608790  79.7349140  80.5598390  73.8964910
  79.8152730  79.6125900  74.0082310  80.6268890  80.8905270  74.0025570
  84.1643560  85.1027500  72.6867370  84.0594200  84.4879850  73.4128750
  83.9967780  84.5793390  71.9030380  87.4046290  84.1647530  73.2909360
  86.8556390  84.6116830  73.9352100  88.0265550  83.6596780  73.8147030
  83.0721410  83.1238450  75.1874660  83.4937830  82.9578320  76.0306050
  83.1972250  82.3138680  74.6929800  85.5849050  82.1476060  72.4351760
  86.1054710  81.4325080  72.0692910  86.2317450  82.7861930  72.7352270
  84.4882570  74.6270610  85.1070320  84.0399870  74.6494870  84.2615870
  83.8547770  74.2289630  85.7040620  84.8942120  83.5224940  85.7282760
  85.3130230  84.3657670  85.5559000  83.9750750  83.6596980  85.4989540
  81.9680310  79.1971680  72.1332820  81.7669370  78.3339040  72.4946160
  81.7972360  79.1105040  71.1954420  89.4468620  74.0079910  74.6619700
  89.7270910  73.1647810  75.0179120  88.6734350  74.2403020  75.1758450
  80.7663110  76.2972300  72.1210700  81.0689010  76.3039730  71.2129850
  81.5057700  75.9470160  72.6178360  83.9848040  75.2406920  73.1066900
  83.6370040  74.5630910  72.5269350  84.1860810  74.7796430  73.9210290
  79.7893240  85.6014720  72.9540500  80.2268110  86.1444390  73.6098080
  80.2740970  84.7761670  72.9636840  81.6000960  86.7212760  78.0662730
  81.2996500  86.5977730  78.9666640  81.4938450  85.8621350  77.6578460
  93.8249340  83.2456640  75.2723610  94.5868250  83.8153290  75.3783300
  93.8403710  82.6783840  76.0431920  77.3253680  81.7694570  79.5031270
  76.6702520  81.5006210  78.8590970  78.1631630  81.6599050  79.0533250
  94.8309310  84.1006740  80.1165540  95.2018140  83.3174060  79.7101510
  95.4711240  84.7895840  79.9382840  91.8143070  85.4843320  85.5295860
  91.0002910  85.9140480  85.7921650  92.2217270  86.0961730  84.9164910
  93.8768510  83.5391010  72.4296130  94.1517350  84.4469890  72.3015350
  93.6879250  83.4753540  73.3658120  90.2744120  76.5635860  73.7249760
  90.6929000  76.3766840  72.8846420  89.9680180  75.7114910  74.0352690
  93.7733850  81.4760000  77.4225560  93.3977450  80.7087930  76.9906850
  93.0436970  81.8582700  77.9100490  78.3629610  82.1547140  84.0434610
  78.7302650  82.0674540  84.9230630  77.7940430  81.3913690  83.9441470
  76.5391760  78.9793500  75.4456600  75.6355840  79.2423700  75.2708260
  77.0232380  79.2504670  74.6656560  93.0484810  79.7017490  80.7232800
  93.5722290  79.2080140  80.0922970  93.6344230  79.8367850  81.4680370
  93.2274530  79.7857360  84.2452350  92.2777240  79.7520900  84.3597340
  93.4087540  80.6957470  84.0102120  79.0818970  78.0359040  73.3550980
  79.7910670  77.6142260  72.8698260  78.3658910  78.1034270  72.7234330
  78.7293130  74.0898370  72.3953630  79.4521260  74.6307310  72.7134850
  79.0017650  73.8161790  71.5195170  92.5384780  78.9590840  76.6625210
  93.0343900  78.7261710  77.4474090  92.3400850  78.1202680  76.2462850
  78.4185320  73.3404560  82.2976250  79.0661510  72.7901940  81.8571410
  78.8387160  73.5947710  83.1192060  93.9671940  77.5951790  79.1962890
  93.8571220  77.4407830  80.1345160  94.7279530  77.0672730  78.9538300
  94.8562210  75.4259710  72.4369030  95.7811520  75.2940890  72.2287320
  94.8338000  75.5052530  73.3905480  94.9300700  76.1970370  75.0625740
  94.1352200  76.1315490  75.5918650  95.1343980  77.1321010  75.0511090
  78.1717320  73.4960230  85.0401570  77.8232140  73.9524050  85.8059750
  77.8405020  72.6017360  85.1224000  89.0624740  72.9074310  84.5282570
  88.1884580  73.2409420  84.3255500  88.9535490  72.4347490  85.3534440
  89.9696720  75.1145180  85.9124290  89.6410080  74.2996940  85.5326020
  90.9179020  75.0714990  85.7889980  86.8099560  73.8244150  83.4675480
  86.0271350  74.2989650  83.7472240  86.5162490  72.9198980  83.3588660
  91.3620630  74.5267250  81.5124570  91.8028720  74.4712350  80.6646170
  91.0928220  75.4425260  81.5834750  93.2259200  74.1582490  79.5233390
  93.1647600  73.2143710  79.3764410  94.0051230  74.2662580  80.0686850
  78.1539970  74.1291630  75.9889200  78.9119330  74.2420510  75.4153230
  77.6917140  74.9660830  75.9432630  84.6953780  76.2430900  78.9791510
  83.8828290  75.8687790  78.6387390  85.1995420  75.4875980  79.2812700
  89.1978760  72.9073350  80.2174580  89.8008130  73.4793560  80.6923100
  88.4571750  73.4712790  79.9948480  92.3413360  73.3094910  75.4914860
  92.5363990  74.2078360  75.7582290  91.5543230  73.0781990  75.9847810
  80.5265120  74.6555680  74.5291170  81.0557880  73.8685480  74.3999120
  81.1593440  75.3346870  74.7626700  82.7202960  74.3930820  77.5836560
  82.0905700  73.6918130  77.7506690  82.1808100  75.1534950  77.3669720
  88.3532130  81.1060850  60.9604260  88.2726180  80.1915460  60.6895970
  87.9396550  81.6027920  60.2543970  86.4850170  82.8839870  62.8413530
  85.7092270  82.4040310  63.1312100  87.1363100  82.2045520  62.6669690
  80.5016000  83.1959680  63.7189290  79.6700880  82.9408390  64.1185800
  81.1096980  83.2670450  64.4547210  78.9107950  78.1561570  57.5031680
  78.0224650  78.4977540  57.4011560  79.1949140  77.9561890  56.6112510
  76.8740960  80.7567220  63.3871380  77.4457070  79.9889420  63.3875020
  76.8742500  81.0555980  62.4777990  85.9259160  85.5597060  62.8483690
  85.8567440  84.6187000  62.6872820  86.6879020  85.6498470  63.4206260
  78.1165830  76.1651580  65.1740310  77.9368670  75.2677330  65.4543070
  77.7145910  76.7123450  65.8487260  86.9564330  78.3667440  63.0752620
  87.3329150  77.4939320  62.9626290  86.8583840  78.7026140  62.1843060
  81.0869340  76.7393070  58.5370060  81.1936090  77.6396800  58.8438820
  80.1761700  76.6911040  58.2464710  90.7388450  75.8617880  60.0080960
  91.5598070  75.3714450  60.0506440  90.7722530  76.4515540  60.7612800
  78.7352500  78.6612080  63.7822650  79.4162610  78.9250450  64.4010050
  78.4200550  77.8212950  64.1160660  82.9277070  79.7079440  62.8695240
  83.4355290  80.2060410  63.5100260  83.4590310  78.9314640  62.6934600
  95.0288000  77.8784630  66.5724590  94.3240170  78.2666340  66.0539700
  95.2945920  78.5734920  67.1745520  81.2113170  74.3478000  67.1358660
  81.2131610  74.8650390  66.3304560  80.3817480  73.8708180  67.1128590
  87.5984260  84.4597310  58.6348560  86.9801530  84.9246760  58.0711280
  88.1107510  85.1524790  59.0518070  82.4616020  83.9873180  65.3132160
  82.1285400  84.6142100  65.9553230  82.6382700  84.5135060  64.5333830
  90.9749930  77.8018260  62.7808500  90.2705500  78.0903150  63.3611610
  91.3362090  78.6118370  62.4208060  80.8928500  76.0587960  65.1429110
  81.2345310  76.9030010  64.8482980  79.9544310  76.2071700  65.2594450
  81.6735120  85.9553980  67.1281340  82.2909120  86.6305060  66.8465790
  80.8128240  86.3641960  67.0368840  76.9667460  85.1453840  56.0088190
  76.5895440  85.6340940  55.2773090  77.2240530  85.8179120  56.6394720
  94.0436850  77.2473050  63.1717710  93.0961760  77.2812030  63.3033140
  94.3686840  78.0612000  63.5567070  84.5756390  73.5470230  61.4673700
  84.8831370  72.9917120  60.7509200  83.6457090  73.6814690  61.2846690
  91.4216870  85.9853740  58.8471330  91.3113200  85.0428070  58.9720750
  91.4185120  86.3469380  59.7334090  89.5256890  84.1667360  65.0863770
  89.9425680  83.9527470  64.2517230  90.2496710  84.4240150  65.6572390
  86.9637150  81.6119060  58.2033820  86.0366430  81.5456440  58.4322290
  87.1161970  82.5499190  58.0889060  86.9506230  77.8836060  55.2000980
  86.0109900  78.0450020  55.2853440  87.2689490  78.6021740  54.6536970
  93.4718990  82.5654580  65.1780010  92.6437620  82.6347670  64.7030140
  94.0669470  83.1508890  64.7095840  90.9934440  83.1739360  58.7069070
  90.3746860  82.8358910  58.0595370  90.9758890  82.5299120  59.4148260
  90.4361000  79.3523900  66.1234880  90.0232180  80.1777610  66.3774870
  89.7036950  78.7668940  65.9311240  82.5693790  82.1383800  60.9853550
  82.1650790  81.4261050  60.4899450  82.6556910  81.7937040  61.8741590
  83.0375490  85.8251360  63.1492760  82.7403780  85.2196830  62.4700540
  83.9875310  85.8628670  63.0382120  81.2822410  78.9127010  64.7652590
  81.8337000  79.0222350  63.9905840  81.7965920  79.2864610  65.4807820
  82.1293920  85.5633050  69.8000560  81.2322450  85.7873020  70.0473960
  82.1546790  85.6867990  68.8511960  89.1699140  82.4126170  55.7141820
  89.6092420  81.5748600  55.5679640  89.8827560  83.0455570  55.8005960
  80.9565140  82.4346370  68.3757930  80.8172910  83.3069170  68.7445330
  80.0746500  82.0919180  68.2305870  92.7516280  73.6668980  54.0282860
  92.4388940  73.7595810  54.9281930  93.5128750  74.2450010  53.9780290
  79.2698420  81.0328780  58.4860200  79.1496020  81.7590870  57.8741470
  78.9599310  80.2631690  58.0088110  76.9083790  84.2043920  64.2928840
  76.9864210  84.3392690  63.3484560  77.5225470  83.4959810  64.4856960
  78.1531420  85.9044110  60.7035020  77.7459500  86.0458700  59.8488620
  79.0444430  85.6204270  60.5006230  94.1093560  86.3508020  69.0407260
  94.2356620  86.1119900  68.1224440  94.1514940  85.5192560  69.5129340
  93.9617570  78.4040480  70.0057000  93.3461840  78.9120150  69.4772460
  93.6413990  77.5038810  69.9482940  76.9643310  85.2458090  66.8323300
  77.1274350  84.7763450  66.0142670  77.4295760  84.7381650  67.4972140
  81.7362080  74.3763850  61.8683870  81.2930230  75.1573390  61.5368390
  82.2947070  74.6993740  62.5754810  86.0231890  77.2432370  67.4719190
  85.5611260  77.4515390  68.2839130  85.6210000  76.4291720  67.1689860
  91.0236400  78.4641320  68.6015850  90.1729990  78.1647070  68.9224920
  90.8638190  78.7083330  67.6899670  88.1186110  79.9643070  70.7014640
  88.4439520  79.1306820  70.3616870  88.9066440  80.4871590  70.8492970
  84.8520900  73.9974550  56.7489700  84.2275080  73.9934420  57.4743010
  84.7651020  73.1305510  56.3525670  83.7737980  74.9211180  63.7273470
  84.0710310  75.8274010  63.6465490  84.3223540  74.4329960  63.1133040
  81.5276300  79.4997420  59.5965120  81.3017220  79.2834590  60.5011740
  80.7468830  79.9325880  59.2511090  88.7574060  79.5060790  58.1955770
  88.1582950  80.2296590  58.0119390  89.3053670  79.4437570  57.4132220
  83.9675510  80.3983000  70.2625390  83.8719110  79.4577730  70.1125790
  84.8107490  80.6198070  69.8673460  87.3638930  78.1424330  60.2259050
  87.7568500  78.4596530  59.4127740  87.7255780  77.2636210  60.3403570
  79.0986050  76.8096670  68.4159170  78.7049440  77.6571880  68.6231950
  78.4104450  76.1723040  68.6067810  85.6731100  76.8931640  71.4855910
  84.9829420  76.7003840  72.1202000  86.4163400  77.1766280  72.0180210
  76.4003100  74.7325130  62.4489250  76.1116150  75.3027990  63.1614230
  77.1448860  74.2529580  62.8120480  76.5873330  78.6745250  53.6591970
  76.5048000  79.6176010  53.8006960  76.2356390  78.5320160  52.7804320
  87.9494070  80.7330080  64.3209830  87.2175190  81.2416890  64.6699930
  87.5518410  79.9160060  64.0198610  84.3871460  77.4084280  62.7262320
  84.3907520  76.9674230  61.8766860  85.2822580  77.7301610  62.8334140
  80.2373840  77.2910770  61.6856530  79.8973890  77.7686000  62.4423580
  79.4751160  76.8375890  61.3257630  84.4491610  78.4096360  55.7169080
  84.5704430  78.3682840  56.6654900  84.0640120  79.2720510  55.5615810
  88.4119980  76.1863760  63.7332770  88.4292720  76.6372410  64.5774620
  88.1635560  75.2869400  63.9466210  83.4613110  80.7197500  55.1152380
  82.8930010  80.2715750  54.4888290  84.1702110  81.0790280  54.5817530
  91.8390730  73.5995940  69.5719150  92.1636500  72.8685600  70.0977130
  91.8747240  73.2809580  68.6700140  78.5382290  84.6209520  68.9919110
  78.1537080  83.9803190  69.5902070  78.8494480  85.3245640  69.5613840
  84.6879430  81.4686060  64.4727730  85.0549560  80.9944630  65.2189070
  84.4984490  82.3427630  64.8136070  77.5519920  76.2129750  60.6021200
  77.2666840  75.8485420  61.4399820  77.4898780  75.4810210  59.9884340
  82.4778800  80.5094700  66.7911940  82.1735870  81.3886680  67.0162300
  83.4325260  80.5694490  66.8269380  81.0060590  84.7155690  57.3878790
  80.2322850  84.1753310  57.2277510  81.7355220  84.1962300  57.0496550
  91.7648570  83.7121050  63.1805180  92.4847690  84.2076340  62.7901290
  91.5630390  83.0338940  62.5359050  87.2258510  75.1059010  57.3234570
  86.4123120  74.6072180  57.2479880  87.0320460  75.9457260  56.9070920
  87.1467370  83.7830110  69.0674180  87.0804680  82.8625780  68.8131770
  86.5172510  83.8805550  69.7818820  89.9406900  79.4778660  55.6196730
  90.8286520  79.7895890  55.4448070  89.9111990  78.6050910  55.2277310
  81.0497990  84.3836070  61.0257600  81.5676660  83.5804330  60.9714490
  80.5982010  84.3215210  61.8674430  85.9367490  85.6502350  56.2984900
  86.2783190  86.3944580  55.8028220  85.1080200  85.9633470  56.6609730
  78.5342530  81.3497440  67.9383300  78.1757470  82.0151290  68.5256640
  78.2397090  80.5180990  68.3095920  81.7355650  81.8081680  70.8222850
  81.4355790  81.9538860  69.9250670  82.5066890  81.2486970  70.7296240
  87.0784100  86.6050680  68.8177980  87.0928640  85.6731640  68.5996890
  86.3709200  86.6910440  69.4567750  92.2121170  80.7890500  55.0876590
  92.1284890  81.2204720  54.2373030  92.9315360  81.2488850  55.5203410
  93.2895310  83.2458020  68.1646560  92.5643500  83.8386800  67.9675950
  93.8170770  83.2381560  67.3659930  88.8194900  84.9718190  61.6630410
  89.1718720  84.3746320  61.0031780  87.9357230  84.6462420  61.8338660
  84.9058180  85.7315880  59.0700820  85.5929310  86.2785090  59.4508410
  84.1190600  86.2756610  59.1050430  77.0450580  81.3488700  54.5617900
  77.9145430  81.6313500  54.8453820  76.5540900  82.1624570  54.4466710
  84.2085390  82.7361910  58.6826180  84.6648170  83.5467160  58.9086370
  83.8573600  82.4185050  59.5144670  80.1097170  73.0799560  59.1548700
  79.9811800  73.0717460  60.1033620  79.2859190  73.4182650  58.8039710
  87.7850080  86.2500600  64.6295930  88.4272310  85.5493760  64.7428100
  88.3099430  87.0299040  64.4492820  91.6305800  86.5349220  54.3535070
  91.4043380  85.8179660  54.9459710  91.2402000  86.2861660  53.5156820
  77.1091100  74.8390680  68.6155400  76.3949620  75.0387600  69.2208010
  77.5286140  74.0630250  68.9870200  91.2122050  84.4521160  56.0149230
  90.9243750  84.9133850  56.8027110  92.0074220  83.9918930  56.2833450
  79.0297090  83.1662170  56.6899960  78.4225040  83.9061070  56.6995260
  79.5046440  83.2561530  55.8638160  88.6029880  77.3312990  66.3656850
  88.9710700  76.5108200  66.6936420  87.7428080  77.3914880  66.7812500
  91.9691910  76.2869930  57.1744410  91.3405070  76.3915600  56.4602640
  91.4743830  76.5066710  57.9638290  83.9375940  78.5655880  58.5902290
  83.2292090  79.0342220  59.0315900  84.2220420  77.9077890  59.2247480
  85.5631870  79.9852580  66.5894820  86.0617120  80.4598400  67.2546670
  85.7054820  79.0616100  66.7964850  87.9691370  75.2906540  60.0298080
  87.8459150  75.3092670  59.0807590  88.9175930  75.3385480  60.1496480
  82.1410960  76.8740960  55.9653000  82.9901490  77.3111110  55.8993190
  81.7742230  77.1861220  56.7925060  92.7698730  76.2020540  67.4323210
  92.2672330  76.9425940  67.7717020  93.5855390  76.5904540  67.1160000
  91.0620740  81.4453720  60.8784570  90.1210880  81.4603950  61.0532260
  91.3764810  80.6589680  61.3244870  81.0402380  83.1273320  54.4388530
  81.8065650  83.0154680  55.0013960  81.1177070  82.4311290  53.7865300
  79.7349140  80.5598390  55.1221420  79.8152730  79.6125900  55.2338820
  80.6268890  80.8905270  55.2282080  88.3786760  86.0019720  71.3616950
  87.7724920  86.0251320  70.6212700  88.0740870  85.2702760  71.8984200
  77.2619940  82.3813310  70.3577590  77.7658960  81.8020590  70.9293820
  76.5227360  82.6653540  70.8953960  84.1643560  85.1027500  53.9123880
  84.0594200  84.4879850  54.6385260  83.9967780  84.5793390  53.1286890
  84.3157880  83.7884300  69.8913110  83.5503550  84.3569300  69.8067780
  84.4973840  83.4960510  68.9981340  87.4046290  84.1647530  54.5165870
  86.8556390  84.6116830  55.1608610  88.0265550  83.6596780  55.0403540
  91.4581230  85.5189630  70.4488130  92.1990700  85.8565390  69.9455590
  90.6953910  85.6881690  69.8957900  79.2943020  80.5242900  71.2527660
  79.3348360  80.2256770  72.1612890  80.1488520  80.9250510  71.0935180
  83.0721410  83.1238450  56.4131170  83.4937830  82.9578320  57.2562560
  83.1972250  82.3138680  55.9186310  81.2348830  79.1035000  69.2202150
  80.7045290  78.6125950  68.5925490  81.9036900  79.5319200  68.6860080
  85.5849050  82.1476060  53.6608270  86.1054710  81.4325080  53.2949420
  86.2317450  82.7861930  53.9608780  90.1326890  83.5704460  68.9843340
  90.5467910  83.7249540  69.8333760  89.1977890  83.6959680  69.1469120
  90.6049060  80.9100620  70.9882490  91.1869830  80.1552940  70.9002970
  90.7810830  81.4408060  70.2113970  81.7221130  76.0697370  69.2999440
  81.6278000  75.4518120  68.5750310  81.1418520  76.7963660  69.0729350
  84.4882570  74.6270610  66.3326830  84.0399870  74.6494870  65.4872380
  83.8547770  74.2289630  66.9297130  84.8942120  83.5224940  66.9539270
  85.3130230  84.3657670  66.7815510  83.9750750  83.6596980  66.7246050
  87.2306020  81.2541120  68.3377110  87.3502230  80.6582260  69.0771950
  88.0900020  81.2910810  67.9178410  89.5693920  81.8078310  66.9139620
  89.0429140  82.3320930  66.3104760  89.9125260  82.4405700  67.5449350
  81.9680310  79.1971680  53.3589330  81.7669370  78.3339040  53.7202670
  81.7972360  79.1105040  52.4210930  83.9974790  77.7962470  69.5952930
  84.5874480  77.4878320  70.2830750  83.1795030  77.3242220  69.7512830
  88.8168220  77.4128280  69.8285950  88.1283740  76.7509820  69.7635940
  89.5374240  76.9666550  70.2734410  89.4468620  74.0079910  55.8876210
  89.7270910  73.1647810  56.2435630  88.6734350  74.2403020  56.4014960
  80.7663110  76.2972300  53.3467210  81.0689010  76.3039730  52.4386360
  81.5057700  75.9470160  53.8434870  83.9848040  75.2406920  54.3323410
  83.6370040  74.5630910  53.7525860  84.1860810  74.7796430  55.1466800
  79.7893240  85.6014720  54.1797010  80.2268110  86.1444390  54.8354590
  80.2740970  84.7761670  54.1893350  81.6000960  86.7212760  59.2919240
  81.2996500  86.5977730  60.1923150  81.4938450  85.8621350  58.8834970
  93.8249340  83.2456640  56.4980120  94.5868250  83.8153290  56.6039810
  93.8403710  82.6783840  57.2688430  77.3253680  81.7694570  60.7287780
  76.6702520  81.5006210  60.0847480  78.1631630  81.6599050  60.2789760
  94.8309310  84.1006740  61.3422050  95.2018140  83.3174060  60.9358020
  95.4711240  84.7895840  61.1639350  91.8143070  85.4843320  66.7552370
  91.0002910  85.9140480  67.0178160  92.2217270  86.0961730  66.1421420
  93.8768510  83.5391010  53.6552640  94.1517350  84.4469890  53.5271860
  93.6879250  83.4753540  54.5914630  90.2744120  76.5635860  54.9506270
  90.6929000  76.3766840  54.1102930  89.9680180  75.7114910  55.2609200
  93.7733850  81.4760000  58.6482070  93.3977450  80.7087930  58.2163360
  93.0436970  81.8582700  59.1357000  78.3629610  82.1547140  65.2691120
  78.7302650  82.0674540  66.1487140  77.7940430  81.3913690  65.1697980
  93.1633470  80.6231520  68.2821590  92.9319560  80.3944270  67.3819540
  93.4238020  81.5431070  68.2366480  77.9145610  79.0656230  69.1749540
  77.0201660  79.0322990  69.5143250  78.4543160  79.2643020  69.9400790
  91.6021540  75.8487950  71.0601290  92.4791720  75.8571350  71.4435290
  91.6142380  75.1118790  70.4493640  76.5391760  78.9793500  56.6713110
  75.6355840  79.2423700  56.4964770  77.0232380  79.2504670  55.8913070
  93.0484810  79.7017490  61.9489310  93.5722290  79.2080140  61.3179480
  93.6344230  79.8367850  62.6936880  93.2274530  79.7857360  65.4708860
  92.2777240  79.7520900  65.5853850  93.4087540  80.6957470  65.2358630
  79.0818970  78.0359040  54.5807490  79.7910670  77.6142260  54.0954770
  78.3658910  78.1034270  53.9490840  78.7293130  74.0898370  53.6210140
  79.4521260  74.6307310  53.9391360  79.0017650  73.8161790  52.7451680
  92.5384780  78.9590840  57.8881720  93.0343900  78.7261710  58.6730600
  92.3400850  78.1202680  57.4719360  78.4185320  73.3404560  63.5232760
  79.0661510  72.7901940  63.0827920  78.8387160  73.5947710  64.3448570
  93.9671940  77.5951790  60.4219400  93.8571220  77.4407830  61.3601670
  94.7279530  77.0672730  60.1794810  92.3137660  73.5345920  66.8802400
  92.9509880  74.1480060  67.2461590  92.4612550  73.5706580  65.9351630
  94.8562210  75.4259710  53.6625540  95.7811520  75.2940890  53.4543830
  94.8338000  75.5052530  54.6161990  94.9300700  76.1970370  56.2882250
  94.1352200  76.1315490  56.8175160  95.1343980  77.1321010  56.2767600
  78.1717320  73.4960230  66.2658080  77.8232140  73.9524050  67.0316260
  77.8405020  72.6017360  66.3480510  85.6842140  74.6872110  69.7877500
  85.6231030  75.2793940  70.5372910  86.6242520  74.5798070  69.6427760
  88.3216700  74.3442170  69.4269790  88.9357110  74.6621460  68.7650870
  88.8666260  73.8590760  70.0465650  78.8437960  73.0236430  69.5408850
  79.3920950  72.8424480  68.7774960  78.9093270  72.2330540  70.0765160
  89.0624740  72.9074310  65.7539080  88.1884580  73.2409420  65.5512010
  88.9535490  72.4347490  66.5790950  89.9696720  75.1145180  67.1380800
  89.6410080  74.2996940  66.7582530  90.9179020  75.0714990  67.0146490
  86.8099560  73.8244150  64.6931990  86.0271350  74.2989650  64.9728750
  86.5162490  72.9198980  64.5845170  91.3620630  74.5267250  62.7381080
  91.8028720  74.4712350  61.8902680  91.0928220  75.4425260  62.8091260
  93.2259200  74.1582490  60.7489900  93.1647600  73.2143710  60.6020920
  94.0051230  74.2662580  61.2943360  78.1539970  74.1291630  57.2145710
  78.9119330  74.2420510  56.6409740  77.6917140  74.9660830  57.1689140
  84.6953780  76.2430900  60.2048020  83.8828290  75.8687790  59.8643900
  85.1995420  75.4875980  60.5069210  89.1978760  72.9073350  61.4431090
  89.8008130  73.4793560  61.9179610  88.4571750  73.4712790  61.2204990
  92.3413360  73.3094910  56.7171370  92.5363990  74.2078360  56.9838800
  91.5543230  73.0781990  57.2104320  80.5265120  74.6555680  55.7547680
  81.0557880  73.8685480  55.6255630  81.1593440  75.3346870  55.9883210
  82.7202960  74.3930820  58.8093070  82.0905700  73.6918130  58.9763200
  82.1808100  75.1534950  58.5926230  82.8458520  73.6714800  71.2445560
  82.5642790  74.1748400  70.4806380  83.2278220  72.8736550  70.8787690
  89.4473980  73.0868380  71.8226030  89.3339430  73.4062990  72.7177550
  90.2643720  73.4880890  71.5263310  88.3532130  81.1060850  42.1860770
  88.2726180  80.1915460  41.9152480  87.9396550  81.6027920  41.4800480
  86.4850170  82.8839870  44.0670040  85.7092270  82.4040310  44.3568610
  87.1363100  82.2045520  43.8926200  80.5016000  83.1959680  44.9445800
  79.6700880  82.9408390  45.3442310  81.1096980  83.2670450  45.6803720
  78.9107950  78.1561570  38.7288190  78.0224650  78.4977540  38.6268070
  79.1949140  77.9561890  37.8369020  76.8740960  80.7567220  44.6127890
  77.4457070  79.9889420  44.6131530  76.8742500  81.0555980  43.7034500
  85.9259160  85.5597060  44.0740200  85.8567440  84.6187000  43.9129330
  86.6879020  85.6498470  44.6462770  78.1165830  76.1651580  46.3996820
  77.9368670  75.2677330  46.6799580  77.7145910  76.7123450  47.0743770
  86.9564330  78.3667440  44.3009130  87.3329150  77.4939320  44.1882800
  86.8583840  78.7026140  43.4099570  81.0869340  76.7393070  39.7626570
  81.1936090  77.6396800  40.0695330  80.1761700  76.6911040  39.4721220
  90.7388450  75.8617880  41.2337470  91.5598070  75.3714450  41.2762950
  90.7722530  76.4515540  41.9869310  78.7352500  78.6612080  45.0079160
  79.4162610  78.9250450  45.6266560  78.4200550  77.8212950  45.3417170
  82.9277070  79.7079440  44.0951750  83.4355290  80.2060410  44.7356770
  83.4590310  78.9314640  43.9191110  95.0288000  77.8784630  47.7981100
  94.3240170  78.2666340  47.2796210  95.2945920  78.5734920  48.4002030
  81.2113170  74.3478000  48.3615170  81.2131610  74.8650390  47.5561070
  80.3817480  73.8708180  48.3385100  87.5984260  84.4597310  39.8605070
  86.9801530  84.9246760  39.2967790  88.1107510  85.1524790  40.2774580
  82.4616020  83.9873180  46.5388670  82.1285400  84.6142100  47.1809740
  82.6382700  84.5135060  45.7590340  90.9749930  77.8018260  44.0065010
  90.2705500  78.0903150  44.5868120  91.3362090  78.6118370  43.6464570
  80.8928500  76.0587960  46.3685620  81.2345310  76.9030010  46.0739490
  79.9544310  76.2071700  46.4850960  81.6735120  85.9553980  48.3537850
  82.2909120  86.6305060  48.0722300  80.8128240  86.3641960  48.2625350
  76.9667460  85.1453840  37.2344700  76.5895440  85.6340940  36.5029600
  77.2240530  85.8179120  37.8651230  94.0436850  77.2473050  44.3974220
  93.0961760  77.2812030  44.5289650  94.3686840  78.0612000  44.7823580
  84.5756390  73.5470230  42.6930210  84.8831370  72.9917120  41.9765710
  83.6457090  73.6814690  42.5103200  91.4216870  85.9853740  40.0727840
  91.3113200  85.0428070  40.1977260  91.4185120  86.3469380  40.9590600
  89.5256890  84.1667360  46.3120280  89.9425680  83.9527470  45.4773740
  90.2496710  84.4240150  46.8828900  86.9637150  81.6119060  39.4290330
  86.0366430  81.5456440  39.6578800  87.1161970  82.5499190  39.3145570
  86.9506230  77.8836060  36.4257490  86.0109900  78.0450020  36.5109950
  87.2689490  78.6021740  35.8793480  93.4718990  82.5654580  46.4036520
  92.6437620  82.6347670  45.9286650  94.0669470  83.1508890  45.9352350
  90.9934440  83.1739360  39.9325580  90.3746860  82.8358910  39.2851880
  90.9758890  82.5299120  40.6404770  90.4361000  79.3523900  47.3491390
  90.0232180  80.1777610  47.6031380  89.7036950  78.7668940  47.1567750
  82.5693790  82.1383800  42.2110060  82.1650790  81.4261050  41.7155960
  82.6556910  81.7937040  43.0998100  83.0375490  85.8251360  44.3749270
  82.7403780  85.2196830  43.6957050  83.9875310  85.8628670  44.2638630
  81.2822410  78.9127010  45.9909100  81.8337000  79.0222350  45.2162350
  81.7965920  79.2864610  46.7064330  82.1293920  85.5633050  51.0257070
  81.2322450  85.7873020  51.2730470  82.1546790  85.6867990  50.0768470
  89.1699140  82.4126170  36.9398330  89.6092420  81.5748600  36.7936150
  89.8827560  83.0455570  37.0262470  80.9565140  82.4346370  49.6014440
  80.8172910  83.3069170  49.9701840  80.0746500  82.0919180  49.4562380
  92.7516280  73.6668980  35.2539370  92.4388940  73.7595810  36.1538440
  93.5128750  74.2450010  35.2036800  79.2698420  81.0328780  39.7116710
  79.1496020  81.7590870  39.0997980  78.9599310  80.2631690  39.2344620
  76.9083790  84.2043920  45.5185350  76.9864210  84.3392690  44.5741070
  77.5225470  83.4959810  45.7113470  78.1531420  85.9044110  41.9291530
  77.7459500  86.0458700  41.0745130  79.0444430  85.6204270  41.7262740
  94.1093560  86.3508020  50.2663770  94.2356620  86.1119900  49.3480950
  94.1514940  85.5192560  50.7385850  93.9617570  78.4040480  51.2313510
  93.3461840  78.9120150  50.7028970  93.6413990  77.5038810  51.1739450
  76.9643310  85.2458090  48.0579810  77.1274350  84.7763450  47.2399180
  77.4295760  84.7381650  48.7228650  81.7362080  74.3763850  43.0940380
  81.2930230  75.1573390  42.7624900  82.2947070  74.6993740  43.8011320
  86.0231890  77.2432370  48.6975700  85.5611260  77.4515390  49.5095640
  85.6210000  76.4291720  48.3946370  91.0236400  78.4641320  49.8272360
  90.1729990  78.1647070  50.1481430  90.8638190  78.7083330  48.9156180
  88.1186110  79.9643070  51.9271150  88.4439520  79.1306820  51.5873380
  88.9066440  80.4871590  52.0749480  84.8520900  73.9974550  37.9746210
  84.2275080  73.9934420  38.6999520  84.7651020  73.1305510  37.5782180
  83.7737980  74.9211180  44.9529980  84.0710310  75.8274010  44.8722000
  84.3223540  74.4329960  44.3389550  81.5276300  79.4997420  40.8221630
  81.3017220  79.2834590  41.7268250  80.7468830  79.9325880  40.4767600
  88.7574060  79.5060790  39.4212280  88.1582950  80.2296590  39.2375900
  89.3053670  79.4437570  38.6388730  83.9675510  80.3983000  51.4881900
  83.8719110  79.4577730  51.3382300  84.8107490  80.6198070  51.0929970
  87.3638930  78.1424330  41.4515560  87.7568500  78.4596530  40.6384250
  87.7255780  77.2636210  41.5660080  79.0986050  76.8096670  49.6415680
  78.7049440  77.6571880  49.8488460  78.4104450  76.1723040  49.8324320
  85.6731100  76.8931640  52.7112420  84.9829420  76.7003840  53.3458510
  86.4163400  77.1766280  53.2436720  76.4003100  74.7325130  43.6745760
  76.1116150  75.3027990  44.3870740  77.1448860  74.2529580  44.0376990
  76.5873330  78.6745250  34.8848480  76.5048000  79.6176010  35.0263470
  76.2356390  78.5320160  34.0060830  87.9494070  80.7330080  45.5466340
  87.2175190  81.2416890  45.8956440  87.5518410  79.9160060  45.2455120
  84.3871460  77.4084280  43.9518830  84.3907520  76.9674230  43.1023370
  85.2822580  77.7301610  44.0590650  80.2373840  77.2910770  42.9113040
  79.8973890  77.7686000  43.6680090  79.4751160  76.8375890  42.5514140
  84.4491610  78.4096360  36.9425590  84.5704430  78.3682840  37.8911410
  84.0640120  79.2720510  36.7872320  88.4119980  76.1863760  44.9589280
  88.4292720  76.6372410  45.8031130  88.1635560  75.2869400  45.1722720
  83.4613110  80.7197500  36.3408890  82.8930010  80.2715750  35.7144800
  84.1702110  81.0790280  35.8074040  91.8390730  73.5995940  50.7975660
  92.1636500  72.8685600  51.3233640  91.8747240  73.2809580  49.8956650
  78.5382290  84.6209520  50.2175620  78.1537080  83.9803190  50.8158580
  78.8494480  85.3245640  50.7870350  84.6879430  81.4686060  45.6984240
  85.0549560  80.9944630  46.4445580  84.4984490  82.3427630  46.0392580
  77.5519920  76.2129750  41.8277710  77.2666840  75.8485420  42.6656330
  77.4898780  75.4810210  41.2140850  82.4778800  80.5094700  48.0168450
  82.1735870  81.3886680  48.2418810  83.4325260  80.5694490  48.0525890
  81.0060590  84.7155690  38.6135300  80.2322850  84.1753310  38.4534020
  81.7355220  84.1962300  38.2753060  91.7648570  83.7121050  44.4061690
  92.4847690  84.2076340  44.0157800  91.5630390  83.0338940  43.7615560
  87.2258510  75.1059010  38.5491080  86.4123120  74.6072180  38.4736390
  87.0320460  75.9457260  38.1327430  87.1467370  83.7830110  50.2930690
  87.0804680  82.8625780  50.0388280  86.5172510  83.8805550  51.0075330
  89.9406900  79.4778660  36.8453240  90.8286520  79.7895890  36.6704580
  89.9111990  78.6050910  36.4533820  81.0497990  84.3836070  42.2514110
  81.5676660  83.5804330  42.1971000  80.5982010  84.3215210  43.0930940
  85.9367490  85.6502350  37.5241410  86.2783190  86.3944580  37.0284730
  85.1080200  85.9633470  37.8866240  78.5342530  81.3497440  49.1639810
  78.1757470  82.0151290  49.7513150  78.2397090  80.5180990  49.5352430
  81.7355650  81.8081680  52.0479360  81.4355790  81.9538860  51.1507180
  82.5066890  81.2486970  51.9552750  87.0784100  86.6050680  50.0434490
  87.0928640  85.6731640  49.8253400  86.3709200  86.6910440  50.6824260
  92.2121170  80.7890500  36.3133100  92.1284890  81.2204720  35.4629540
  92.9315360  81.2488850  36.7459920  93.2895310  83.2458020  49.3903070
  92.5643500  83.8386800  49.1932460  93.8170770  83.2381560  48.5916440
  88.8194900  84.9718190  42.8886920  89.1718720  84.3746320  42.2288290
  87.9357230  84.6462420  43.0595170  84.9058180  85.7315880  40.2957330
  85.5929310  86.2785090  40.6764920  84.1190600  86.2756610  40.3306940
  77.0450580  81.3488700  35.7874410  77.9145430  81.6313500  36.0710330
  76.5540900  82.1624570  35.6723220  84.2085390  82.7361910  39.9082690
  84.6648170  83.5467160  40.1342880  83.8573600  82.4185050  40.7401180
  80.1097170  73.0799560  40.3805210  79.9811800  73.0717460  41.3290130
  79.2859190  73.4182650  40.0296220  87.7850080  86.2500600  45.8552440
  88.4272310  85.5493760  45.9684610  88.3099430  87.0299040  45.6749330
  91.6305800  86.5349220  35.5791580  91.4043380  85.8179660  36.1716220
  91.2402000  86.2861660  34.7413330  77.1091100  74.8390680  49.8411910
  76.3949620  75.0387600  50.4464520  77.5286140  74.0630250  50.2126710
  91.2122050  84.4521160  37.2405740  90.9243750  84.9133850  38.0283620
  92.0074220  83.9918930  37.5089960  79.0297090  83.1662170  37.9156470
  78.4225040  83.9061070  37.9251770  79.5046440  83.2561530  37.0894670
  88.6029880  77.3312990  47.5913360  88.9710700  76.5108200  47.9192930
  87.7428080  77.3914880  48.0069010  91.9691910  76.2869930  38.4000920
  91.3405070  76.3915600  37.6859150  91.4743830  76.5066710  39.1894800
  83.9375940  78.5655880  39.8158800  83.2292090  79.0342220  40.2572410
  84.2220420  77.9077890  40.4503990  85.5631870  79.9852580  47.8151330
  86.0617120  80.4598400  48.4803180  85.7054820  79.0616100  48.0221360
  87.9691370  75.2906540  41.2554590  87.8459150  75.3092670  40.3064100
  88.9175930  75.3385480  41.3752990  82.1410960  76.8740960  37.1909510
  82.9901490  77.3111110  37.1249700  81.7742230  77.1861220  38.0181570
  92.7698730  76.2020540  48.6579720  92.2672330  76.9425940  48.9973530
  93.5855390  76.5904540  48.3416510  91.0620740  81.4453720  42.1041080
  90.1210880  81.4603950  42.2788770  91.3764810  80.6589680  42.5501380
  81.0402380  83.1273320  35.6645040  81.8065650  83.0154680  36.2270470
  81.1177070  82.4311290  35.0121810  79.7349140  80.5598390  36.3477930
  79.8152730  79.6125900  36.4595330  80.6268890  80.8905270  36.4538590
  88.3786760  86.0019720  52.5873460  87.7724920  86.0251320  51.8469210
  88.0740870  85.2702760  53.1240710  77.2619940  82.3813310  51.5834100
  77.7658960  81.8020590  52.1550330  76.5227360  82.6653540  52.1210470
  84.1643560  85.1027500  35.1380390  84.0594200  84.4879850  35.8641770
  83.9967780  84.5793390  34.3543400  84.3157880  83.7884300  51.1169620
  83.5503550  84.3569300  51.0324290  84.4973840  83.4960510  50.2237850
  87.4046290  84.1647530  35.7422380  86.8556390  84.6116830  36.3865120
  88.0265550  83.6596780  36.2660050  91.4581230  85.5189630  51.6744640
  92.1990700  85.8565390  51.1712100  90.6953910  85.6881690  51.1214410
  79.2943020  80.5242900  52.4784170  79.3348360  80.2256770  53.3869400
  80.1488520  80.9250510  52.3191690  83.0721410  83.1238450  37.6387680
  83.4937830  82.9578320  38.4819070  83.1972250  82.3138680  37.1442820
  81.2348830  79.1035000  50.4458660  80.7045290  78.6125950  49.8182000
  81.9036900  79.5319200  49.9116590  85.5849050  82.1476060  34.8864780
  86.1054710  81.4325080  34.5205930  86.2317450  82.7861930  35.1865290
  90.1326890  83.5704460  50.2099850  90.5467910  83.7249540  51.0590270
  89.1977890  83.6959680  50.3725630  90.6049060  80.9100620  52.2139000
  91.1869830  80.1552940  52.1259480  90.7810830  81.4408060  51.4370480
  81.7221130  76.0697370  50.5255950  81.6278000  75.4518120  49.8006820
  81.1418520  76.7963660  50.2985860  84.4882570  74.6270610  47.5583340
  84.0399870  74.6494870  46.7128890  83.8547770  74.2289630  48.1553640
  84.8942120  83.5224940  48.1795780  85.3130230  84.3657670  48.0072020
  83.9750750  83.6596980  47.9502560  87.2306020  81.2541120  49.5633620
  87.3502230  80.6582260  50.3028460  88.0900020  81.2910810  49.1434920
  89.5693920  81.8078310  48.1396130  89.0429140  82.3320930  47.5361270
  89.9125260  82.4405700  48.7705860  81.9680310  79.1971680  34.5845840
  81.7669370  78.3339040  34.9459180  81.7972360  79.1105040  33.6467440
  83.9974790  77.7962470  50.8209440  84.5874480  77.4878320  51.5087260
  83.1795030  77.3242220  50.9769340  88.8168220  77.4128280  51.0542460
  88.1283740  76.7509820  50.9892450  89.5374240  76.9666550  51.4990920
  89.4468620  74.0079910  37.1132720  89.7270910  73.1647810  37.4692140
  88.6734350  74.2403020  37.6271470  80.7663110  76.2972300  34.5723720
  81.0689010  76.3039730  33.6642870  81.5057700  75.9470160  35.0691380
  83.9848040  75.2406920  35.5579920  83.6370040  74.5630910  34.9782370
  84.1860810  74.7796430  36.3723310  79.7893240  85.6014720  35.4053520
  80.2268110  86.1444390  36.0611100  80.2740970  84.7761670  35.4149860
  81.6000960  86.7212760  40.5175750  81.2996500  86.5977730  41.4179660
  81.4938450  85.8621350  40.1091480  93.8249340  83.2456640  37.7236630
  94.5868250  83.8153290  37.8296320  93.8403710  82.6783840  38.4944940
  77.3253680  81.7694570  41.9544290  76.6702520  81.5006210  41.3103990
  78.1631630  81.6599050  41.5046270  94.8309310  84.1006740  42.5678560
  95.2018140  83.3174060  42.1614530  95.4711240  84.7895840  42.3895860
  91.8143070  85.4843320  47.9808880  91.0002910  85.9140480  48.2434670
  92.2217270  86.0961730  47.3677930  93.8768510  83.5391010  34.8809150
  94.1517350  84.4469890  34.7528370  93.6879250  83.4753540  35.8171140
  90.2744120  76.5635860  36.1762780  90.6929000  76.3766840  35.3359440
  89.9680180  75.7114910  36.4865710  93.7733850  81.4760000  39.8738580
  93.3977450  80.7087930  39.4419870  93.0436970  81.8582700  40.3613510
  78.3629610  82.1547140  46.4947630  78.7302650  82.0674540  47.3743650
  77.7940430  81.3913690  46.3954490  93.1633470  80.6231520  49.5078100
  92.9319560  80.3944270  48.6076050  93.4238020  81.5431070  49.4622990
  77.9145610  79.0656230  50.4006050  77.0201660  79.0322990  50.7399760
  78.4543160  79.2643020  51.1657300  91.6021540  75.8487950  52.2857800
  92.4791720  75.8571350  52.6691800  91.6142380  75.1118790  51.6750150
  76.5391760  78.9793500  37.8969620  75.6355840  79.2423700  37.7221280
  77.0232380  79.2504670  37.1169580  93.0484810  79.7017490  43.1745820
  93.5722290  79.2080140  42.5435990  93.6344230  79.8367850  43.9193390
  93.2274530  79.7857360  46.6965370  92.2777240  79.7520900  46.8110360
  93.4087540  80.6957470  46.4615140  79.0818970  78.0359040  35.8064000
  79.7910670  77.6142260  35.3211280  78.3658910  78.1034270  35.1747350
  78.7293130  74.0898370  34.8466650  79.4521260  74.6307310  35.1647870
  79.0017650  73.8161790  33.9708190  92.5384780  78.9590840  39.1138230
  93.0343900  78.7261710  39.8987110  92.3400850  78.1202680  38.6975870
  78.4185320  73.3404560  44.7489270  79.0661510  72.7901940  44.3084430
  78.8387160  73.5947710  45.5705080  93.9671940  77.5951790  41.6475910
  93.8571220  77.4407830  42.5858180  94.7279530  77.0672730  41.4051320
  92.3137660  73.5345920  48.1058910  92.9509880  74.1480060  48.4718100
  92.4612550  73.5706580  47.1608140  94.8562210  75.4259710  34.8882050
  95.7811520  75.2940890  34.6800340  94.8338000  75.5052530  35.8418500
  94.9300700  76.1970370  37.5138760  94.1352200  76.1315490  38.0431670
  95.1343980  77.1321010  37.5024110  78.1717320  73.4960230  47.4914590
  77.8232140  73.9524050  48.2572770  77.8405020  72.6017360  47.5737020
  85.6842140  74.6872110  51.0134010  85.6231030  75.2793940  51.7629420
  86.6242520  74.5798070  50.8684270  88.3216700  74.3442170  50.6526300
  88.9357110  74.6621460  49.9907380  88.8666260  73.8590760  51.2722160
  78.8437960  73.0236430  50.7665360  79.3920950  72.8424480  50.0031470
  78.9093270  72.2330540  51.3021670  89.0624740  72.9074310  46.9795590
  88.1884580  73.2409420  46.7768520  88.9535490  72.4347490  47.8047460
  89.9696720  75.1145180  48.3637310  89.6410080  74.2996940  47.9839040
  90.9179020  75.0714990  48.2403000  86.8099560  73.8244150  45.9188500
  86.0271350  74.2989650  46.1985260  86.5162490  72.9198980  45.8101680
  91.3620630  74.5267250  43.9637590  91.8028720  74.4712350  43.1159190
  91.0928220  75.4425260  44.0347770  93.2259200  74.1582490  41.9746410
  93.1647600  73.2143710  41.8277430  94.0051230  74.2662580  42.5199870
  78.1539970  74.1291630  38.4402220  78.9119330  74.2420510  37.8666250
  77.6917140  74.9660830  38.3945650  84.6953780  76.2430900  41.4304530
  83.8828290  75.8687790  41.0900410  85.1995420  75.4875980  41.7325720
  89.1978760  72.9073350  42.6687600  89.8008130  73.4793560  43.1436120
  88.4571750  73.4712790  42.4461500  92.3413360  73.3094910  37.9427880
  92.5363990  74.2078360  38.2095310  91.5543230  73.0781990  38.4360830
  80.5265120  74.6555680  36.9804190  81.0557880  73.8685480  36.8512140
  81.1593440  75.3346870  37.2139720  82.7202960  74.3930820  40.0349580
  82.0905700  73.6918130  40.2019710  82.1808100  75.1534950  39.8182740
  82.8458520  73.6714800  52.4702070  82.5642790  74.1748400  51.7062890
  83.2278220  72.8736550  52.1044200  89.4473980  73.0868380  53.0482540
  89.3339430  73.4062990  53.9434060  90.2643720  73.4880890  52.7519820
  88.3532130  81.1060850  23.4117280  88.2726180  80.1915460  23.1408990
  87.9396550  81.6027920  22.7056990  86.4850170  82.8839870  25.2926550
  85.7092270  82.4040310  25.5825120  87.1363100  82.2045520  25.1182710
  80.5016000  83.1959680  26.1702310  79.6700880  82.9408390  26.5698820
  81.1096980  83.2670450  26.9060230  78.9107950  78.1561570  19.9544700
  78.0224650  78.4977540  19.8524580  79.1949140  77.9561890  19.0625530
  76.8740960  80.7567220  25.8384400  77.4457070  79.9889420  25.8388040
  76.8742500  81.0555980  24.9291010  85.9259160  85.5597060  25.2996710
  85.8567440  84.6187000  25.1385840  86.6879020  85.6498470  25.8719280
  78.1165830  76.1651580  27.6253330  77.9368670  75.2677330  27.9056090
  77.7145910  76.7123450  28.3000280  86.9564330  78.3667440  25.5265640
  87.3329150  77.4939320  25.4139310  86.8583840  78.7026140  24.6356080
  81.0869340  76.7393070  20.9883080  81.1936090  77.6396800  21.2951840
  80.1761700  76.6911040  20.6977730  90.7388450  75.8617880  22.4593980
  91.5598070  75.3714450  22.5019460  90.7722530  76.4515540  23.2125820
  78.7352500  78.6612080  26.2335670  79.4162610  78.9250450  26.8523070
  78.4200550  77.8212950  26.5673680  82.9277070  79.7079440  25.3208260
  83.4355290  80.2060410  25.9613280  83.4590310  78.9314640  25.1447620
  95.0288000  77.8784630  29.0237610  94.3240170  78.2666340  28.5052720
  95.2945920  78.5734920  29.6258540  81.2113170  74.3478000  29.5871680
  81.2131610  74.8650390  28.7817580  80.3817480  73.8708180  29.5641610
  87.5984260  84.4597310  21.0861580  86.9801530  84.9246760  20.5224300
  88.1107510  85.1524790  21.5031090  82.4616020  83.9873180  27.7645180
  82.1285400  84.6142100  28.4066250  82.6382700  84.5135060  26.9846850
  90.9749930  77.8018260  25.2321520  90.2705500  78.0903150  25.8124630
  91.3362090  78.6118370  24.8721080  80.8928500  76.0587960  27.5942130
  81.2345310  76.9030010  27.2996000  79.9544310  76.2071700  27.7107470
  81.6735120  85.9553980  29.5794360  82.2909120  86.6305060  29.2978810
  80.8128240  86.3641960  29.4881860  76.9667460  85.1453840  18.4601210
  76.5895440  85.6340940  17.7286110  77.2240530  85.8179120  19.0907740
  94.0436850  77.2473050  25.6230730  93.0961760  77.2812030  25.7546160
  94.3686840  78.0612000  26.0080090  84.5756390  73.5470230  23.9186720
  84.8831370  72.9917120  23.2022220  83.6457090  73.6814690  23.7359710
  91.4216870  85.9853740  21.2984350  91.3113200  85.0428070  21.4233770
  91.4185120  86.3469380  22.1847110  89.5256890  84.1667360  27.5376790
  89.9425680  83.9527470  26.7030250  90.2496710  84.4240150  28.1085410
  86.9637150  81.6119060  20.6546840  86.0366430  81.5456440  20.8835310
  87.1161970  82.5499190  20.5402080  86.9506230  77.8836060  17.6514000
  86.0109900  78.0450020  17.7366460  87.2689490  78.6021740  17.1049990
  93.4718990  82.5654580  27.6293030  92.6437620  82.6347670  27.1543160
  94.0669470  83.1508890  27.1608860  90.9934440  83.1739360  21.1582090
  90.3746860  82.8358910  20.5108390  90.9758890  82.5299120  21.8661280
  90.4361000  79.3523900  28.5747900  90.0232180  80.1777610  28.8287890
  89.7036950  78.7668940  28.3824260  82.5693790  82.1383800  23.4366570
  82.1650790  81.4261050  22.9412470  82.6556910  81.7937040  24.3254610
  83.0375490  85.8251360  25.6005780  82.7403780  85.2196830  24.9213560
  83.9875310  85.8628670  25.4895140  81.2822410  78.9127010  27.2165610
  81.8337000  79.0222350  26.4418860  81.7965920  79.2864610  27.9320840
  82.1293920  85.5633050  32.2513580  81.2322450  85.7873020  32.4986980
  82.1546790  85.6867990  31.3024980  89.1699140  82.4126170  18.1654840
  89.6092420  81.5748600  18.0192660  89.8827560  83.0455570  18.2518980
  80.9565140  82.4346370  30.8270950  80.8172910  83.3069170  31.1958350
  80.0746500  82.0919180  30.6818890  92.7516280  73.6668980  16.4795880
  92.4388940  73.7595810  17.3794950  93.5128750  74.2450010  16.4293310
  79.2698420  81.0328780  20.9373220  79.1496020  81.7590870  20.3254490
  78.9599310  80.2631690  20.4601130  76.9083790  84.2043920  26.7441860
  76.9864210  84.3392690  25.7997580  77.5225470  83.4959810  26.9369980
  78.1531420  85.9044110  23.1548040  77.7459500  86.0458700  22.3001640
  79.0444430  85.6204270  22.9519250  94.1093560  86.3508020  31.4920280
  94.2356620  86.1119900  30.5737460  94.1514940  85.5192560  31.9642360
  93.9617570  78.4040480  32.4570020  93.3461840  78.9120150  31.9285480
  93.6413990  77.5038810  32.3995960  76.9643310  85.2458090  29.2836320
  77.1274350  84.7763450  28.4655690  77.4295760  84.7381650  29.9485160
  81.7362080  74.3763850  24.3196890  81.2930230  75.1573390  23.9881410
  82.2947070  74.6993740  25.0267830  86.0231890  77.2432370  29.9232210
  85.5611260  77.4515390  30.7352150  85.6210000  76.4291720  29.6202880
  91.0236400  78.4641320  31.0528870  90.1729990  78.1647070  31.3737940
  90.8638190  78.7083330  30.1412690  88.1186110  79.9643070  33.1527660
  88.4439520  79.1306820  32.8129890  88.9066440  80.4871590  33.3005990
  84.8520900  73.9974550  19.2002720  84.2275080  73.9934420  19.9256030
  84.7651020  73.1305510  18.8038690  83.7737980  74.9211180  26.1786490
  84.0710310  75.8274010  26.0978510  84.3223540  74.4329960  25.5646060
  81.5276300  79.4997420  22.0478140  81.3017220  79.2834590  22.9524760
  80.7468830  79.9325880  21.7024110  88.7574060  79.5060790  20.6468790
  88.1582950  80.2296590  20.4632410  89.3053670  79.4437570  19.8645240
  83.9675510  80.3983000  32.7138410  83.8719110  79.4577730  32.5638810
  84.8107490  80.6198070  32.3186480  87.3638930  78.1424330  22.6772070
  87.7568500  78.4596530  21.8640760  87.7255780  77.2636210  22.7916590
  79.0986050  76.8096670  30.8672190  78.7049440  77.6571880  31.0744970
  78.4104450  76.1723040  31.0580830  85.6731100  76.8931640  33.9368930
  84.9829420  76.7003840  34.5715020  86.4163400  77.1766280  34.4693230
  76.4003100  74.7325130  24.9002270  76.1116150  75.3027990  25.6127250
  77.1448860  74.2529580  25.2633500  76.5873330  78.6745250  16.1104990
  76.5048000  79.6176010  16.2519980  76.2356390  78.5320160  15.2317340
  87.9494070  80.7330080  26.7722850  87.2175190  81.2416890  27.1212950
  87.5518410  79.9160060  26.4711630  84.3871460  77.4084280  25.1775340
  84.3907520  76.9674230  24.3279880  85.2822580  77.7301610  25.2847160
  80.2373840  77.2910770  24.1369550  79.8973890  77.7686000  24.8936600
  79.4751160  76.8375890  23.7770650  84.4491610  78.4096360  18.1682100
  84.5704430  78.3682840  19.1167920  84.0640120  79.2720510  18.0128830
  88.4119980  76.1863760  26.1845790  88.4292720  76.6372410  27.0287640
  88.1635560  75.2869400  26.3979230  83.4613110  80.7197500  17.5665400
  82.8930010  80.2715750  16.9401310  84.1702110  81.0790280  17.0330550
  91.8390730  73.5995940  32.0232170  92.1636500  72.8685600  32.5490150
  91.8747240  73.2809580  31.1213160  78.5382290  84.6209520  31.4432130
  78.1537080  83.9803190  32.0415090  78.8494480  85.3245640  32.0126860
  84.6879430  81.4686060  26.9240750  85.0549560  80.9944630  27.6702090
  84.4984490  82.3427630  27.2649090  77.5519920  76.2129750  23.0534220
  77.2666840  75.8485420  23.8912840  77.4898780  75.4810210  22.4397360
  82.4778800  80.5094700  29.2424960  82.1735870  81.3886680  29.4675320
  83.4325260  80.5694490  29.2782400  81.0060590  84.7155690  19.8391810
  80.2322850  84.1753310  19.6790530  81.7355220  84.1962300  19.5009570
  91.7648570  83.7121050  25.6318200  92.4847690  84.2076340  25.2414310
  91.5630390  83.0338940  24.9872070  87.2258510  75.1059010  19.7747590
  86.4123120  74.6072180  19.6992900  87.0320460  75.9457260  19.3583940
  87.1467370  83.7830110  31.5187200  87.0804680  82.8625780  31.2644790
  86.5172510  83.8805550  32.2331840  89.9406900  79.4778660  18.0709750
  90.8286520  79.7895890  17.8961090  89.9111990  78.6050910  17.6790330
  81.0497990  84.3836070  23.4770620  81.5676660  83.5804330  23.4227510
  80.5982010  84.3215210  24.3187450  85.9367490  85.6502350  18.7497920
  86.2783190  86.3944580  18.2541240  85.1080200  85.9633470  19.1122750
  78.5342530  81.3497440  30.3896320  78.1757470  82.0151290  30.9769660
  78.2397090  80.5180990  30.7608940  81.7355650  81.8081680  33.2735870
  81.4355790  81.9538860  32.3763690  82.5066890  81.2486970  33.1809260
  87.0784100  86.6050680  31.2691000  87.0928640  85.6731640  31.0509910
  86.3709200  86.6910440  31.9080770  92.2121170  80.7890500  17.5389610
  92.1284890  81.2204720  16.6886050  92.9315360  81.2488850  17.9716430
  93.2895310  83.2458020  30.6159580  92.5643500  83.8386800  30.4188970
  93.8170770  83.2381560  29.8172950  88.8194900  84.9718190  24.1143430
  89.1718720  84.3746320  23.4544800  87.9357230  84.6462420  24.2851680
  84.9058180  85.7315880  21.5213840  85.5929310  86.2785090  21.9021430
  84.1190600  86.2756610  21.5563450  77.0450580  81.3488700  17.0130920
  77.9145430  81.6313500  17.2966840  76.5540900  82.1624570  16.8979730
  84.2085390  82.7361910  21.1339200  84.6648170  83.5467160  21.3599390
  83.8573600  82.4185050  21.9657690  80.1097170  73.0799560  21.6061720
  79.9811800  73.0717460  22.5546640  79.2859190  73.4182650  21.2552730
  87.7850080  86.2500600  27.0808950  88.4272310  85.5493760  27.1941120
  88.3099430  87.0299040  26.9005840  91.6305800  86.5349220  16.8048090
  91.4043380  85.8179660  17.3972730  91.2402000  86.2861660  15.9669840
  77.1091100  74.8390680  31.0668420  76.3949620  75.0387600  31.6721030
  77.5286140  74.0630250  31.4383220  91.2122050  84.4521160  18.4662250
  90.9243750  84.9133850  19.2540130  92.0074220  83.9918930  18.7346470
  79.0297090  83.1662170  19.1412980  78.4225040  83.9061070  19.1508280
  79.5046440  83.2561530  18.3151180  88.6029880  77.3312990  28.8169870
  88.9710700  76.5108200  29.1449440  87.7428080  77.3914880  29.2325520
  91.9691910  76.2869930  19.6257430  91.3405070  76.3915600  18.9115660
  91.4743830  76.5066710  20.4151310  83.9375940  78.5655880  21.0415310
  83.2292090  79.0342220  21.4828920  84.2220420  77.9077890  21.6760500
  85.5631870  79.9852580  29.0407840  86.0617120  80.4598400  29.7059690
  85.7054820  79.0616100  29.2477870  87.9691370  75.2906540  22.4811100
  87.8459150  75.3092670  21.5320610  88.9175930  75.3385480  22.6009500
  82.1410960  76.8740960  18.4166020  82.9901490  77.3111110  18.3506210
  81.7742230  77.1861220  19.2438080  92.7698730  76.2020540  29.8836230
  92.2672330  76.9425940  30.2230040  93.5855390  76.5904540  29.5673020
  91.0620740  81.4453720  23.3297590  90.1210880  81.4603950  23.5045280
  91.3764810  80.6589680  23.7757890  81.0402380  83.1273320  16.8901550
  81.8065650  83.0154680  17.4526980  81.1177070  82.4311290  16.2378320
  79.7349140  80.5598390  17.5734440  79.8152730  79.6125900  17.6851840
  80.6268890  80.8905270  17.6795100  88.3786760  86.0019720  33.8129970
  87.7724920  86.0251320  33.0725720  88.0740870  85.2702760  34.3497220
  77.2619940  82.3813310  32.8090610  77.7658960  81.8020590  33.3806840
  76.5227360  82.6653540  33.3466980  84.1643560  85.1027500  16.3636900
  84.0594200  84.4879850  17.0898280  83.9967780  84.5793390  15.5799910
  84.3157880  83.7884300  32.3426130  83.5503550  84.3569300  32.2580800
  84.4973840  83.4960510  31.4494360  87.4046290  84.1647530  16.9678890
  86.8556390  84.6116830  17.6121630  88.0265550  83.6596780  17.4916560
  91.4581230  85.5189630  32.9001150  92.1990700  85.8565390  32.3968610
  90.6953910  85.6881690  32.3470920  79.2943020  80.5242900  33.7040680
  79.3348360  80.2256770  34.6125910  80.1488520  80.9250510  33.5448200
  83.0721410  83.1238450  18.8644190  83.4937830  82.9578320  19.7075580
  83.1972250  82.3138680  18.3699330  81.2348830  79.1035000  31.6715170
  80.7045290  78.6125950  31.0438510  81.9036900  79.5319200  31.1373100
  85.5849050  82.1476060  16.1121290  86.1054710  81.4325080  15.7462440
  86.2317450  82.7861930  16.4121800  90.1326890  83.5704460  31.4356360
  90.5467910  83.7249540  32.2846780  89.1977890  83.6959680  31.5982140
  90.6049060  80.9100620  33.4395510  91.1869830  80.1552940  33.3515990
  90.7810830  81.4408060  32.6626990  81.7221130  76.0697370  31.7512460
  81.6278000  75.4518120  31.0263330  81.1418520  76.7963660  31.5242370
  84.4882570  74.6270610  28.7839850  84.0399870  74.6494870  27.9385400
  83.8547770  74.2289630  29.3810150  84.8942120  83.5224940  29.4052290
  85.3130230  84.3657670  29.2328530  83.9750750  83.6596980  29.1759070
  87.2306020  81.2541120  30.7890130  87.3502230  80.6582260  31.5284970
  88.0900020  81.2910810  30.3691430  89.5693920  81.8078310  29.3652640
  89.0429140  82.3320930  28.7617780  89.9125260  82.4405700  29.9962370
  81.9680310  79.1971680  15.8102350  81.7669370  78.3339040  16.1715690
  81.7972360  79.1105040  14.8723950  83.9974790  77.7962470  32.0465950
  84.5874480  77.4878320  32.7343770  83.1795030  77.3242220  32.2025850
  88.8168220  77.4128280  32.2798970  88.1283740  76.7509820  32.2148960
  89.5374240  76.9666550  32.7247430  89.4468620  74.0079910  18.3389230
  89.7270910  73.1647810  18.6948650  88.6734350  74.2403020  18.8527980
  80.7663110  76.2972300  15.7980230  81.0689010  76.3039730  14.8899380
  81.5057700  75.9470160  16.2947890  83.9848040  75.2406920  16.7836430
  83.6370040  74.5630910  16.2038880  84.1860810  74.7796430  17.5979820
  79.7893240  85.6014720  16.6310030  80.2268110  86.1444390  17.2867610
  80.2740970  84.7761670  16.6406370  81.6000960  86.7212760  21.7432260
  81.2996500  86.5977730  22.6436170  81.4938450  85.8621350  21.3347990
  93.8249340  83.2456640  18.9493140  94.5868250  83.8153290  19.0552830
  93.8403710  82.6783840  19.7201450  77.3253680  81.7694570  23.1800800
  76.6702520  81.5006210  22.5360500  78.1631630  81.6599050  22.7302780
  94.8309310  84.1006740  23.7935070  95.2018140  83.3174060  23.3871040
  95.4711240  84.7895840  23.6152370  91.8143070  85.4843320  29.2065390
  91.0002910  85.9140480  29.4691180  92.2217270  86.0961730  28.5934440
  93.8768510  83.5391010  16.1065660  94.1517350  84.4469890  15.9784880
  93.6879250  83.4753540  17.0427650  90.2744120  76.5635860  17.4019290
  90.6929000  76.3766840  16.5615950  89.9680180  75.7114910  17.7122220
  93.7733850  81.4760000  21.0995090  93.3977450  80.7087930  20.6676380
  93.0436970  81.8582700  21.5870020  78.3629610  82.1547140  27.7204140
  78.7302650  82.0674540  28.6000160  77.7940430  81.3913690  27.6211000
  93.1633470  80.6231520  30.7334610  92.9319560  80.3944270  29.8332560
  93.4238020  81.5431070  30.6879500  77.9145610  79.0656230  31.6262560
  77.0201660  79.0322990  31.9656270  78.4543160  79.2643020  32.3913810
  91.6021540  75.8487950  33.5114310  92.4791720  75.8571350  33.8948310
  91.6142380  75.1118790  32.9006660  76.5391760  78.9793500  19.1226130
  75.6355840  79.2423700  18.9477790  77.0232380  79.2504670  18.3426090
  93.0484810  79.7017490  24.4002330  93.5722290  79.2080140  23.7692500
  93.6344230  79.8367850  25.1449900  93.2274530  79.7857360  27.9221880
  92.2777240  79.7520900  28.0366870  93.4087540  80.6957470  27.6871650
  79.0818970  78.0359040  17.0320510  79.7910670  77.6142260  16.5467790
  78.3658910  78.1034270  16.4003860  78.7293130  74.0898370  16.0723160
  79.4521260  74.6307310  16.3904380  79.0017650  73.8161790  15.1964700
  92.5384780  78.9590840  20.3394740  93.0343900  78.7261710  21.1243620
  92.3400850  78.1202680  19.9232380  78.4185320  73.3404560  25.9745780
  79.0661510  72.7901940  25.5340940  78.8387160  73.5947710  26.7961590
  93.9671940  77.5951790  22.8732420  93.8571220  77.4407830  23.8114690
  94.7279530  77.0672730  22.6307830  92.3137660  73.5345920  29.3315420
  92.9509880  74.1480060  29.6974610  92.4612550  73.5706580  28.3864650
  94.8562210  75.4259710  16.1138560  95.7811520  75.2940890  15.9056850
  94.8338000  75.5052530  17.0675010  94.9300700  76.1970370  18.7395270
  94.1352200  76.1315490  19.2688180  95.1343980  77.1321010  18.7280620
  78.1717320  73.4960230  28.7171100  77.8232140  73.9524050  29.4829280
  77.8405020  72.6017360  28.7993530  85.6842140  74.6872110  32.2390520
  85.6231030  75.2793940  32.9885930  86.6242520  74.5798070  32.0940780
  88.3216700  74.3442170  31.8782810  88.9357110  74.6621460  31.2163890
  88.8666260  73.8590760  32.4978670  78.8437960  73.0236430  31.9921870
  79.3920950  72.8424480  31.2287980  78.9093270  72.2330540  32.5278180
  89.0624740  72.9074310  28.2052100  88.1884580  73.2409420  28.0025030
  88.9535490  72.4347490  29.0303970  89.9696720  75.1145180  29.5893820
  89.6410080  74.2996940  29.2095550  90.9179020  75.0714990  29.4659510
  86.8099560  73.8244150  27.1445010  86.0271350  74.2989650  27.4241770
  86.5162490  72.9198980  27.0358190  91.3620630  74.5267250  25.1894100
  91.8028720  74.4712350  24.3415700  91.0928220  75.4425260  25.2604280
  93.2259200  74.1582490  23.2002920  93.1647600  73.2143710  23.0533940
  94.0051230  74.2662580  23.7456380  78.1539970  74.1291630  19.6658730
  78.9119330  74.2420510  19.0922760  77.6917140  74.9660830  19.6202160
  84.6953780  76.2430900  22.6561040  83.8828290  75.8687790  22.3156920
  85.1995420  75.4875980  22.9582230  89.1978760  72.9073350  23.8944110
  89.8008130  73.4793560  24.3692630  88.4571750  73.4712790  23.6718010
  92.3413360  73.3094910  19.1684390  92.5363990  74.2078360  19.4351820
  91.5543230  73.0781990  19.6617340  80.5265120  74.6555680  18.2060700
  81.0557880  73.8685480  18.0768650  81.1593440  75.3346870  18.4396230
  82.7202960  74.3930820  21.2606090  82.0905700  73.6918130  21.4276220
  82.1808100  75.1534950  21.0439250  82.8458520  73.6714800  33.6958580
  82.5642790  74.1748400  32.9319400  83.2278220  72.8736550  33.3300710
  89.4473980  73.0868380  34.2739050  89.3339430  73.4062990  35.1690570
  90.2643720  73.4880890  33.9776330  88.3532130  81.1060850   4.6373790
  88.2726180  80.1915460   4.3665500  87.9396550  81.6027920   3.9313500
  86.4850170  82.8839870   6.5183060  85.7092270  82.4040310   6.8081630
  87.1363100  82.2045520   6.3439220  80.5016000  83.1959680   7.3958820
  79.6700880  82.9408390   7.7955330  81.1096980  83.2670450   8.1316740
  76.8740960  80.7567220   7.0640910  77.4457070  79.9889420   7.0644550
  76.8742500  81.0555980   6.1547520  85.9259160  85.5597060   6.5253220
  85.8567440  84.6187000   6.3642350  86.6879020  85.6498470   7.0975790
  78.1165830  76.1651580   8.8509840  77.9368670  75.2677330   9.1312600
  77.7145910  76.7123450   9.5256790  86.9564330  78.3667440   6.7522150
  87.3329150  77.4939320   6.6395820  86.8583840  78.7026140   5.8612590
  81.0869340  76.7393070   2.2139590  81.1936090  77.6396800   2.5208350
  80.1761700  76.6911040   1.9234240  90.7388450  75.8617880   3.6850490
  91.5598070  75.3714450   3.7275970  90.7722530  76.4515540   4.4382330
  78.7352500  78.6612080   7.4592180  79.4162610  78.9250450   8.0779580
  78.4200550  77.8212950   7.7930190  82.9277070  79.7079440   6.5464770
  83.4355290  80.2060410   7.1869790  83.4590310  78.9314640   6.3704130
  95.0288000  77.8784630  10.2494120  94.3240170  78.2666340   9.7309230
  95.2945920  78.5734920  10.8515050  81.2113170  74.3478000  10.8128190
  81.2131610  74.8650390  10.0074090  80.3817480  73.8708180  10.7898120
  87.5984260  84.4597310   2.3118090  86.9801530  84.9246760   1.7480810
  88.1107510  85.1524790   2.7287600  82.4616020  83.9873180   8.9901690
  82.1285400  84.6142100   9.6322760  82.6382700  84.5135060   8.2103360
  90.9749930  77.8018260   6.4578030  90.2705500  78.0903150   7.0381140
  91.3362090  78.6118370   6.0977590  80.8928500  76.0587960   8.8198640
  81.2345310  76.9030010   8.5252510  79.9544310  76.2071700   8.9363980
  81.6735120  85.9553980  10.8050870  82.2909120  86.6305060  10.5235320
  80.8128240  86.3641960  10.7138370  94.0436850  77.2473050   6.8487240
  93.0961760  77.2812030   6.9802670  94.3686840  78.0612000   7.2336600
  84.5756390  73.5470230   5.1443230  84.8831370  72.9917120   4.4278730
  83.6457090  73.6814690   4.9616220  91.4216870  85.9853740   2.5240860
  91.3113200  85.0428070   2.6490280  91.4185120  86.3469380   3.4103620
  89.5256890  84.1667360   8.7633300  89.9425680  83.9527470   7.9286760
  90.2496710  84.4240150   9.3341920  86.9637150  81.6119060   1.8803350
  86.0366430  81.5456440   2.1091820  87.1161970  82.5499190   1.7658590
  93.4718990  82.5654580   8.8549540  92.6437620  82.6347670   8.3799670
  94.0669470  83.1508890   8.3865370  90.9934440  83.1739360   2.3838600
  90.3746860  82.8358910   1.7364900  90.9758890  82.5299120   3.0917790
  90.4361000  79.3523900   9.8004410  90.0232180  80.1777610  10.0544400
  89.7036950  78.7668940   9.6080770  82.5693790  82.1383800   4.6623080
  82.1650790  81.4261050   4.1668980  82.6556910  81.7937040   5.5511120
  83.0375490  85.8251360   6.8262290  82.7403780  85.2196830   6.1470070
  83.9875310  85.8628670   6.7151650  81.2822410  78.9127010   8.4422120
  81.8337000  79.0222350   7.6675370  81.7965920  79.2864610   9.1577350
  82.1293920  85.5633050  13.4770090  81.2322450  85.7873020  13.7243490
  82.1546790  85.6867990  12.5281490  80.9565140  82.4346370  12.0527460
  80.8172910  83.3069170  12.4214860  80.0746500  82.0919180  11.9075400
  76.9083790  84.2043920   7.9698370  76.9864210  84.3392690   7.0254090
  77.5225470  83.4959810   8.1626490  78.1531420  85.9044110   4.3804550
  77.7459500  86.0458700   3.5258150  79.0444430  85.6204270   4.1775760
  94.1093560  86.3508020  12.7176790  94.2356620  86.1119900  11.7993970
  94.1514940  85.5192560  13.1898870  93.9617570  78.4040480  13.6826530
  93.3461840  78.9120150  13.1541990  93.6413990  77.5038810  13.6252470
  76.9643310  85.2458090  10.5092830  77.1274350  84.7763450   9.6912200
  77.4295760  84.7381650  11.1741670  81.7362080  74.3763850   5.5453400
  81.2930230  75.1573390   5.2137920  82.2947070  74.6993740   6.2524340
  86.0231890  77.2432370  11.1488720  85.5611260  77.4515390  11.9608660
  85.6210000  76.4291720  10.8459390  91.0236400  78.4641320  12.2785380
  90.1729990  78.1647070  12.5994450  90.8638190  78.7083330  11.3669200
  88.1186110  79.9643070  14.3784170  88.4439520  79.1306820  14.0386400
  88.9066440  80.4871590  14.5262500  83.7737980  74.9211180   7.4043000
  84.0710310  75.8274010   7.3235020  84.3223540  74.4329960   6.7902570
  81.5276300  79.4997420   3.2734650  81.3017220  79.2834590   4.1781270
  80.7468830  79.9325880   2.9280620  83.9675510  80.3983000  13.9394920
  83.8719110  79.4577730  13.7895320  84.8107490  80.6198070  13.5442990
  87.3638930  78.1424330   3.9028580  87.7568500  78.4596530   3.0897270
  87.7255780  77.2636210   4.0173100  79.0986050  76.8096670  12.0928700
  78.7049440  77.6571880  12.3001480  78.4104450  76.1723040  12.2837340
  85.6731100  76.8931640  15.1625440  84.9829420  76.7003840  15.7971530
  86.4163400  77.1766280  15.6949740  76.4003100  74.7325130   6.1258780
  76.1116150  75.3027990   6.8383760  77.1448860  74.2529580   6.4890010
  87.9494070  80.7330080   7.9979360  87.2175190  81.2416890   8.3469460
  87.5518410  79.9160060   7.6968140  84.3871460  77.4084280   6.4031850
  84.3907520  76.9674230   5.5536390  85.2822580  77.7301610   6.5103670
  80.2373840  77.2910770   5.3626060  79.8973890  77.7686000   6.1193110
  79.4751160  76.8375890   5.0027160  88.4119980  76.1863760   7.4102300
  88.4292720  76.6372410   8.2544150  88.1635560  75.2869400   7.6235740
  91.8390730  73.5995940  13.2488680  92.1636500  72.8685600  13.7746660
  91.8747240  73.2809580  12.3469670  78.5382290  84.6209520  12.6688640
  78.1537080  83.9803190  13.2671600  78.8494480  85.3245640  13.2383370
  84.6879430  81.4686060   8.1497260  85.0549560  80.9944630   8.8958600
  84.4984490  82.3427630   8.4905600  77.5519920  76.2129750   4.2790730
  77.2666840  75.8485420   5.1169350  77.4898780  75.4810210   3.6653870
  82.4778800  80.5094700  10.4681470  82.1735870  81.3886680  10.6931830
  83.4325260  80.5694490  10.5038910  91.7648570  83.7121050   6.8574710
  92.4847690  84.2076340   6.4670820  91.5630390  83.0338940   6.2128580
  87.1467370  83.7830110  12.7443710  87.0804680  82.8625780  12.4901300
  86.5172510  83.8805550  13.4588350  81.0497990  84.3836070   4.7027130
  81.5676660  83.5804330   4.6484020  80.5982010  84.3215210   5.5443960
  78.5342530  81.3497440  11.6152830  78.1757470  82.0151290  12.2026170
  78.2397090  80.5180990  11.9865450  81.7355650  81.8081680  14.4992380
  81.4355790  81.9538860  13.6020200  82.5066890  81.2486970  14.4065770
  87.0784100  86.6050680  12.4947510  87.0928640  85.6731640  12.2766420
  86.3709200  86.6910440  13.1337280  93.2895310  83.2458020  11.8416090
  92.5643500  83.8386800  11.6445480  93.8170770  83.2381560  11.0429460
  88.8194900  84.9718190   5.3399940  89.1718720  84.3746320   4.6801310
  87.9357230  84.6462420   5.5108190  84.9058180  85.7315880   2.7470350
  85.5929310  86.2785090   3.1277940  84.1190600  86.2756610   2.7819960
  84.2085390  82.7361910   2.3595710  84.6648170  83.5467160   2.5855900
  83.8573600  82.4185050   3.1914200  80.1097170  73.0799560   2.8318230
  79.9811800  73.0717460   3.7803150  79.2859190  73.4182650   2.4809240
  87.7850080  86.2500600   8.3065460  88.4272310  85.5493760   8.4197630
  88.3099430  87.0299040   8.1262350  77.1091100  74.8390680  12.2924930
  76.3949620  75.0387600  12.8977540  77.5286140  74.0630250  12.6639730
  88.6029880  77.3312990  10.0426380  88.9710700  76.5108200  10.3705950
  87.7428080  77.3914880  10.4582030  83.9375940  78.5655880   2.2671820
  83.2292090  79.0342220   2.7085430  84.2220420  77.9077890   2.9017010
  85.5631870  79.9852580  10.2664350  86.0617120  80.4598400  10.9316200
  85.7054820  79.0616100  10.4734380  87.9691370  75.2906540   3.7067610
  87.8459150  75.3092670   2.7577120  88.9175930  75.3385480   3.8266010
  92.7698730  76.2020540  11.1092740  92.2672330  76.9425940  11.4486550
  93.5855390  76.5904540  10.7929530  91.0620740  81.4453720   4.5554100
  90.1210880  81.4603950   4.7301790  91.3764810  80.6589680   5.0014400
  88.3786760  86.0019720  15.0386480  87.7724920  86.0251320  14.2982230
  88.0740870  85.2702760  15.5753730  77.2619940  82.3813310  14.0347120
  77.7658960  81.8020590  14.6063350  76.5227360  82.6653540  14.5723490
  84.3157880  83.7884300  13.5682640  83.5503550  84.3569300  13.4837310
  84.4973840  83.4960510  12.6750870  91.4581230  85.5189630  14.1257660
  92.1990700  85.8565390  13.6225120  90.6953910  85.6881690  13.5727430
  79.2943020  80.5242900  14.9297190  79.3348360  80.2256770  15.8382420
  80.1488520  80.9250510  14.7704710  81.2348830  79.1035000  12.8971680
  80.7045290  78.6125950  12.2695020  81.9036900  79.5319200  12.3629610
  90.1326890  83.5704460  12.6612870  90.5467910  83.7249540  13.5103290
  89.1977890  83.6959680  12.8238650  90.6049060  80.9100620  14.6652020
  91.1869830  80.1552940  14.5772500  90.7810830  81.4408060  13.8883500
  81.7221130  76.0697370  12.9768970  81.6278000  75.4518120  12.2519840
  81.1418520  76.7963660  12.7498880  84.4882570  74.6270610  10.0096360
  84.0399870  74.6494870   9.1641910  83.8547770  74.2289630  10.6066660
  84.8942120  83.5224940  10.6308800  85.3130230  84.3657670  10.4585040
  83.9750750  83.6596980  10.4015580  87.2306020  81.2541120  12.0146640
  87.3502230  80.6582260  12.7541480  88.0900020  81.2910810  11.5947940
  89.5693920  81.8078310  10.5909150  89.0429140  82.3320930   9.9874290
  89.9125260  82.4405700  11.2218880  83.9974790  77.7962470  13.2722460
  84.5874480  77.4878320  13.9600280  83.1795030  77.3242220  13.4282360
  88.8168220  77.4128280  13.5055480  88.1283740  76.7509820  13.4405470
  89.5374240  76.9666550  13.9503940  81.6000960  86.7212760   2.9688770
  81.2996500  86.5977730   3.8692680  81.4938450  85.8621350   2.5604500
  77.3253680  81.7694570   4.4057310  76.6702520  81.5006210   3.7617010
  78.1631630  81.6599050   3.9559290  94.8309310  84.1006740   5.0191580
  95.2018140  83.3174060   4.6127550  95.4711240  84.7895840   4.8408880
  91.8143070  85.4843320  10.4321900  91.0002910  85.9140480  10.6947690
  92.2217270  86.0961730   9.8190950  93.7733850  81.4760000   2.3251600
  93.3977450  80.7087930   1.8932890  93.0436970  81.8582700   2.8126530
  78.3629610  82.1547140   8.9460650  78.7302650  82.0674540   9.8256670
  77.7940430  81.3913690   8.8467510  93.1633470  80.6231520  11.9591120
  92.9319560  80.3944270  11.0589070  93.4238020  81.5431070  11.9136010
  77.9145610  79.0656230  12.8519070  77.0201660  79.0322990  13.1912780
  78.4543160  79.2643020  13.6170320  91.6021540  75.8487950  14.7370820
  92.4791720  75.8571350  15.1204820  91.6142380  75.1118790  14.1263170
  93.0484810  79.7017490   5.6258840  93.5722290  79.2080140   4.9949010
  93.6344230  79.8367850   6.3706410  93.2274530  79.7857360   9.1478390
  92.2777240  79.7520900   9.2623380  93.4087540  80.6957470   8.9128160
  78.4185320  73.3404560   7.2002290  79.0661510  72.7901940   6.7597450
  78.8387160  73.5947710   8.0218100  93.9671940  77.5951790   4.0988930
  93.8571220  77.4407830   5.0371200  94.7279530  77.0672730   3.8564340
  92.3137660  73.5345920  10.5571930  92.9509880  74.1480060  10.9231120
  92.4612550  73.5706580   9.6121160  78.1717320  73.4960230   9.9427610
  77.8232140  73.9524050  10.7085790  77.8405020  72.6017360  10.0250040
  85.6842140  74.6872110  13.4647030  85.6231030  75.2793940  14.2142440
  86.6242520  74.5798070  13.3197290  88.3216700  74.3442170  13.1039320
  88.9357110  74.6621460  12.4420400  88.8666260  73.8590760  13.7235180
  78.8437960  73.0236430  13.2178380  79.3920950  72.8424480  12.4544490
  78.9093270  72.2330540  13.7534690  89.0624740  72.9074310   9.4308610
  88.1884580  73.2409420   9.2281540  88.9535490  72.4347490  10.2560480
  89.9696720  75.1145180  10.8150330  89.6410080  74.2996940  10.4352060
  90.9179020  75.0714990  10.6916020  86.8099560  73.8244150   8.3701520
  86.0271350  74.2989650   8.6498280  86.5162490  72.9198980   8.2614700
  91.3620630  74.5267250   6.4150610  91.8028720  74.4712350   5.5672210
  91.0928220  75.4425260   6.4860790  93.2259200  74.1582490   4.4259430
  93.1647600  73.2143710   4.2790450  94.0051230  74.2662580   4.9712890
  84.6953780  76.2430900   3.8817550  83.8828290  75.8687790   3.5413430
  85.1995420  75.4875980   4.1838740  89.1978760  72.9073350   5.1200620
  89.8008130  73.4793560   5.5949140  88.4571750  73.4712790   4.8974520
  82.7202960  74.3930820   2.4862600  82.0905700  73.6918130   2.6532730
  82.1808100  75.1534950   2.2695760  82.8458520  73.6714800  14.9215090
  82.5642790  74.1748400  14.1575910  83.2278220  72.8736550  14.5557220
  89.4473980  73.0868380  15.4995560  89.3339430  73.4062990  16.3947080
  90.2643720  73.4880890  15.2032840  88.3532130  62.3317360  79.7347750
  88.2726180  61.4171970  79.4639460  87.9396550  62.8284430  79.0287460
  86.4850170  64.1096380  81.6157020  85.7092270  63.6296820  81.9055590
  87.1363100  63.4302030  81.4413180  80.5016000  64.4216190  82.4932780
  79.6700880  64.1664900  82.8929290  81.1096980  64.4926960  83.2290700
  90.5057600  68.5156570  80.3956150  90.0439130  67.7443810  80.7243320
  91.3183150  68.5422640  80.9008600  80.4817260  68.4556280  82.6890800
  80.7845300  67.5654020  82.5101020  81.2260850  69.0126500  82.4613050
  78.9107950  59.3818080  76.2775170  78.0224650  59.7234050  76.1755050
  79.1949140  59.1818400  75.3856000  76.8740960  61.9823730  82.1614870
  77.4457070  61.2145930  82.1618510  76.8742500  62.2812490  81.2521480
  86.7320910  70.8014580  80.0160140  86.1132350  71.2572080  79.4454580
  87.5872690  70.9566040  79.6149840  85.9259160  66.7853570  81.6227180
  85.8567440  65.8443510  81.4616310  86.6879020  66.8754980  82.1949750
  78.1165830  57.3908090  83.9483800  77.9368670  56.4933840  84.2286560
  77.7145910  57.9379960  84.6230750  86.9564330  59.5923950  81.8496110
  87.3329150  58.7195830  81.7369780  86.8583840  59.9282650  80.9586550
  81.0869340  57.9649580  77.3113550  81.1936090  58.8653310  77.6182310
  80.1761700  57.9167550  77.0208200  90.7388450  57.0874390  78.7824450
  91.5598070  56.5970960  78.8249930  90.7722530  57.6772050  79.5356290
  78.7352500  59.8868590  82.5566140  79.4162610  60.1506960  83.1753540
  78.4200550  59.0469460  82.8904150  82.9277070  60.9335950  81.6438730
  83.4355290  61.4316920  82.2843750  83.4590310  60.1571150  81.4678090
  95.0288000  59.1041140  85.3468080  94.3240170  59.4922850  84.8283190
  95.2945920  59.7991430  85.9489010  81.2113170  55.5734510  85.9102150
  81.2131610  56.0906900  85.1048050  80.3817480  55.0964690  85.8872080
  87.5984260  65.6853820  77.4092050  86.9801530  66.1503270  76.8454770
  88.1107510  66.3781300  77.8261560  82.4616020  65.2129690  84.0875650
  82.1285400  65.8398610  84.7296720  82.6382700  65.7391570  83.3077320
  90.9749930  59.0274770  81.5551990  90.2705500  59.3159660  82.1355100
  91.3362090  59.8374880  81.1951550  80.8928500  57.2844470  83.9172600
  81.2345310  58.1286520  83.6226470  79.9544310  57.4328210  84.0337940
  81.6735120  67.1810490  85.9024830  82.2909120  67.8561570  85.6209280
  80.8128240  67.5898470  85.8112330  76.9667460  66.3710350  74.7831680
  76.5895440  66.8597450  74.0516580  77.2240530  67.0435630  75.4138210
  92.5912710  68.6449900  83.8179470  91.9076230  69.3149010  83.8096140
  93.1307000  68.8430550  83.0524330  94.0436850  58.4729560  81.9461200
  93.0961760  58.5068540  82.0776630  94.3686840  59.2868510  82.3310560
  84.5756390  54.7726740  80.2417190  84.8831370  54.2173630  79.5252690
  83.6457090  54.9071200  80.0590180  90.1271450  70.4894030  82.5324650
  90.1398610  70.0856320  81.6646910  89.5746670  71.2641320  82.4286080
  91.4216870  67.2110250  77.6214820  91.3113200  66.2684580  77.7464240
  91.4185120  67.5725890  78.5077580  89.5256890  65.3923870  83.8607260
  89.9425680  65.1783980  83.0260720  90.2496710  65.6496660  84.4315880
  86.9637150  62.8375570  76.9777310  86.0366430  62.7712950  77.2065780
  87.1161970  63.7755700  76.8632550  86.9506230  59.1092570  73.9744470
  86.0109900  59.2706530  74.0596930  87.2689490  59.8278250  73.4280460
  93.4718990  63.7911090  83.9523500  92.6437620  63.8604180  83.4773630
  94.0669470  64.3765400  83.4839330  90.9934440  64.3995870  77.4812560
  90.3746860  64.0615420  76.8338860  90.9758890  63.7555630  78.1891750
  90.4361000  60.5780410  84.8978370  90.0232180  61.4034120  85.1518360
  89.7036950  59.9925450  84.7054730  82.5693790  63.3640310  79.7597040
  82.1650790  62.6517560  79.2642940  82.6556910  63.0193550  80.6485080
  83.0375490  67.0507870  81.9236250  82.7403780  66.4453340  81.2444030
  83.9875310  67.0885180  81.8125610  81.2822410  60.1383520  83.5396080
  81.8337000  60.2478860  82.7649330  81.7965920  60.5121120  84.2551310
  91.1261100  70.6239740  85.5859350  90.6491660  71.4311930  85.3931960
  90.4422890  69.9718070  85.7385560  89.1699140  63.6382680  74.4885310
  89.6092420  62.8005110  74.3423130  89.8827560  64.2712080  74.5749450
  87.2794520  68.5778750  78.4566550  87.7190430  69.3203080  78.0421940
  87.2181410  68.8205320  79.3805510  92.7516280  54.8925490  72.8026350
  92.4388940  54.9852320  73.7025420  93.5128750  55.4706520  72.7523780
  79.2698420  62.2585290  77.2603690  79.1496020  62.9847380  76.6484960
  78.9599310  61.4888200  76.7831600  76.9083790  65.4300430  83.0672330
  76.9864210  65.5649200  82.1228050  77.5225470  64.7216320  83.2600450
  78.1531420  67.1300620  79.4778510  77.7459500  67.2715210  78.6232110
  79.0444430  66.8460780  79.2749720  89.9464700  71.5647870  75.8129560
  89.7865840  71.2750810  76.7111390  89.7811410  70.7888000  75.2774790
  82.4253080  71.3446400  77.5901180  82.2495560  70.4281940  77.3768980
  81.5708820  71.7033690  77.8298980  89.6490830  69.0735430  74.3727560
  88.9555990  69.0712720  73.7129840  90.3913690  68.6494750  73.9421730
  89.2140760  70.6998140  78.4476050  89.6697710  69.9187520  78.7614670
  89.5533280  71.4104960  78.9917230  81.7362080  55.6020360  80.6427360
  81.2930230  56.3829900  80.3111880  82.2947070  55.9250250  81.3498300
  84.8520900  55.2231060  75.5233190  84.2275080  55.2190930  76.2486500
  84.7651020  54.3562020  75.1269160  83.7737980  56.1467690  82.5016960
  84.0710310  57.0530520  82.4208980  84.3223540  55.6586470  81.8876530
  81.5276300  60.7253930  78.3708610  81.3017220  60.5091100  79.2755230
  80.7468830  61.1582390  78.0254580  88.7574060  60.7317300  76.9699260
  88.1582950  61.4553100  76.7862880  89.3053670  60.6694080  76.1875710
  87.3638930  59.3680840  79.0002540  87.7568500  59.6853040  78.1871230
  87.7255780  58.4892720  79.1147060  76.4003100  55.9581640  81.2232740
  76.1116150  56.5284500  81.9357720  77.1448860  55.4786090  81.5863970
  76.5873330  59.9001760  72.4335460  76.5048000  60.8432520  72.5750450
  76.2356390  59.7576670  71.5547810  87.9494070  61.9586590  83.0953320
  87.2175190  62.4673400  83.4443420  87.5518410  61.1416570  82.7942100
  84.3871460  58.6340790  81.5005810  84.3907520  58.1930740  80.6510350
  85.2822580  58.9558120  81.6077630  80.2373840  58.5167280  80.4600020
  79.8973890  58.9942510  81.2167070  79.4751160  58.0632400  80.1001120
  84.4491610  59.6352870  74.4912570  84.5704430  59.5939350  75.4398390
  84.0640120  60.4977020  74.3359300  88.4119980  57.4120270  82.5076260
  88.4292720  57.8628920  83.3518110  88.1635560  56.5125910  82.7209700
  83.4613110  61.9454010  73.8895870  82.8930010  61.4972260  73.2631780
  84.1702110  62.3046790  73.3561020  84.6879430  62.6942570  83.2471220
  85.0549560  62.2201140  83.9932560  84.4984490  63.5684140  83.5879560
  77.5519920  57.4386260  79.3764690  77.2666840  57.0741930  80.2143310
  77.4898780  56.7066720  78.7627830  82.4778800  61.7351210  85.5655430
  82.1735870  62.6143190  85.7905790  83.4325260  61.7951000  85.6012870
  81.0060590  65.9412200  76.1622280  80.2322850  65.4009820  76.0021000
  81.7355220  65.4218810  75.8240040  91.7648570  64.9377560  81.9548670
  92.4847690  65.4332850  81.5644780  91.5630390  64.2595450  81.3102540
  87.2258510  56.3315520  76.0978060  86.4123120  55.8328690  76.0223370
  87.0320460  57.1713770  75.6814410  89.9406900  60.7035170  74.3940220
  90.8286520  61.0152400  74.2191560  89.9111990  59.8307420  74.0020800
  81.0497990  65.6092580  79.8001090  81.5676660  64.8060840  79.7457980
  80.5982010  65.5471720  80.6417920  85.9367490  66.8758860  75.0728390
  86.2783190  67.6201090  74.5771710  85.1080200  67.1889980  75.4353220
  92.2121170  62.0147010  73.8620080  92.1284890  62.4461230  73.0116520
  92.9315360  62.4745360  74.2946900  93.2408420  68.8689270  76.5902210
  92.5984580  68.2144890  76.8645930  92.8539080  69.2744360  75.8142880
  88.8194900  66.1974700  80.4373900  89.1718720  65.6002830  79.7775270
  87.9357230  65.8718930  80.6082150  84.9058180  66.9572390  77.8444310
  85.5929310  67.5041600  78.2251900  84.1190600  67.5013120  77.8793920
  77.0450580  62.5745210  73.3361390  77.9145430  62.8570010  73.6197310
  76.5540900  63.3881080  73.2210200  84.2085390  63.9618420  77.4569670
  84.6648170  64.7723670  77.6829860  83.8573600  63.6441560  78.2888160
  86.5118000  69.4724760  84.6861970  87.1560220  69.6784140  85.3635390
  86.8747440  68.7113160  84.2332820  80.1097170  54.3056070  77.9292190
  79.9811800  54.2973970  78.8777110  79.2859190  54.6439160  77.5783200
  87.7850080  67.4757110  83.4039420  88.4272310  66.7750270  83.5171590
  88.3099430  68.2555550  83.2236310  91.6305800  67.7605730  73.1278560
  91.4043380  67.0436170  73.7203200  91.2402000  67.5118170  72.2900310
  77.4121830  71.7872590  73.9023020  77.7719470  72.3861930  73.2480290
  77.2714170  72.3332480  74.6758050  91.2122050  65.6777670  74.7892720
  90.9243750  66.1390360  75.5770600  92.0074220  65.2175440  75.0576940
  83.4290450  69.1703790  74.7196690  83.4200550  69.9033480  74.1041200
  82.5088810  68.9235370  74.8123650  79.0297090  64.3918680  75.4643450
  78.4225040  65.1317580  75.4738750  79.5046440  64.4818040  74.6381650
  88.6029880  58.5569500  85.1400340  88.9710700  57.7364710  85.4679910
  87.7428080  58.6171390  85.5555990  91.9691910  57.5126440  75.9487900
  91.3405070  57.6172110  75.2346130  91.4743830  57.7323220  76.7381780
  86.4150050  69.2332030  73.3821880  86.5162030  69.0296020  72.4523860
  85.5151790  68.9790310  73.5869660  83.9375940  59.7912390  77.3645780
  83.2292090  60.2598730  77.8059390  84.2220420  59.1334400  77.9990970
  87.9691370  56.5163050  78.8041570  87.8459150  56.5349180  77.8551080
  88.9175930  56.5641990  78.9239970  85.0568160  71.7518350  78.0769550
  85.3109660  71.7139740  77.1548920  84.1080640  71.6251680  78.0697800
  82.1410960  58.0997470  74.7396490  82.9901490  58.5367620  74.6736680
  81.7742230  58.4117730  75.5668550  91.0620740  62.6710230  79.6528060
  90.1210880  62.6860460  79.8275750  91.3764810  61.8846190  80.0988360
  81.0402380  64.3529830  73.2132020  81.8065650  64.2411190  73.7757450
  81.1177070  63.6567800  72.5608790  79.7349140  61.7854900  73.8964910
  79.8152730  60.8382410  74.0082310  80.6268890  62.1161780  74.0025570
  93.0646320  69.8419080  81.3282320  93.1893740  70.6650250  81.8006130
  93.9311880  69.6309810  80.9806470  80.5363850  71.9350290  80.9999450
  81.2726330  71.3865750  81.2708020  80.9204770  72.8006300  80.8605440
  77.4209330  68.0023860  76.8740960  76.4949110  68.2445000  76.8646370
  77.8865760  68.8298120  76.7525710  83.6466160  71.1080600  72.8225020
  84.4394770  71.3969430  72.3706810  83.1270510  70.6772770  72.1437500
  92.6996330  70.3350730  74.2461760  92.4137840  69.9215870  73.4315940
  92.5015880  71.2638440  74.1262280  84.1643560  66.3284010  72.6867370
  84.0594200  65.7136360  73.4128750  83.9967780  65.8049900  71.9030380
  87.4046290  65.3904040  73.2909360  86.8556390  65.8373340  73.9352100
  88.0265550  64.8853290  73.8147030  83.0721410  64.3494960  75.1874660
  83.4937830  64.1834830  76.0306050  83.1972250  63.5395190  74.6929800
  85.5849050  63.3732570  72.4351760  86.1054710  62.6581590  72.0692910
  86.2317450  64.0118440  72.7352270  84.4882570  55.8527120  85.1070320
  84.0399870  55.8751380  84.2615870  83.8547770  55.4546140  85.7040620
  84.8942120  64.7481450  85.7282760  85.3130230  65.5914180  85.5559000
  83.9750750  64.8853490  85.4989540  81.9680310  60.4228190  72.1332820
  81.7669370  59.5595550  72.4946160  81.7972360  60.3361550  71.1954420
  89.4468620  55.2336420  74.6619700  89.7270910  54.3904320  75.0179120
  88.6734350  55.4659530  75.1758450  80.7663110  57.5228810  72.1210700
  81.0689010  57.5296240  71.2129850  81.5057700  57.1726670  72.6178360
  83.9848040  56.4663430  73.1066900  83.6370040  55.7887420  72.5269350
  84.1860810  56.0052940  73.9210290  86.1497080  71.4544180  74.7253500
  87.0447870  71.7929150  74.7472260  86.1814710  70.7323590  74.0977780
  79.7893240  66.8271230  72.9540500  80.2268110  67.3700900  73.6098080
  80.2740970  66.0018180  72.9636840  77.0039040  69.6160260  80.4060760
  77.3342050  68.7481320  80.1739400  77.4330040  69.8218780  81.2365720
  81.6000960  67.9469270  78.0662730  81.2996500  67.8234240  78.9666640
  81.4938450  67.0877860  77.6578460  77.4929250  70.4830850  83.1442390
  77.0560240  70.6631650  83.9766540  78.0606930  71.2405470  83.0024110
  94.3692880  67.7265670  72.7689410  93.5385840  67.7942320  73.2396640
  94.5464710  68.6169790  72.4656270  93.8249340  64.4713150  75.2723610
  94.5868250  65.0409800  75.3783300  93.8403710  63.9040350  76.0431920
  77.3253680  62.9951080  79.5031270  76.6702520  62.7262720  78.8590970
  78.1631630  62.8855560  79.0533250  94.8309310  65.3263250  80.1165540
  95.2018140  64.5430570  79.7101510  95.4711240  66.0152350  79.9382840
  91.8143070  66.7099830  85.5295860  91.0002910  67.1396990  85.7921650
  92.2217270  67.3218240  84.9164910  93.8768510  64.7647520  72.4296130
  94.1517350  65.6726400  72.3015350  93.6879250  64.7010050  73.3658120
  90.2744120  57.7892370  73.7249760  90.6929000  57.6023350  72.8846420
  89.9680180  56.9371420  74.0352690  93.7733850  62.7016510  77.4225560
  93.3977450  61.9344440  76.9906850  93.0436970  63.0839210  77.9100490
  78.3629610  63.3803650  84.0434610  78.7302650  63.2931050  84.9230630
  77.7940430  62.6170200  83.9441470  76.5391760  60.2050010  75.4456600
  75.6355840  60.4680210  75.2708260  77.0232380  60.4761180  74.6656560
  93.0484810  60.9274000  80.7232800  93.5722290  60.4336650  80.0922970
  93.6344230  61.0624360  81.4680370  93.2274530  61.0113870  84.2452350
  92.2777240  60.9777410  84.3597340  93.4087540  61.9213980  84.0102120
  79.0818970  59.2615550  73.3550980  79.7910670  58.8398770  72.8698260
  78.3658910  59.3290780  72.7234330  78.7293130  55.3154880  72.3953630
  79.4521260  55.8563820  72.7134850  79.0017650  55.0418300  71.5195170
  92.5384780  60.1847350  76.6625210  93.0343900  59.9518220  77.4474090
  92.3400850  59.3459190  76.2462850  78.4185320  54.5661070  82.2976250
  79.0661510  54.0158450  81.8571410  78.8387160  54.8204220  83.1192060
  93.9671940  58.8208300  79.1962890  93.8571220  58.6664340  80.1345160
  94.7279530  58.2929240  78.9538300  94.8562210  56.6516220  72.4369030
  95.7811520  56.5197400  72.2287320  94.8338000  56.7309040  73.3905480
  94.9300700  57.4226880  75.0625740  94.1352200  57.3572000  75.5918650
  95.1343980  58.3577520  75.0511090  91.8719120  71.4618430  79.0564130
  92.4678190  71.1403000  78.3798550  92.1297270  70.9890250  79.8477400
  78.1717320  54.7216740  85.0401570  77.8232140  55.1780560  85.8059750
  77.8405020  53.8273870  85.1224000  83.4787720  69.4495930  84.8064480
  83.2379080  69.7170490  83.9195000  84.4190360  69.6201660  84.8615340
  89.0624740  54.1330820  84.5282570  88.1884580  54.4665930  84.3255500
  88.9535490  53.6604000  85.3534440  89.9696720  56.3401690  85.9124290
  89.6410080  55.5253450  85.5326020  90.9179020  56.2971500  85.7889980
  92.4231330  72.1113730  82.8861860  91.9634300  72.8629540  82.5119880
  91.7943790  71.3920200  82.8276660  79.2481950  68.2056970  85.2760580
  78.5216010  67.5862260  85.2086530  79.3091100  68.5997580  84.4058660
  82.8527050  70.4201970  82.0609990  83.3692070  69.8089330  81.5358250
  83.5024430  70.9230750  82.5521000  85.5922550  71.3110460  82.8878970
  85.8800360  71.0564760  82.0111980  86.1045770  70.7587820  83.4784540
  86.8099560  55.0500660  83.4675480  86.0271350  55.5246160  83.7472240
  86.5162490  54.1455490  83.3588660  91.3620630  55.7523760  81.5124570
  91.8028720  55.6968860  80.6646170  91.0928220  56.6681770  81.5834750
  93.2259200  55.3839000  79.5233390  93.1647600  54.4400220  79.3764410
  94.0051230  55.4919090  80.0686850  77.5311950  71.5231360  78.4857340
  77.3633990  70.8902040  79.1839230  76.6646460  71.7290760  78.1351530
  78.1539970  55.3548140  75.9889200  78.9119330  55.4677020  75.4153230
  77.6917140  56.1917340  75.9432630  84.6953780  57.4687410  78.9791510
  83.8828290  57.0944300  78.6387390  85.1995420  56.7132490  79.2812700
  89.1978760  54.1329860  80.2174580  89.8008130  54.7050070  80.6923100
  88.4571750  54.6969300  79.9948480  92.3413360  54.5351420  75.4914860
  92.5363990  55.4334870  75.7582290  91.5543230  54.3038500  75.9847810
  79.1374650  70.2164590  75.9307480  78.6122270  70.5972620  75.2269440
  79.0619230  70.8415360  76.6517190  80.5265120  55.8812190  74.5291170
  81.0557880  55.0941990  74.3999120  81.1593440  56.5603380  74.7626700
  82.7202960  55.6187330  77.5836560  82.0905700  54.9174640  77.7506690
  82.1808100  56.3791460  77.3669720  93.8939970  71.7752130  77.2521420
  94.0692160  71.0889870  76.6082340  93.1961540  72.2999180  76.8598090
  81.7367620  72.1646970  74.8056730  82.4686440  71.8806250  74.2580620
  81.9961290  71.9260250  75.6956110  80.8982410  68.2811700  74.8103060
  80.2691290  68.7496800  75.3588890  81.0130240  67.4360920  75.2449250
  88.3532130  62.3317360  60.9604260  88.2726180  61.4171970  60.6895970
  87.9396550  62.8284430  60.2543970  86.4850170  64.1096380  62.8413530
  85.7092270  63.6296820  63.1312100  87.1363100  63.4302030  62.6669690
  80.5016000  64.4216190  63.7189290  79.6700880  64.1664900  64.1185800
  81.1096980  64.4926960  64.4547210  90.5057600  68.5156570  61.6212660
  90.0439130  67.7443810  61.9499830  91.3183150  68.5422640  62.1265110
  80.4817260  68.4556280  63.9147310  80.7845300  67.5654020  63.7357530
  81.2260850  69.0126500  63.6869560  78.9107950  59.3818080  57.5031680
  78.0224650  59.7234050  57.4011560  79.1949140  59.1818400  56.6112510
  76.8740960  61.9823730  63.3871380  77.4457070  61.2145930  63.3875020
  76.8742500  62.2812490  62.4777990  86.7320910  70.8014580  61.2416650
  86.1132350  71.2572080  60.6711090  87.5872690  70.9566040  60.8406350
  85.9259160  66.7853570  62.8483690  85.8567440  65.8443510  62.6872820
  86.6879020  66.8754980  63.4206260  78.1165830  57.3908090  65.1740310
  77.9368670  56.4933840  65.4543070  77.7145910  57.9379960  65.8487260
  86.9564330  59.5923950  63.0752620  87.3329150  58.7195830  62.9626290
  86.8583840  59.9282650  62.1843060  81.0869340  57.9649580  58.5370060
  81.1936090  58.8653310  58.8438820  80.1761700  57.9167550  58.2464710
  90.7388450  57.0874390  60.0080960  91.5598070  56.5970960  60.0506440
  90.7722530  57.6772050  60.7612800  78.7352500  59.8868590  63.7822650
  79.4162610  60.1506960  64.4010050  78.4200550  59.0469460  64.1160660
  82.9277070  60.9335950  62.8695240  83.4355290  61.4316920  63.5100260
  83.4590310  60.1571150  62.6934600  95.0288000  59.1041140  66.5724590
  94.3240170  59.4922850  66.0539700  95.2945920  59.7991430  67.1745520
  81.2113170  55.5734510  67.1358660  81.2131610  56.0906900  66.3304560
  80.3817480  55.0964690  67.1128590  87.5984260  65.6853820  58.6348560
  86.9801530  66.1503270  58.0711280  88.1107510  66.3781300  59.0518070
  82.4616020  65.2129690  65.3132160  82.1285400  65.8398610  65.9553230
  82.6382700  65.7391570  64.5333830  90.9749930  59.0274770  62.7808500
  90.2705500  59.3159660  63.3611610  91.3362090  59.8374880  62.4208060
  80.8928500  57.2844470  65.1429110  81.2345310  58.1286520  64.8482980
  79.9544310  57.4328210  65.2594450  81.6735120  67.1810490  67.1281340
  82.2909120  67.8561570  66.8465790  80.8128240  67.5898470  67.0368840
  76.9667460  66.3710350  56.0088190  76.5895440  66.8597450  55.2773090
  77.2240530  67.0435630  56.6394720  92.5912710  68.6449900  65.0435980
  91.9076230  69.3149010  65.0352650  93.1307000  68.8430550  64.2780840
  94.0436850  58.4729560  63.1717710  93.0961760  58.5068540  63.3033140
  94.3686840  59.2868510  63.5567070  84.5756390  54.7726740  61.4673700
  84.8831370  54.2173630  60.7509200  83.6457090  54.9071200  61.2846690
  90.1271450  70.4894030  63.7581160  90.1398610  70.0856320  62.8903420
  89.5746670  71.2641320  63.6542590  91.4216870  67.2110250  58.8471330
  91.3113200  66.2684580  58.9720750  91.4185120  67.5725890  59.7334090
  89.5256890  65.3923870  65.0863770  89.9425680  65.1783980  64.2517230
  90.2496710  65.6496660  65.6572390  86.9637150  62.8375570  58.2033820
  86.0366430  62.7712950  58.4322290  87.1161970  63.7755700  58.0889060
  86.9506230  59.1092570  55.2000980  86.0109900  59.2706530  55.2853440
  87.2689490  59.8278250  54.6536970  93.4718990  63.7911090  65.1780010
  92.6437620  63.8604180  64.7030140  94.0669470  64.3765400  64.7095840
  90.9934440  64.3995870  58.7069070  90.3746860  64.0615420  58.0595370
  90.9758890  63.7555630  59.4148260  90.4361000  60.5780410  66.1234880
  90.0232180  61.4034120  66.3774870  89.7036950  59.9925450  65.9311240
  82.5693790  63.3640310  60.9853550  82.1650790  62.6517560  60.4899450
  82.6556910  63.0193550  61.8741590  83.0375490  67.0507870  63.1492760
  82.7403780  66.4453340  62.4700540  83.9875310  67.0885180  63.0382120
  81.2822410  60.1383520  64.7652590  81.8337000  60.2478860  63.9905840
  81.7965920  60.5121120  65.4807820  91.1261100  70.6239740  66.8115860
  90.6491660  71.4311930  66.6188470  90.4422890  69.9718070  66.9642070
  82.1293920  66.7889560  69.8000560  81.2322450  67.0129530  70.0473960
  82.1546790  66.9124500  68.8511960  89.1699140  63.6382680  55.7141820
  89.6092420  62.8005110  55.5679640  89.8827560  64.2712080  55.8005960
  80.9565140  63.6602880  68.3757930  80.8172910  64.5325680  68.7445330
  80.0746500  63.3175690  68.2305870  87.2794520  68.5778750  59.6823060
  87.7190430  69.3203080  59.2678450  87.2181410  68.8205320  60.6062020
  82.7545490  69.6024580  70.5843080  82.7260920  70.0067530  69.7171510
  82.5910460  68.6734940  70.4214680  92.7516280  54.8925490  54.0282860
  92.4388940  54.9852320  54.9281930  93.5128750  55.4706520  53.9780290
  79.2698420  62.2585290  58.4860200  79.1496020  62.9847380  57.8741470
  78.9599310  61.4888200  58.0088110  94.7060310  70.3851680  71.8807250
  95.1820030  70.8634570  72.5596330  95.3267470  70.3169170  71.1552750
  76.9083790  65.4300430  64.2928840  76.9864210  65.5649200  63.3484560
  77.5225470  64.7216320  64.4856960  78.1531420  67.1300620  60.7035020
  77.7459500  67.2715210  59.8488620  79.0444430  66.8460780  60.5006230
  94.1093560  67.5764530  69.0407260  94.2356620  67.3376410  68.1224440
  94.1514940  66.7449070  69.5129340  87.9710300  71.2792530  67.6102070
  88.4854970  71.1900540  68.4124500  87.1279380  71.6252230  67.9029980
  89.9464700  71.5647870  57.0386070  89.7865840  71.2750810  57.9367900
  89.7811410  70.7888000  56.5031300  82.4253080  71.3446400  58.8157690
  82.2495560  70.4281940  58.6025490  81.5708820  71.7033690  59.0555490
  89.6490830  69.0735430  55.5984070  88.9555990  69.0712720  54.9386350
  90.3913690  68.6494750  55.1678240  89.2140760  70.6998140  59.6732560
  89.6697710  69.9187520  59.9871180  89.5533280  71.4104960  60.2173740
  93.9617570  59.6296990  70.0057000  93.3461840  60.1376660  69.4772460
  93.6413990  58.7295320  69.9482940  76.9643310  66.4714600  66.8323300
  77.1274350  66.0019960  66.0142670  77.4295760  65.9638160  67.4972140
  81.7362080  55.6020360  61.8683870  81.2930230  56.3829900  61.5368390
  82.2947070  55.9250250  62.5754810  86.0231890  58.4688880  67.4719190
  85.5611260  58.6771900  68.2839130  85.6210000  57.6548230  67.1689860
  91.0236400  59.6897830  68.6015850  90.1729990  59.3903580  68.9224920
  90.8638190  59.9339840  67.6899670  88.1186110  61.1899580  70.7014640
  88.4439520  60.3563330  70.3616870  88.9066440  61.7128100  70.8492970
  84.8520900  55.2231060  56.7489700  84.2275080  55.2190930  57.4743010
  84.7651020  54.3562020  56.3525670  83.7737980  56.1467690  63.7273470
  84.0710310  57.0530520  63.6465490  84.3223540  55.6586470  63.1133040
  81.5276300  60.7253930  59.5965120  81.3017220  60.5091100  60.5011740
  80.7468830  61.1582390  59.2511090  88.7574060  60.7317300  58.1955770
  88.1582950  61.4553100  58.0119390  89.3053670  60.6694080  57.4132220
  83.9675510  61.6239510  70.2625390  83.8719110  60.6834240  70.1125790
  84.8107490  61.8454580  69.8673460  87.3638930  59.3680840  60.2259050
  87.7568500  59.6853040  59.4127740  87.7255780  58.4892720  60.3403570
  79.0986050  58.0353180  68.4159170  78.7049440  58.8828390  68.6231950
  78.4104450  57.3979550  68.6067810  85.6731100  58.1188150  71.4855910
  84.9829420  57.9260350  72.1202000  86.4163400  58.4022790  72.0180210
  76.4003100  55.9581640  62.4489250  76.1116150  56.5284500  63.1614230
  77.1448860  55.4786090  62.8120480  76.5873330  59.9001760  53.6591970
  76.5048000  60.8432520  53.8006960  76.2356390  59.7576670  52.7804320
  87.9494070  61.9586590  64.3209830  87.2175190  62.4673400  64.6699930
  87.5518410  61.1416570  64.0198610  84.3871460  58.6340790  62.7262320
  84.3907520  58.1930740  61.8766860  85.2822580  58.9558120  62.8334140
  80.2373840  58.5167280  61.6856530  79.8973890  58.9942510  62.4423580
  79.4751160  58.0632400  61.3257630  84.4491610  59.6352870  55.7169080
  84.5704430  59.5939350  56.6654900  84.0640120  60.4977020  55.5615810
  88.4119980  57.4120270  63.7332770  88.4292720  57.8628920  64.5774620
  88.1635560  56.5125910  63.9466210  83.4613110  61.9454010  55.1152380
  82.8930010  61.4972260  54.4888290  84.1702110  62.3046790  54.5817530
  91.8390730  54.8252450  69.5719150  92.1636500  54.0942110  70.0977130
  91.8747240  54.5066090  68.6700140  78.5382290  65.8466030  68.9919110
  78.1537080  65.2059700  69.5902070  78.8494480  66.5502150  69.5613840
  84.6879430  62.6942570  64.4727730  85.0549560  62.2201140  65.2189070
  84.4984490  63.5684140  64.8136070  77.5519920  57.4386260  60.6021200
  77.2666840  57.0741930  61.4399820  77.4898780  56.7066720  59.9884340
  82.4778800  61.7351210  66.7911940  82.1735870  62.6143190  67.0162300
  83.4325260  61.7951000  66.8269380  81.0060590  65.9412200  57.3878790
  80.2322850  65.4009820  57.2277510  81.7355220  65.4218810  57.0496550
  91.7648570  64.9377560  63.1805180  92.4847690  65.4332850  62.7901290
  91.5630390  64.2595450  62.5359050  87.2258510  56.3315520  57.3234570
  86.4123120  55.8328690  57.2479880  87.0320460  57.1713770  56.9070920
  87.1467370  65.0086620  69.0674180  87.0804680  64.0882290  68.8131770
  86.5172510  65.1062060  69.7818820  89.9406900  60.7035170  55.6196730
  90.8286520  61.0152400  55.4448070  89.9111990  59.8307420  55.2277310
  81.0497990  65.6092580  61.0257600  81.5676660  64.8060840  60.9714490
  80.5982010  65.5471720  61.8674430  85.9367490  66.8758860  56.2984900
  86.2783190  67.6201090  55.8028220  85.1080200  67.1889980  56.6609730
  78.5342530  62.5753950  67.9383300  78.1757470  63.2407800  68.5256640
  78.2397090  61.7437500  68.3095920  81.7355650  63.0338190  70.8222850
  81.4355790  63.1795370  69.9250670  82.5066890  62.4743480  70.7296240
  87.0784100  67.8307190  68.8177980  87.0928640  66.8988150  68.5996890
  86.3709200  67.9166950  69.4567750  92.2121170  62.0147010  55.0876590
  92.1284890  62.4461230  54.2373030  92.9315360  62.4745360  55.5203410
  93.2895310  64.4714530  68.1646560  92.5643500  65.0643310  67.9675950
  93.8170770  64.4638070  67.3659930  93.2408420  68.8689270  57.8158720
  92.5984580  68.2144890  58.0902440  92.8539080  69.2744360  57.0399390
  88.8194900  66.1974700  61.6630410  89.1718720  65.6002830  61.0031780
  87.9357230  65.8718930  61.8338660  84.9058180  66.9572390  59.0700820
  85.5929310  67.5041600  59.4508410  84.1190600  67.5013120  59.1050430
  77.0450580  62.5745210  54.5617900  77.9145430  62.8570010  54.8453820
  76.5540900  63.3881080  54.4466710  84.2085390  63.9618420  58.6826180
  84.6648170  64.7723670  58.9086370  83.8573600  63.6441560  59.5144670
  86.5118000  69.4724760  65.9118480  87.1560220  69.6784140  66.5891900
  86.8747440  68.7113160  65.4589330  80.1097170  54.3056070  59.1548700
  79.9811800  54.2973970  60.1033620  79.2859190  54.6439160  58.8039710
  87.7850080  67.4757110  64.6295930  88.4272310  66.7750270  64.7428100
  88.3099430  68.2555550  64.4492820  91.6305800  67.7605730  54.3535070
  91.4043380  67.0436170  54.9459710  91.2402000  67.5118170  53.5156820
  89.5587700  68.2752010  67.8331990  89.8943940  68.8618700  68.5109910
  88.6388040  68.1444720  68.0629780  77.4121830  71.7872590  55.1279530
  77.7719470  72.3861930  54.4736800  77.2714170  72.3332480  55.9014560
  77.1091100  56.0647190  68.6155400  76.3949620  56.2644110  69.2208010
  77.5286140  55.2886760  68.9870200  91.2122050  65.6777670  56.0149230
  90.9243750  66.1390360  56.8027110  92.0074220  65.2175440  56.2833450
  77.3963690  70.0527450  69.6021930  77.5054810  69.1122190  69.4617320
  76.7444250  70.3182200  68.9535660  85.3876280  68.3243340  71.0020050
  85.0673150  67.6052580  71.5465740  84.7134640  68.9998410  71.0756110
  83.4290450  69.1703790  55.9453200  83.4200550  69.9033480  55.3297710
  82.5088810  68.9235370  56.0380160  79.0297090  64.3918680  56.6899960
  78.4225040  65.1317580  56.6995260  79.5046440  64.4818040  55.8638160
  88.6029880  58.5569500  66.3656850  88.9710700  57.7364710  66.6936420
  87.7428080  58.6171390  66.7812500  91.9691910  57.5126440  57.1744410
  91.3405070  57.6172110  56.4602640  91.4743830  57.7323220  57.9638290
  86.4150050  69.2332030  54.6078390  86.5162030  69.0296020  53.6780370
  85.5151790  68.9790310  54.8126170  83.9375940  59.7912390  58.5902290
  83.2292090  60.2598730  59.0315900  84.2220420  59.1334400  59.2247480
  85.5631870  61.2109090  66.5894820  86.0617120  61.6854910  67.2546670
  85.7054820  60.2872610  66.7964850  87.9691370  56.5163050  60.0298080
  87.8459150  56.5349180  59.0807590  88.9175930  56.5641990  60.1496480
  85.0568160  71.7518350  59.3026060  85.3109660  71.7139740  58.3805430
  84.1080640  71.6251680  59.2954310  82.1410960  58.0997470  55.9653000
  82.9901490  58.5367620  55.8993190  81.7742230  58.4117730  56.7925060
  92.7698730  57.4277050  67.4323210  92.2672330  58.1682450  67.7717020
  93.5855390  57.8161050  67.1160000  91.0620740  62.6710230  60.8784570
  90.1210880  62.6860460  61.0532260  91.3764810  61.8846190  61.3244870
  81.0402380  64.3529830  54.4388530  81.8065650  64.2411190  55.0013960
  81.1177070  63.6567800  53.7865300  79.7349140  61.7854900  55.1221420
  79.8152730  60.8382410  55.2338820  80.6268890  62.1161780  55.2282080
  93.0646320  69.8419080  62.5538830  93.1893740  70.6650250  63.0262640
  93.9311880  69.6309810  62.2062980  80.5363850  71.9350290  62.2255960
  81.2726330  71.3865750  62.4964530  80.9204770  72.8006300  62.0861950
  77.4209330  68.0023860  58.0997470  76.4949110  68.2445000  58.0902880
  77.8865760  68.8298120  57.9782220  79.5422130  71.1196360  71.4141540
  80.3434860  71.4408410  71.8276940  79.0273950  70.7591940  72.1361450
  83.6466160  71.1080600  54.0481530  84.4394770  71.3969430  53.5963320
  83.1270510  70.6772770  53.3694010  88.3786760  67.2276230  71.3616950
  87.7724920  67.2507830  70.6212700  88.0740870  66.4959270  71.8984200
  89.8087130  70.9556520  69.9726360  90.7608880  70.8714540  69.9226600
  89.6615350  71.6198230  70.6460150  92.6996330  70.3350730  55.4718270
  92.4137840  69.9215870  54.6572450  92.5015880  71.2638440  55.3518790
  77.2619940  63.6069820  70.3577590  77.7658960  63.0277100  70.9293820
  76.5227360  63.8910050  70.8953960  84.1643560  66.3284010  53.9123880
  84.0594200  65.7136360  54.6385260  83.9967780  65.8049900  53.1286890
  84.3157880  65.0140810  69.8913110  83.5503550  65.5825810  69.8067780
  84.4973840  64.7217020  68.9981340  87.4046290  65.3904040  54.5165870
  86.8556390  65.8373340  55.1608610  88.0265550  64.8853290  55.0403540
  91.4581230  66.7446140  70.4488130  92.1990700  67.0821900  69.9455590
  90.6953910  66.9138200  69.8957900  79.2943020  61.7499410  71.2527660
  79.3348360  61.4513280  72.1612890  80.1488520  62.1507020  71.0935180
  83.0721410  64.3494960  56.4131170  83.4937830  64.1834830  57.2562560
  83.1972250  63.5395190  55.9186310  81.2348830  60.3291510  69.2202150
  80.7045290  59.8382460  68.5925490  81.9036900  60.7575710  68.6860080
  85.5849050  63.3732570  53.6608270  86.1054710  62.6581590  53.2949420
  86.2317450  64.0118440  53.9608780  90.1326890  64.7960970  68.9843340
  90.5467910  64.9506050  69.8333760  89.1977890  64.9216190  69.1469120
  90.6049060  62.1357130  70.9882490  91.1869830  61.3809450  70.9002970
  90.7810830  62.6664570  70.2113970  81.7221130  57.2953880  69.2999440
  81.6278000  56.6774630  68.5750310  81.1418520  58.0220170  69.0729350
  84.4882570  55.8527120  66.3326830  84.0399870  55.8751380  65.4872380
  83.8547770  55.4546140  66.9297130  84.8942120  64.7481450  66.9539270
  85.3130230  65.5914180  66.7815510  83.9750750  64.8853490  66.7246050
  87.2306020  62.4797630  68.3377110  87.3502230  61.8838770  69.0771950
  88.0900020  62.5167320  67.9178410  89.5693920  63.0334820  66.9139620
  89.0429140  63.5577440  66.3104760  89.9125260  63.6662210  67.5449350
  81.9680310  60.4228190  53.3589330  81.7669370  59.5595550  53.7202670
  81.7972360  60.3361550  52.4210930  82.7449540  71.0534460  68.0697000
  82.2070630  71.7780520  67.7505700  82.9983500  70.5764800  67.2794340
  83.9974790  59.0218980  69.5952930  84.5874480  58.7134830  70.2830750
  83.1795030  58.5498730  69.7512830  88.8168220  58.6384790  69.8285950
  88.1283740  57.9766330  69.7635940  89.5374240  58.1923060  70.2734410
  89.4468620  55.2336420  55.8876210  89.7270910  54.3904320  56.2435630
  88.6734350  55.4659530  56.4014960  80.7663110  57.5228810  53.3467210
  81.0689010  57.5296240  52.4386360  81.5057700  57.1726670  53.8434870
  85.6011750  72.2885670  68.3283650  85.5270450  73.1920810  68.6356020
  84.6990590  71.9697570  68.3005720  83.9848040  56.4663430  54.3323410
  83.6370040  55.7887420  53.7525860  84.1860810  56.0052940  55.1466800
  86.1497080  71.4544180  55.9510010  87.0447870  71.7929150  55.9728770
  86.1814710  70.7323590  55.3234290  79.7893240  66.8271230  54.1797010
  80.2268110  67.3700900  54.8354590  80.2740970  66.0018180  54.1893350
  77.0039040  69.6160260  61.6317270  77.3342050  68.7481320  61.3995910
  77.4330040  69.8218780  62.4622230  81.6000960  67.9469270  59.2919240
  81.2996500  67.8234240  60.1923150  81.4938450  67.0877860  58.8834970
  77.4929250  70.4830850  64.3698900  77.0560240  70.6631650  65.2023050
  78.0606930  71.2405470  64.2280620  93.1291430  69.9847850  68.6576210
  92.5293420  70.0440410  67.9140130  93.2585330  69.0452830  68.7873060
  94.3692880  67.7265670  53.9945920  93.5385840  67.7942320  54.4653150
  94.5464710  68.6169790  53.6912780  93.8249340  64.4713150  56.4980120
  94.5868250  65.0409800  56.6039810  93.8403710  63.9040350  57.2688430
  77.3253680  62.9951080  60.7287780  76.6702520  62.7262720  60.0847480
  78.1631630  62.8855560  60.2789760  94.8309310  65.3263250  61.3422050
  95.2018140  64.5430570  60.9358020  95.4711240  66.0152350  61.1639350
  91.8143070  66.7099830  66.7552370  91.0002910  67.1396990  67.0178160
  92.2217270  67.3218240  66.1421420  93.8768510  64.7647520  53.6552640
  94.1517350  65.6726400  53.5271860  93.6879250  64.7010050  54.5914630
  90.2744120  57.7892370  54.9506270  90.6929000  57.6023350  54.1102930
  89.9680180  56.9371420  55.2609200  93.7733850  62.7016510  58.6482070
  93.3977450  61.9344440  58.2163360  93.0436970  63.0839210  59.1357000
  78.3629610  63.3803650  65.2691120  78.7302650  63.2931050  66.1487140
  77.7940430  62.6170200  65.1697980  93.1633470  61.8488030  68.2821590
  92.9319560  61.6200780  67.3819540  93.4238020  62.7687580  68.2366480
  77.9145610  60.2912740  69.1749540  77.0201660  60.2579500  69.5143250
  78.4543160  60.4899530  69.9400790  91.6021540  57.0744460  71.0601290
  92.4791720  57.0827860  71.4435290  91.6142380  56.3375300  70.4493640
  76.5391760  60.2050010  56.6713110  75.6355840  60.4680210  56.4964770
  77.0232380  60.4761180  55.8913070  93.0484810  60.9274000  61.9489310
  93.5722290  60.4336650  61.3179480  93.6344230  61.0624360  62.6936880
  93.2274530  61.0113870  65.4708860  92.2777240  60.9777410  65.5853850
  93.4087540  61.9213980  65.2358630  79.0818970  59.2615550  54.5807490
  79.7910670  58.8398770  54.0954770  78.3658910  59.3290780  53.9490840
  78.7293130  55.3154880  53.6210140  79.4521260  55.8563820  53.9391360
  79.0017650  55.0418300  52.7451680  92.5384780  60.1847350  57.8881720
  93.0343900  59.9518220  58.6730600  92.3400850  59.3459190  57.4719360
  78.4185320  54.5661070  63.5232760  79.0661510  54.0158450  63.0827920
  78.8387160  54.8204220  64.3448570  93.9671940  58.8208300  60.4219400
  93.8571220  58.6664340  61.3601670  94.7279530  58.2929240  60.1794810
  92.3137660  54.7602430  66.8802400  92.9509880  55.3736570  67.2461590
  92.4612550  54.7963090  65.9351630  94.8562210  56.6516220  53.6625540
  95.7811520  56.5197400  53.4543830  94.8338000  56.7309040  54.6161990
  94.9300700  57.4226880  56.2882250  94.1352200  57.3572000  56.8175160
  95.1343980  58.3577520  56.2767600  91.8719120  71.4618430  60.2820640
  92.4678190  71.1403000  59.6055060  92.1297270  70.9890250  61.0733910
  78.1717320  54.7216740  66.2658080  77.8232140  55.1780560  67.0316260
  77.8405020  53.8273870  66.3480510  79.7781690  67.8936340  70.4311270
  79.7351320  67.5229250  71.3125730  79.9092700  68.8313910  70.5713090
  83.4787720  69.4495930  66.0320990  83.2379080  69.7170490  65.1451510
  84.4190360  69.6201660  66.0871850  85.6842140  55.9128620  69.7877500
  85.6231030  56.5050450  70.5372910  86.6242520  55.8054580  69.6427760
  88.3216700  55.5698680  69.4269790  88.9357110  55.8877970  68.7650870
  88.8666260  55.0847270  70.0465650  94.7391880  71.4690310  66.8331630
  94.2450160  71.8659180  66.1158760  94.1305170  70.8439520  67.2268910
  78.8437960  54.2492940  69.5408850  79.3920950  54.0680990  68.7774960
  78.9093270  53.4587050  70.0765160  79.6169720  70.8398590  67.5509050
  79.0230040  70.7083290  68.2899090  79.6093560  70.0036730  67.0851150
  89.0624740  54.1330820  65.7539080  88.1884580  54.4665930  65.5512010
  88.9535490  53.6604000  66.5790950  89.9696720  56.3401690  67.1380800
  89.6410080  55.5253450  66.7582530  90.9179020  56.2971500  67.0146490
  92.4231330  72.1113730  64.1118370  91.9634300  72.8629540  63.7376390
  91.7943790  71.3920200  64.0533170  79.2481950  68.2056970  66.5017090
  78.5216010  67.5862260  66.4343040  79.3091100  68.5997580  65.6315170
  82.8527050  70.4201970  63.2866500  83.3692070  69.8089330  62.7614760
  83.5024430  70.9230750  63.7777510  85.5922550  71.3110460  64.1135480
  85.8800360  71.0564760  63.2368490  86.1045770  70.7587820  64.7041050
  86.8099560  55.0500660  64.6931990  86.0271350  55.5246160  64.9728750
  86.5162490  54.1455490  64.5845170  91.3620630  55.7523760  62.7381080
  91.8028720  55.6968860  61.8902680  91.0928220  56.6681770  62.8091260
  93.2259200  55.3839000  60.7489900  93.1647600  54.4400220  60.6020920
  94.0051230  55.4919090  61.2943360  77.5311950  71.5231360  59.7113850
  77.3633990  70.8902040  60.4095740  76.6646460  71.7290760  59.3608040
  78.1539970  55.3548140  57.2145710  78.9119330  55.4677020  56.6409740
  77.6917140  56.1917340  57.1689140  84.6953780  57.4687410  60.2048020
  83.8828290  57.0944300  59.8643900  85.1995420  56.7132490  60.5069210
  89.1978760  54.1329860  61.4431090  89.8008130  54.7050070  61.9179610
  88.4571750  54.6969300  61.2204990  92.3413360  54.5351420  56.7171370
  92.5363990  55.4334870  56.9838800  91.5543230  54.3038500  57.2104320
  79.1374650  70.2164590  57.1563990  78.6122270  70.5972620  56.4525950
  79.0619230  70.8415360  57.8773700  80.5265120  55.8812190  55.7547680
  81.0557880  55.0941990  55.6255630  81.1593440  56.5603380  55.9883210
  82.7202960  55.6187330  58.8093070  82.0905700  54.9174640  58.9763200
  82.1808100  56.3791460  58.5926230  85.6594910  72.2326560  71.4803680
  86.5862220  71.9970830  71.5239640  85.6445340  73.0598560  70.9989710
  93.8939970  71.7752130  58.4777930  94.0692160  71.0889870  57.8338850
  93.1961540  72.2999180  58.0854600  82.8458520  54.8971310  71.2445560
  82.5642790  55.4004910  70.4806380  83.2278220  54.0993060  70.8787690
  81.7367620  72.1646970  56.0313240  82.4686440  71.8806250  55.4837130
  81.9961290  71.9260250  56.9212620  80.8982410  68.2811700  56.0359570
  80.2691290  68.7496800  56.5845400  81.0130240  67.4360920  56.4705760
  89.4473980  54.3124890  71.8226030  89.3339430  54.6319500  72.7177550
  90.2643720  54.7137400  71.5263310  92.2272470  71.4596420  71.3044720
  93.0197790  70.9645650  71.0970680  92.5205620  72.1386560  71.9120330
  88.3532130  62.3317360  42.1860770  88.2726180  61.4171970  41.9152480
  87.9396550  62.8284430  41.4800480  86.4850170  64.1096380  44.0670040
  85.7092270  63.6296820  44.3568610  87.1363100  63.4302030  43.8926200
  80.5016000  64.4216190  44.9445800  79.6700880  64.1664900  45.3442310
  81.1096980  64.4926960  45.6803720  90.5057600  68.5156570  42.8469170
  90.0439130  67.7443810  43.1756340  91.3183150  68.5422640  43.3521620
  80.4817260  68.4556280  45.1403820  80.7845300  67.5654020  44.9614040
  81.2260850  69.0126500  44.9126070  78.9107950  59.3818080  38.7288190
  78.0224650  59.7234050  38.6268070  79.1949140  59.1818400  37.8369020
  76.8740960  61.9823730  44.6127890  77.4457070  61.2145930  44.6131530
  76.8742500  62.2812490  43.7034500  86.7320910  70.8014580  42.4673160
  86.1132350  71.2572080  41.8967600  87.5872690  70.9566040  42.0662860
  85.9259160  66.7853570  44.0740200  85.8567440  65.8443510  43.9129330
  86.6879020  66.8754980  44.6462770  78.1165830  57.3908090  46.3996820
  77.9368670  56.4933840  46.6799580  77.7145910  57.9379960  47.0743770
  86.9564330  59.5923950  44.3009130  87.3329150  58.7195830  44.1882800
  86.8583840  59.9282650  43.4099570  81.0869340  57.9649580  39.7626570
  81.1936090  58.8653310  40.0695330  80.1761700  57.9167550  39.4721220
  90.7388450  57.0874390  41.2337470  91.5598070  56.5970960  41.2762950
  90.7722530  57.6772050  41.9869310  78.7352500  59.8868590  45.0079160
  79.4162610  60.1506960  45.6266560  78.4200550  59.0469460  45.3417170
  82.9277070  60.9335950  44.0951750  83.4355290  61.4316920  44.7356770
  83.4590310  60.1571150  43.9191110  95.0288000  59.1041140  47.7981100
  94.3240170  59.4922850  47.2796210  95.2945920  59.7991430  48.4002030
  81.2113170  55.5734510  48.3615170  81.2131610  56.0906900  47.5561070
  80.3817480  55.0964690  48.3385100  87.5984260  65.6853820  39.8605070
  86.9801530  66.1503270  39.2967790  88.1107510  66.3781300  40.2774580
  82.4616020  65.2129690  46.5388670  82.1285400  65.8398610  47.1809740
  82.6382700  65.7391570  45.7590340  90.9749930  59.0274770  44.0065010
  90.2705500  59.3159660  44.5868120  91.3362090  59.8374880  43.6464570
  80.8928500  57.2844470  46.3685620  81.2345310  58.1286520  46.0739490
  79.9544310  57.4328210  46.4850960  81.6735120  67.1810490  48.3537850
  82.2909120  67.8561570  48.0722300  80.8128240  67.5898470  48.2625350
  76.9667460  66.3710350  37.2344700  76.5895440  66.8597450  36.5029600
  77.2240530  67.0435630  37.8651230  92.5912710  68.6449900  46.2692490
  91.9076230  69.3149010  46.2609160  93.1307000  68.8430550  45.5037350
  94.0436850  58.4729560  44.3974220  93.0961760  58.5068540  44.5289650
  94.3686840  59.2868510  44.7823580  84.5756390  54.7726740  42.6930210
  84.8831370  54.2173630  41.9765710  83.6457090  54.9071200  42.5103200
  90.1271450  70.4894030  44.9837670  90.1398610  70.0856320  44.1159930
  89.5746670  71.2641320  44.8799100  91.4216870  67.2110250  40.0727840
  91.3113200  66.2684580  40.1977260  91.4185120  67.5725890  40.9590600
  89.5256890  65.3923870  46.3120280  89.9425680  65.1783980  45.4773740
  90.2496710  65.6496660  46.8828900  86.9637150  62.8375570  39.4290330
  86.0366430  62.7712950  39.6578800  87.1161970  63.7755700  39.3145570
  86.9506230  59.1092570  36.4257490  86.0109900  59.2706530  36.5109950
  87.2689490  59.8278250  35.8793480  93.4718990  63.7911090  46.4036520
  92.6437620  63.8604180  45.9286650  94.0669470  64.3765400  45.9352350
  90.9934440  64.3995870  39.9325580  90.3746860  64.0615420  39.2851880
  90.9758890  63.7555630  40.6404770  90.4361000  60.5780410  47.3491390
  90.0232180  61.4034120  47.6031380  89.7036950  59.9925450  47.1567750
  82.5693790  63.3640310  42.2110060  82.1650790  62.6517560  41.7155960
  82.6556910  63.0193550  43.0998100  83.0375490  67.0507870  44.3749270
  82.7403780  66.4453340  43.6957050  83.9875310  67.0885180  44.2638630
  81.2822410  60.1383520  45.9909100  81.8337000  60.2478860  45.2162350
  81.7965920  60.5121120  46.7064330  91.1261100  70.6239740  48.0372370
  90.6491660  71.4311930  47.8444980  90.4422890  69.9718070  48.1898580
  82.1293920  66.7889560  51.0257070  81.2322450  67.0129530  51.2730470
  82.1546790  66.9124500  50.0768470  89.1699140  63.6382680  36.9398330
  89.6092420  62.8005110  36.7936150  89.8827560  64.2712080  37.0262470
  80.9565140  63.6602880  49.6014440  80.8172910  64.5325680  49.9701840
  80.0746500  63.3175690  49.4562380  87.2794520  68.5778750  40.9079570
  87.7190430  69.3203080  40.4934960  87.2181410  68.8205320  41.8318530
  82.7545490  69.6024580  51.8099590  82.7260920  70.0067530  50.9428020
  82.5910460  68.6734940  51.6471190  92.7516280  54.8925490  35.2539370
  92.4388940  54.9852320  36.1538440  93.5128750  55.4706520  35.2036800
  79.2698420  62.2585290  39.7116710  79.1496020  62.9847380  39.0997980
  78.9599310  61.4888200  39.2344620  94.7060310  70.3851680  53.1063760
  95.1820030  70.8634570  53.7852840  95.3267470  70.3169170  52.3809260
  76.9083790  65.4300430  45.5185350  76.9864210  65.5649200  44.5741070
  77.5225470  64.7216320  45.7113470  78.1531420  67.1300620  41.9291530
  77.7459500  67.2715210  41.0745130  79.0444430  66.8460780  41.7262740
  94.1093560  67.5764530  50.2663770  94.2356620  67.3376410  49.3480950
  94.1514940  66.7449070  50.7385850  87.9710300  71.2792530  48.8358580
  88.4854970  71.1900540  49.6381010  87.1279380  71.6252230  49.1286490
  89.9464700  71.5647870  38.2642580  89.7865840  71.2750810  39.1624410
  89.7811410  70.7888000  37.7287810  82.4253080  71.3446400  40.0414200
  82.2495560  70.4281940  39.8282000  81.5708820  71.7033690  40.2812000
  89.6490830  69.0735430  36.8240580  88.9555990  69.0712720  36.1642860
  90.3913690  68.6494750  36.3934750  89.2140760  70.6998140  40.8989070
  89.6697710  69.9187520  41.2127690  89.5533280  71.4104960  41.4430250
  93.9617570  59.6296990  51.2313510  93.3461840  60.1376660  50.7028970
  93.6413990  58.7295320  51.1739450  76.9643310  66.4714600  48.0579810
  77.1274350  66.0019960  47.2399180  77.4295760  65.9638160  48.7228650
  81.7362080  55.6020360  43.0940380  81.2930230  56.3829900  42.7624900
  82.2947070  55.9250250  43.8011320  86.0231890  58.4688880  48.6975700
  85.5611260  58.6771900  49.5095640  85.6210000  57.6548230  48.3946370
  91.0236400  59.6897830  49.8272360  90.1729990  59.3903580  50.1481430
  90.8638190  59.9339840  48.9156180  88.1186110  61.1899580  51.9271150
  88.4439520  60.3563330  51.5873380  88.9066440  61.7128100  52.0749480
  84.8520900  55.2231060  37.9746210  84.2275080  55.2190930  38.6999520
  84.7651020  54.3562020  37.5782180  83.7737980  56.1467690  44.9529980
  84.0710310  57.0530520  44.8722000  84.3223540  55.6586470  44.3389550
  81.5276300  60.7253930  40.8221630  81.3017220  60.5091100  41.7268250
  80.7468830  61.1582390  40.4767600  88.7574060  60.7317300  39.4212280
  88.1582950  61.4553100  39.2375900  89.3053670  60.6694080  38.6388730
  83.9675510  61.6239510  51.4881900  83.8719110  60.6834240  51.3382300
  84.8107490  61.8454580  51.0929970  87.3638930  59.3680840  41.4515560
  87.7568500  59.6853040  40.6384250  87.7255780  58.4892720  41.5660080
  79.0986050  58.0353180  49.6415680  78.7049440  58.8828390  49.8488460
  78.4104450  57.3979550  49.8324320  85.6731100  58.1188150  52.7112420
  84.9829420  57.9260350  53.3458510  86.4163400  58.4022790  53.2436720
  76.4003100  55.9581640  43.6745760  76.1116150  56.5284500  44.3870740
  77.1448860  55.4786090  44.0376990  76.5873330  59.9001760  34.8848480
  76.5048000  60.8432520  35.0263470  76.2356390  59.7576670  34.0060830
  87.9494070  61.9586590  45.5466340  87.2175190  62.4673400  45.8956440
  87.5518410  61.1416570  45.2455120  84.3871460  58.6340790  43.9518830
  84.3907520  58.1930740  43.1023370  85.2822580  58.9558120  44.0590650
  80.2373840  58.5167280  42.9113040  79.8973890  58.9942510  43.6680090
  79.4751160  58.0632400  42.5514140  84.4491610  59.6352870  36.9425590
  84.5704430  59.5939350  37.8911410  84.0640120  60.4977020  36.7872320
  88.4119980  57.4120270  44.9589280  88.4292720  57.8628920  45.8031130
  88.1635560  56.5125910  45.1722720  83.4613110  61.9454010  36.3408890
  82.8930010  61.4972260  35.7144800  84.1702110  62.3046790  35.8074040
  91.8390730  54.8252450  50.7975660  92.1636500  54.0942110  51.3233640
  91.8747240  54.5066090  49.8956650  78.5382290  65.8466030  50.2175620
  78.1537080  65.2059700  50.8158580  78.8494480  66.5502150  50.7870350
  84.6879430  62.6942570  45.6984240  85.0549560  62.2201140  46.4445580
  84.4984490  63.5684140  46.0392580  77.5519920  57.4386260  41.8277710
  77.2666840  57.0741930  42.6656330  77.4898780  56.7066720  41.2140850
  82.4778800  61.7351210  48.0168450  82.1735870  62.6143190  48.2418810
  83.4325260  61.7951000  48.0525890  81.0060590  65.9412200  38.6135300
  80.2322850  65.4009820  38.4534020  81.7355220  65.4218810  38.2753060
  91.7648570  64.9377560  44.4061690  92.4847690  65.4332850  44.0157800
  91.5630390  64.2595450  43.7615560  87.2258510  56.3315520  38.5491080
  86.4123120  55.8328690  38.4736390  87.0320460  57.1713770  38.1327430
  87.1467370  65.0086620  50.2930690  87.0804680  64.0882290  50.0388280
  86.5172510  65.1062060  51.0075330  89.9406900  60.7035170  36.8453240
  90.8286520  61.0152400  36.6704580  89.9111990  59.8307420  36.4533820
  81.0497990  65.6092580  42.2514110  81.5676660  64.8060840  42.1971000
  80.5982010  65.5471720  43.0930940  85.9367490  66.8758860  37.5241410
  86.2783190  67.6201090  37.0284730  85.1080200  67.1889980  37.8866240
  78.5342530  62.5753950  49.1639810  78.1757470  63.2407800  49.7513150
  78.2397090  61.7437500  49.5352430  81.7355650  63.0338190  52.0479360
  81.4355790  63.1795370  51.1507180  82.5066890  62.4743480  51.9552750
  87.0784100  67.8307190  50.0434490  87.0928640  66.8988150  49.8253400
  86.3709200  67.9166950  50.6824260  92.2121170  62.0147010  36.3133100
  92.1284890  62.4461230  35.4629540  92.9315360  62.4745360  36.7459920
  93.2895310  64.4714530  49.3903070  92.5643500  65.0643310  49.1932460
  93.8170770  64.4638070  48.5916440  93.2408420  68.8689270  39.0415230
  92.5984580  68.2144890  39.3158950  92.8539080  69.2744360  38.2655900
  88.8194900  66.1974700  42.8886920  89.1718720  65.6002830  42.2288290
  87.9357230  65.8718930  43.0595170  84.9058180  66.9572390  40.2957330
  85.5929310  67.5041600  40.6764920  84.1190600  67.5013120  40.3306940
  77.0450580  62.5745210  35.7874410  77.9145430  62.8570010  36.0710330
  76.5540900  63.3881080  35.6723220  84.2085390  63.9618420  39.9082690
  84.6648170  64.7723670  40.1342880  83.8573600  63.6441560  40.7401180
  86.5118000  69.4724760  47.1374990  87.1560220  69.6784140  47.8148410
  86.8747440  68.7113160  46.6845840  80.1097170  54.3056070  40.3805210
  79.9811800  54.2973970  41.3290130  79.2859190  54.6439160  40.0296220
  87.7850080  67.4757110  45.8552440  88.4272310  66.7750270  45.9684610
  88.3099430  68.2555550  45.6749330  91.6305800  67.7605730  35.5791580
  91.4043380  67.0436170  36.1716220  91.2402000  67.5118170  34.7413330
  89.5587700  68.2752010  49.0588500  89.8943940  68.8618700  49.7366420
  88.6388040  68.1444720  49.2886290  77.4121830  71.7872590  36.3536040
  77.7719470  72.3861930  35.6993310  77.2714170  72.3332480  37.1271070
  77.1091100  56.0647190  49.8411910  76.3949620  56.2644110  50.4464520
  77.5286140  55.2886760  50.2126710  91.2122050  65.6777670  37.2405740
  90.9243750  66.1390360  38.0283620  92.0074220  65.2175440  37.5089960
  77.3963690  70.0527450  50.8278440  77.5054810  69.1122190  50.6873830
  76.7444250  70.3182200  50.1792170  85.3876280  68.3243340  52.2276560
  85.0673150  67.6052580  52.7722250  84.7134640  68.9998410  52.3012620
  83.4290450  69.1703790  37.1709710  83.4200550  69.9033480  36.5554220
  82.5088810  68.9235370  37.2636670  79.0297090  64.3918680  37.9156470
  78.4225040  65.1317580  37.9251770  79.5046440  64.4818040  37.0894670
  88.6029880  58.5569500  47.5913360  88.9710700  57.7364710  47.9192930
  87.7428080  58.6171390  48.0069010  91.9691910  57.5126440  38.4000920
  91.3405070  57.6172110  37.6859150  91.4743830  57.7323220  39.1894800
  86.4150050  69.2332030  35.8334900  86.5162030  69.0296020  34.9036880
  85.5151790  68.9790310  36.0382680  83.9375940  59.7912390  39.8158800
  83.2292090  60.2598730  40.2572410  84.2220420  59.1334400  40.4503990
  85.5631870  61.2109090  47.8151330  86.0617120  61.6854910  48.4803180
  85.7054820  60.2872610  48.0221360  87.9691370  56.5163050  41.2554590
  87.8459150  56.5349180  40.3064100  88.9175930  56.5641990  41.3752990
  85.0568160  71.7518350  40.5282570  85.3109660  71.7139740  39.6061940
  84.1080640  71.6251680  40.5210820  82.1410960  58.0997470  37.1909510
  82.9901490  58.5367620  37.1249700  81.7742230  58.4117730  38.0181570
  92.7698730  57.4277050  48.6579720  92.2672330  58.1682450  48.9973530
  93.5855390  57.8161050  48.3416510  91.0620740  62.6710230  42.1041080
  90.1210880  62.6860460  42.2788770  91.3764810  61.8846190  42.5501380
  81.0402380  64.3529830  35.6645040  81.8065650  64.2411190  36.2270470
  81.1177070  63.6567800  35.0121810  79.7349140  61.7854900  36.3477930
  79.8152730  60.8382410  36.4595330  80.6268890  62.1161780  36.4538590
  93.0646320  69.8419080  43.7795340  93.1893740  70.6650250  44.2519150
  93.9311880  69.6309810  43.4319490  80.5363850  71.9350290  43.4512470
  81.2726330  71.3865750  43.7221040  80.9204770  72.8006300  43.3118460
  77.4209330  68.0023860  39.3253980  76.4949110  68.2445000  39.3159390
  77.8865760  68.8298120  39.2038730  79.5422130  71.1196360  52.6398050
  80.3434860  71.4408410  53.0533450  79.0273950  70.7591940  53.3617960
  83.6466160  71.1080600  35.2738040  84.4394770  71.3969430  34.8219830
  83.1270510  70.6772770  34.5950520  88.3786760  67.2276230  52.5873460
  87.7724920  67.2507830  51.8469210  88.0740870  66.4959270  53.1240710
  89.8087130  70.9556520  51.1982870  90.7608880  70.8714540  51.1483110
  89.6615350  71.6198230  51.8716660  92.6996330  70.3350730  36.6974780
  92.4137840  69.9215870  35.8828960  92.5015880  71.2638440  36.5775300
  77.2619940  63.6069820  51.5834100  77.7658960  63.0277100  52.1550330
  76.5227360  63.8910050  52.1210470  84.1643560  66.3284010  35.1380390
  84.0594200  65.7136360  35.8641770  83.9967780  65.8049900  34.3543400
  84.3157880  65.0140810  51.1169620  83.5503550  65.5825810  51.0324290
  84.4973840  64.7217020  50.2237850  87.4046290  65.3904040  35.7422380
  86.8556390  65.8373340  36.3865120  88.0265550  64.8853290  36.2660050
  91.4581230  66.7446140  51.6744640  92.1990700  67.0821900  51.1712100
  90.6953910  66.9138200  51.1214410  79.2943020  61.7499410  52.4784170
  79.3348360  61.4513280  53.3869400  80.1488520  62.1507020  52.3191690
  83.0721410  64.3494960  37.6387680  83.4937830  64.1834830  38.4819070
  83.1972250  63.5395190  37.1442820  81.2348830  60.3291510  50.4458660
  80.7045290  59.8382460  49.8182000  81.9036900  60.7575710  49.9116590
  85.5849050  63.3732570  34.8864780  86.1054710  62.6581590  34.5205930
  86.2317450  64.0118440  35.1865290  90.1326890  64.7960970  50.2099850
  90.5467910  64.9506050  51.0590270  89.1977890  64.9216190  50.3725630
  90.6049060  62.1357130  52.2139000  91.1869830  61.3809450  52.1259480
  90.7810830  62.6664570  51.4370480  81.7221130  57.2953880  50.5255950
  81.6278000  56.6774630  49.8006820  81.1418520  58.0220170  50.2985860
  84.4882570  55.8527120  47.5583340  84.0399870  55.8751380  46.7128890
  83.8547770  55.4546140  48.1553640  84.8942120  64.7481450  48.1795780
  85.3130230  65.5914180  48.0072020  83.9750750  64.8853490  47.9502560
  87.2306020  62.4797630  49.5633620  87.3502230  61.8838770  50.3028460
  88.0900020  62.5167320  49.1434920  89.5693920  63.0334820  48.1396130
  89.0429140  63.5577440  47.5361270  89.9125260  63.6662210  48.7705860
  81.9680310  60.4228190  34.5845840  81.7669370  59.5595550  34.9459180
  81.7972360  60.3361550  33.6467440  82.7449540  71.0534460  49.2953510
  82.2070630  71.7780520  48.9762210  82.9983500  70.5764800  48.5050850
  83.9974790  59.0218980  50.8209440  84.5874480  58.7134830  51.5087260
  83.1795030  58.5498730  50.9769340  88.8168220  58.6384790  51.0542460
  88.1283740  57.9766330  50.9892450  89.5374240  58.1923060  51.4990920
  89.4468620  55.2336420  37.1132720  89.7270910  54.3904320  37.4692140
  88.6734350  55.4659530  37.6271470  85.6011750  72.2885670  49.5540160
  85.5270450  73.1920810  49.8612530  84.6990590  71.9697570  49.5262230
  83.9848040  56.4663430  35.5579920  83.6370040  55.7887420  34.9782370
  84.1860810  56.0052940  36.3723310  86.1497080  71.4544180  37.1766520
  87.0447870  71.7929150  37.1985280  86.1814710  70.7323590  36.5490800
  79.7893240  66.8271230  35.4053520  80.2268110  67.3700900  36.0611100
  80.2740970  66.0018180  35.4149860  77.0039040  69.6160260  42.8573780
  77.3342050  68.7481320  42.6252420  77.4330040  69.8218780  43.6878740
  81.6000960  67.9469270  40.5175750  81.2996500  67.8234240  41.4179660
  81.4938450  67.0877860  40.1091480  77.4929250  70.4830850  45.5955410
  77.0560240  70.6631650  46.4279560  78.0606930  71.2405470  45.4537130
  93.1291430  69.9847850  49.8832720  92.5293420  70.0440410  49.1396640
  93.2585330  69.0452830  50.0129570  94.3692880  67.7265670  35.2202430
  93.5385840  67.7942320  35.6909660  94.5464710  68.6169790  34.9169290
  93.8249340  64.4713150  37.7236630  94.5868250  65.0409800  37.8296320
  93.8403710  63.9040350  38.4944940  77.3253680  62.9951080  41.9544290
  76.6702520  62.7262720  41.3103990  78.1631630  62.8855560  41.5046270
  94.8309310  65.3263250  42.5678560  95.2018140  64.5430570  42.1614530
  95.4711240  66.0152350  42.3895860  91.8143070  66.7099830  47.9808880
  91.0002910  67.1396990  48.2434670  92.2217270  67.3218240  47.3677930
  93.8768510  64.7647520  34.8809150  94.1517350  65.6726400  34.7528370
  93.6879250  64.7010050  35.8171140  90.2744120  57.7892370  36.1762780
  90.6929000  57.6023350  35.3359440  89.9680180  56.9371420  36.4865710
  93.7733850  62.7016510  39.8738580  93.3977450  61.9344440  39.4419870
  93.0436970  63.0839210  40.3613510  78.3629610  63.3803650  46.4947630
  78.7302650  63.2931050  47.3743650  77.7940430  62.6170200  46.3954490
  93.1633470  61.8488030  49.5078100  92.9319560  61.6200780  48.6076050
  93.4238020  62.7687580  49.4622990  77.9145610  60.2912740  50.4006050
  77.0201660  60.2579500  50.7399760  78.4543160  60.4899530  51.1657300
  91.6021540  57.0744460  52.2857800  92.4791720  57.0827860  52.6691800
  91.6142380  56.3375300  51.6750150  76.5391760  60.2050010  37.8969620
  75.6355840  60.4680210  37.7221280  77.0232380  60.4761180  37.1169580
  93.0484810  60.9274000  43.1745820  93.5722290  60.4336650  42.5435990
  93.6344230  61.0624360  43.9193390  93.2274530  61.0113870  46.6965370
  92.2777240  60.9777410  46.8110360  93.4087540  61.9213980  46.4615140
  79.0818970  59.2615550  35.8064000  79.7910670  58.8398770  35.3211280
  78.3658910  59.3290780  35.1747350  78.7293130  55.3154880  34.8466650
  79.4521260  55.8563820  35.1647870  79.0017650  55.0418300  33.9708190
  92.5384780  60.1847350  39.1138230  93.0343900  59.9518220  39.8987110
  92.3400850  59.3459190  38.6975870  78.4185320  54.5661070  44.7489270
  79.0661510  54.0158450  44.3084430  78.8387160  54.8204220  45.5705080
  93.9671940  58.8208300  41.6475910  93.8571220  58.6664340  42.5858180
  94.7279530  58.2929240  41.4051320  92.3137660  54.7602430  48.1058910
  92.9509880  55.3736570  48.4718100  92.4612550  54.7963090  47.1608140
  94.8562210  56.6516220  34.8882050  95.7811520  56.5197400  34.6800340
  94.8338000  56.7309040  35.8418500  94.9300700  57.4226880  37.5138760
  94.1352200  57.3572000  38.0431670  95.1343980  58.3577520  37.5024110
  91.8719120  71.4618430  41.5077150  92.4678190  71.1403000  40.8311570
  92.1297270  70.9890250  42.2990420  78.1717320  54.7216740  47.4914590
  77.8232140  55.1780560  48.2572770  77.8405020  53.8273870  47.5737020
  79.7781690  67.8936340  51.6567780  79.7351320  67.5229250  52.5382240
  79.9092700  68.8313910  51.7969600  83.4787720  69.4495930  47.2577500
  83.2379080  69.7170490  46.3708020  84.4190360  69.6201660  47.3128360
  85.6842140  55.9128620  51.0134010  85.6231030  56.5050450  51.7629420
  86.6242520  55.8054580  50.8684270  88.3216700  55.5698680  50.6526300
  88.9357110  55.8877970  49.9907380  88.8666260  55.0847270  51.2722160
  94.7391880  71.4690310  48.0588140  94.2450160  71.8659180  47.3415270
  94.1305170  70.8439520  48.4525420  78.8437960  54.2492940  50.7665360
  79.3920950  54.0680990  50.0031470  78.9093270  53.4587050  51.3021670
  79.6169720  70.8398590  48.7765560  79.0230040  70.7083290  49.5155600
  79.6093560  70.0036730  48.3107660  89.0624740  54.1330820  46.9795590
  88.1884580  54.4665930  46.7768520  88.9535490  53.6604000  47.8047460
  89.9696720  56.3401690  48.3637310  89.6410080  55.5253450  47.9839040
  90.9179020  56.2971500  48.2403000  92.4231330  72.1113730  45.3374880
  91.9634300  72.8629540  44.9632900  91.7943790  71.3920200  45.2789680
  79.2481950  68.2056970  47.7273600  78.5216010  67.5862260  47.6599550
  79.3091100  68.5997580  46.8571680  82.8527050  70.4201970  44.5123010
  83.3692070  69.8089330  43.9871270  83.5024430  70.9230750  45.0034020
  85.5922550  71.3110460  45.3391990  85.8800360  71.0564760  44.4625000
  86.1045770  70.7587820  45.9297560  86.8099560  55.0500660  45.9188500
  86.0271350  55.5246160  46.1985260  86.5162490  54.1455490  45.8101680
  91.3620630  55.7523760  43.9637590  91.8028720  55.6968860  43.1159190
  91.0928220  56.6681770  44.0347770  93.2259200  55.3839000  41.9746410
  93.1647600  54.4400220  41.8277430  94.0051230  55.4919090  42.5199870
  77.5311950  71.5231360  40.9370360  77.3633990  70.8902040  41.6352250
  76.6646460  71.7290760  40.5864550  78.1539970  55.3548140  38.4402220
  78.9119330  55.4677020  37.8666250  77.6917140  56.1917340  38.3945650
  84.6953780  57.4687410  41.4304530  83.8828290  57.0944300  41.0900410
  85.1995420  56.7132490  41.7325720  89.1978760  54.1329860  42.6687600
  89.8008130  54.7050070  43.1436120  88.4571750  54.6969300  42.4461500
  92.3413360  54.5351420  37.9427880  92.5363990  55.4334870  38.2095310
  91.5543230  54.3038500  38.4360830  79.1374650  70.2164590  38.3820500
  78.6122270  70.5972620  37.6782460  79.0619230  70.8415360  39.1030210
  80.5265120  55.8812190  36.9804190  81.0557880  55.0941990  36.8512140
  81.1593440  56.5603380  37.2139720  82.7202960  55.6187330  40.0349580
  82.0905700  54.9174640  40.2019710  82.1808100  56.3791460  39.8182740
  85.6594910  72.2326560  52.7060190  86.5862220  71.9970830  52.7496150
  85.6445340  73.0598560  52.2246220  93.8939970  71.7752130  39.7034440
  94.0692160  71.0889870  39.0595360  93.1961540  72.2999180  39.3111110
  82.8458520  54.8971310  52.4702070  82.5642790  55.4004910  51.7062890
  83.2278220  54.0993060  52.1044200  81.7367620  72.1646970  37.2569750
  82.4686440  71.8806250  36.7093640  81.9961290  71.9260250  38.1469130
  80.8982410  68.2811700  37.2616080  80.2691290  68.7496800  37.8101910
  81.0130240  67.4360920  37.6962270  89.4473980  54.3124890  53.0482540
  89.3339430  54.6319500  53.9434060  90.2643720  54.7137400  52.7519820
  92.2272470  71.4596420  52.5301230  93.0197790  70.9645650  52.3227190
  92.5205620  72.1386560  53.1376840  88.3532130  62.3317360  23.4117280
  88.2726180  61.4171970  23.1408990  87.9396550  62.8284430  22.7056990
  86.4850170  64.1096380  25.2926550  85.7092270  63.6296820  25.5825120
  87.1363100  63.4302030  25.1182710  80.5016000  64.4216190  26.1702310
  79.6700880  64.1664900  26.5698820  81.1096980  64.4926960  26.9060230
  90.5057600  68.5156570  24.0725680  90.0439130  67.7443810  24.4012850
  91.3183150  68.5422640  24.5778130  80.4817260  68.4556280  26.3660330
  80.7845300  67.5654020  26.1870550  81.2260850  69.0126500  26.1382580
  78.9107950  59.3818080  19.9544700  78.0224650  59.7234050  19.8524580
  79.1949140  59.1818400  19.0625530  76.8740960  61.9823730  25.8384400
  77.4457070  61.2145930  25.8388040  76.8742500  62.2812490  24.9291010
  86.7320910  70.8014580  23.6929670  86.1132350  71.2572080  23.1224110
  87.5872690  70.9566040  23.2919370  85.9259160  66.7853570  25.2996710
  85.8567440  65.8443510  25.1385840  86.6879020  66.8754980  25.8719280
  78.1165830  57.3908090  27.6253330  77.9368670  56.4933840  27.9056090
  77.7145910  57.9379960  28.3000280  86.9564330  59.5923950  25.5265640
  87.3329150  58.7195830  25.4139310  86.8583840  59.9282650  24.6356080
  81.0869340  57.9649580  20.9883080  81.1936090  58.8653310  21.2951840
  80.1761700  57.9167550  20.6977730  90.7388450  57.0874390  22.4593980
  91.5598070  56.5970960  22.5019460  90.7722530  57.6772050  23.2125820
  78.7352500  59.8868590  26.2335670  79.4162610  60.1506960  26.8523070
  78.4200550  59.0469460  26.5673680  82.9277070  60.9335950  25.3208260
  83.4355290  61.4316920  25.9613280  83.4590310  60.1571150  25.1447620
  95.0288000  59.1041140  29.0237610  94.3240170  59.4922850  28.5052720
  95.2945920  59.7991430  29.6258540  81.2113170  55.5734510  29.5871680
  81.2131610  56.0906900  28.7817580  80.3817480  55.0964690  29.5641610
  87.5984260  65.6853820  21.0861580  86.9801530  66.1503270  20.5224300
  88.1107510  66.3781300  21.5031090  82.4616020  65.2129690  27.7645180
  82.1285400  65.8398610  28.4066250  82.6382700  65.7391570  26.9846850
  90.9749930  59.0274770  25.2321520  90.2705500  59.3159660  25.8124630
  91.3362090  59.8374880  24.8721080  80.8928500  57.2844470  27.5942130
  81.2345310  58.1286520  27.2996000  79.9544310  57.4328210  27.7107470
  81.6735120  67.1810490  29.5794360  82.2909120  67.8561570  29.2978810
  80.8128240  67.5898470  29.4881860  76.9667460  66.3710350  18.4601210
  76.5895440  66.8597450  17.7286110  77.2240530  67.0435630  19.0907740
  92.5912710  68.6449900  27.4949000  91.9076230  69.3149010  27.4865670
  93.1307000  68.8430550  26.7293860  94.0436850  58.4729560  25.6230730
  93.0961760  58.5068540  25.7546160  94.3686840  59.2868510  26.0080090
  84.5756390  54.7726740  23.9186720  84.8831370  54.2173630  23.2022220
  83.6457090  54.9071200  23.7359710  90.1271450  70.4894030  26.2094180
  90.1398610  70.0856320  25.3416440  89.5746670  71.2641320  26.1055610
  91.4216870  67.2110250  21.2984350  91.3113200  66.2684580  21.4233770
  91.4185120  67.5725890  22.1847110  89.5256890  65.3923870  27.5376790
  89.9425680  65.1783980  26.7030250  90.2496710  65.6496660  28.1085410
  86.9637150  62.8375570  20.6546840  86.0366430  62.7712950  20.8835310
  87.1161970  63.7755700  20.5402080  86.9506230  59.1092570  17.6514000
  86.0109900  59.2706530  17.7366460  87.2689490  59.8278250  17.1049990
  93.4718990  63.7911090  27.6293030  92.6437620  63.8604180  27.1543160
  94.0669470  64.3765400  27.1608860  90.9934440  64.3995870  21.1582090
  90.3746860  64.0615420  20.5108390  90.9758890  63.7555630  21.8661280
  90.4361000  60.5780410  28.5747900  90.0232180  61.4034120  28.8287890
  89.7036950  59.9925450  28.3824260  82.5693790  63.3640310  23.4366570
  82.1650790  62.6517560  22.9412470  82.6556910  63.0193550  24.3254610
  83.0375490  67.0507870  25.6005780  82.7403780  66.4453340  24.9213560
  83.9875310  67.0885180  25.4895140  81.2822410  60.1383520  27.2165610
  81.8337000  60.2478860  26.4418860  81.7965920  60.5121120  27.9320840
  91.1261100  70.6239740  29.2628880  90.6491660  71.4311930  29.0701490
  90.4422890  69.9718070  29.4155090  82.1293920  66.7889560  32.2513580
  81.2322450  67.0129530  32.4986980  82.1546790  66.9124500  31.3024980
  89.1699140  63.6382680  18.1654840  89.6092420  62.8005110  18.0192660
  89.8827560  64.2712080  18.2518980  80.9565140  63.6602880  30.8270950
  80.8172910  64.5325680  31.1958350  80.0746500  63.3175690  30.6818890
  87.2794520  68.5778750  22.1336080  87.7190430  69.3203080  21.7191470
  87.2181410  68.8205320  23.0575040  82.7545490  69.6024580  33.0356100
  82.7260920  70.0067530  32.1684530  82.5910460  68.6734940  32.8727700
  92.7516280  54.8925490  16.4795880  92.4388940  54.9852320  17.3794950
  93.5128750  55.4706520  16.4293310  79.2698420  62.2585290  20.9373220
  79.1496020  62.9847380  20.3254490  78.9599310  61.4888200  20.4601130
  94.7060310  70.3851680  34.3320270  95.1820030  70.8634570  35.0109350
  95.3267470  70.3169170  33.6065770  76.9083790  65.4300430  26.7441860
  76.9864210  65.5649200  25.7997580  77.5225470  64.7216320  26.9369980
  78.1531420  67.1300620  23.1548040  77.7459500  67.2715210  22.3001640
  79.0444430  66.8460780  22.9519250  94.1093560  67.5764530  31.4920280
  94.2356620  67.3376410  30.5737460  94.1514940  66.7449070  31.9642360
  87.9710300  71.2792530  30.0615090  88.4854970  71.1900540  30.8637520
  87.1279380  71.6252230  30.3543000  89.9464700  71.5647870  19.4899090
  89.7865840  71.2750810  20.3880920  89.7811410  70.7888000  18.9544320
  82.4253080  71.3446400  21.2670710  82.2495560  70.4281940  21.0538510
  81.5708820  71.7033690  21.5068510  89.6490830  69.0735430  18.0497090
  88.9555990  69.0712720  17.3899370  90.3913690  68.6494750  17.6191260
  89.2140760  70.6998140  22.1245580  89.6697710  69.9187520  22.4384200
  89.5533280  71.4104960  22.6686760  93.9617570  59.6296990  32.4570020
  93.3461840  60.1376660  31.9285480  93.6413990  58.7295320  32.3995960
  76.9643310  66.4714600  29.2836320  77.1274350  66.0019960  28.4655690
  77.4295760  65.9638160  29.9485160  81.7362080  55.6020360  24.3196890
  81.2930230  56.3829900  23.9881410  82.2947070  55.9250250  25.0267830
  86.0231890  58.4688880  29.9232210  85.5611260  58.6771900  30.7352150
  85.6210000  57.6548230  29.6202880  91.0236400  59.6897830  31.0528870
  90.1729990  59.3903580  31.3737940  90.8638190  59.9339840  30.1412690
  88.1186110  61.1899580  33.1527660  88.4439520  60.3563330  32.8129890
  88.9066440  61.7128100  33.3005990  84.8520900  55.2231060  19.2002720
  84.2275080  55.2190930  19.9256030  84.7651020  54.3562020  18.8038690
  83.7737980  56.1467690  26.1786490  84.0710310  57.0530520  26.0978510
  84.3223540  55.6586470  25.5646060  81.5276300  60.7253930  22.0478140
  81.3017220  60.5091100  22.9524760  80.7468830  61.1582390  21.7024110
  88.7574060  60.7317300  20.6468790  88.1582950  61.4553100  20.4632410
  89.3053670  60.6694080  19.8645240  83.9675510  61.6239510  32.7138410
  83.8719110  60.6834240  32.5638810  84.8107490  61.8454580  32.3186480
  87.3638930  59.3680840  22.6772070  87.7568500  59.6853040  21.8640760
  87.7255780  58.4892720  22.7916590  79.0986050  58.0353180  30.8672190
  78.7049440  58.8828390  31.0744970  78.4104450  57.3979550  31.0580830
  85.6731100  58.1188150  33.9368930  84.9829420  57.9260350  34.5715020
  86.4163400  58.4022790  34.4693230  76.4003100  55.9581640  24.9002270
  76.1116150  56.5284500  25.6127250  77.1448860  55.4786090  25.2633500
  76.5873330  59.9001760  16.1104990  76.5048000  60.8432520  16.2519980
  76.2356390  59.7576670  15.2317340  87.9494070  61.9586590  26.7722850
  87.2175190  62.4673400  27.1212950  87.5518410  61.1416570  26.4711630
  84.3871460  58.6340790  25.1775340  84.3907520  58.1930740  24.3279880
  85.2822580  58.9558120  25.2847160  80.2373840  58.5167280  24.1369550
  79.8973890  58.9942510  24.8936600  79.4751160  58.0632400  23.7770650
  84.4491610  59.6352870  18.1682100  84.5704430  59.5939350  19.1167920
  84.0640120  60.4977020  18.0128830  88.4119980  57.4120270  26.1845790
  88.4292720  57.8628920  27.0287640  88.1635560  56.5125910  26.3979230
  83.4613110  61.9454010  17.5665400  82.8930010  61.4972260  16.9401310
  84.1702110  62.3046790  17.0330550  91.8390730  54.8252450  32.0232170
  92.1636500  54.0942110  32.5490150  91.8747240  54.5066090  31.1213160
  78.5382290  65.8466030  31.4432130  78.1537080  65.2059700  32.0415090
  78.8494480  66.5502150  32.0126860  84.6879430  62.6942570  26.9240750
  85.0549560  62.2201140  27.6702090  84.4984490  63.5684140  27.2649090
  77.5519920  57.4386260  23.0534220  77.2666840  57.0741930  23.8912840
  77.4898780  56.7066720  22.4397360  82.4778800  61.7351210  29.2424960
  82.1735870  62.6143190  29.4675320  83.4325260  61.7951000  29.2782400
  81.0060590  65.9412200  19.8391810  80.2322850  65.4009820  19.6790530
  81.7355220  65.4218810  19.5009570  91.7648570  64.9377560  25.6318200
  92.4847690  65.4332850  25.2414310  91.5630390  64.2595450  24.9872070
  87.2258510  56.3315520  19.7747590  86.4123120  55.8328690  19.6992900
  87.0320460  57.1713770  19.3583940  87.1467370  65.0086620  31.5187200
  87.0804680  64.0882290  31.2644790  86.5172510  65.1062060  32.2331840
  89.9406900  60.7035170  18.0709750  90.8286520  61.0152400  17.8961090
  89.9111990  59.8307420  17.6790330  81.0497990  65.6092580  23.4770620
  81.5676660  64.8060840  23.4227510  80.5982010  65.5471720  24.3187450
  85.9367490  66.8758860  18.7497920  86.2783190  67.6201090  18.2541240
  85.1080200  67.1889980  19.1122750  78.5342530  62.5753950  30.3896320
  78.1757470  63.2407800  30.9769660  78.2397090  61.7437500  30.7608940
  81.7355650  63.0338190  33.2735870  81.4355790  63.1795370  32.3763690
  82.5066890  62.4743480  33.1809260  87.0784100  67.8307190  31.2691000
  87.0928640  66.8988150  31.0509910  86.3709200  67.9166950  31.9080770
  92.2121170  62.0147010  17.5389610  92.1284890  62.4461230  16.6886050
  92.9315360  62.4745360  17.9716430  93.2895310  64.4714530  30.6159580
  92.5643500  65.0643310  30.4188970  93.8170770  64.4638070  29.8172950
  93.2408420  68.8689270  20.2671740  92.5984580  68.2144890  20.5415460
  92.8539080  69.2744360  19.4912410  88.8194900  66.1974700  24.1143430
  89.1718720  65.6002830  23.4544800  87.9357230  65.8718930  24.2851680
  84.9058180  66.9572390  21.5213840  85.5929310  67.5041600  21.9021430
  84.1190600  67.5013120  21.5563450  77.0450580  62.5745210  17.0130920
  77.9145430  62.8570010  17.2966840  76.5540900  63.3881080  16.8979730
  84.2085390  63.9618420  21.1339200  84.6648170  64.7723670  21.3599390
  83.8573600  63.6441560  21.9657690  86.5118000  69.4724760  28.3631500
  87.1560220  69.6784140  29.0404920  86.8747440  68.7113160  27.9102350
  80.1097170  54.3056070  21.6061720  79.9811800  54.2973970  22.5546640
  79.2859190  54.6439160  21.2552730  87.7850080  67.4757110  27.0808950
  88.4272310  66.7750270  27.1941120  88.3099430  68.2555550  26.9005840
  91.6305800  67.7605730  16.8048090  91.4043380  67.0436170  17.3972730
  91.2402000  67.5118170  15.9669840  89.5587700  68.2752010  30.2845010
  89.8943940  68.8618700  30.9622930  88.6388040  68.1444720  30.5142800
  77.4121830  71.7872590  17.5792550  77.7719470  72.3861930  16.9249820
  77.2714170  72.3332480  18.3527580  77.1091100  56.0647190  31.0668420
  76.3949620  56.2644110  31.6721030  77.5286140  55.2886760  31.4383220
  91.2122050  65.6777670  18.4662250  90.9243750  66.1390360  19.2540130
  92.0074220  65.2175440  18.7346470  77.3963690  70.0527450  32.0534950
  77.5054810  69.1122190  31.9130340  76.7444250  70.3182200  31.4048680
  85.3876280  68.3243340  33.4533070  85.0673150  67.6052580  33.9978760
  84.7134640  68.9998410  33.5269130  83.4290450  69.1703790  18.3966220
  83.4200550  69.9033480  17.7810730  82.5088810  68.9235370  18.4893180
  79.0297090  64.3918680  19.1412980  78.4225040  65.1317580  19.1508280
  79.5046440  64.4818040  18.3151180  88.6029880  58.5569500  28.8169870
  88.9710700  57.7364710  29.1449440  87.7428080  58.6171390  29.2325520
  91.9691910  57.5126440  19.6257430  91.3405070  57.6172110  18.9115660
  91.4743830  57.7323220  20.4151310  86.4150050  69.2332030  17.0591410
  86.5162030  69.0296020  16.1293390  85.5151790  68.9790310  17.2639190
  83.9375940  59.7912390  21.0415310  83.2292090  60.2598730  21.4828920
  84.2220420  59.1334400  21.6760500  85.5631870  61.2109090  29.0407840
  86.0617120  61.6854910  29.7059690  85.7054820  60.2872610  29.2477870
  87.9691370  56.5163050  22.4811100  87.8459150  56.5349180  21.5320610
  88.9175930  56.5641990  22.6009500  85.0568160  71.7518350  21.7539080
  85.3109660  71.7139740  20.8318450  84.1080640  71.6251680  21.7467330
  82.1410960  58.0997470  18.4166020  82.9901490  58.5367620  18.3506210
  81.7742230  58.4117730  19.2438080  92.7698730  57.4277050  29.8836230
  92.2672330  58.1682450  30.2230040  93.5855390  57.8161050  29.5673020
  91.0620740  62.6710230  23.3297590  90.1210880  62.6860460  23.5045280
  91.3764810  61.8846190  23.7757890  81.0402380  64.3529830  16.8901550
  81.8065650  64.2411190  17.4526980  81.1177070  63.6567800  16.2378320
  79.7349140  61.7854900  17.5734440  79.8152730  60.8382410  17.6851840
  80.6268890  62.1161780  17.6795100  93.0646320  69.8419080  25.0051850
  93.1893740  70.6650250  25.4775660  93.9311880  69.6309810  24.6576000
  80.5363850  71.9350290  24.6768980  81.2726330  71.3865750  24.9477550
  80.9204770  72.8006300  24.5374970  77.4209330  68.0023860  20.5510490
  76.4949110  68.2445000  20.5415900  77.8865760  68.8298120  20.4295240
  79.5422130  71.1196360  33.8654560  80.3434860  71.4408410  34.2789960
  79.0273950  70.7591940  34.5874470  83.6466160  71.1080600  16.4994550
  84.4394770  71.3969430  16.0476340  83.1270510  70.6772770  15.8207030
  88.3786760  67.2276230  33.8129970  87.7724920  67.2507830  33.0725720
  88.0740870  66.4959270  34.3497220  89.8087130  70.9556520  32.4239380
  90.7608880  70.8714540  32.3739620  89.6615350  71.6198230  33.0973170
  92.6996330  70.3350730  17.9231290  92.4137840  69.9215870  17.1085470
  92.5015880  71.2638440  17.8031810  77.2619940  63.6069820  32.8090610
  77.7658960  63.0277100  33.3806840  76.5227360  63.8910050  33.3466980
  84.1643560  66.3284010  16.3636900  84.0594200  65.7136360  17.0898280
  83.9967780  65.8049900  15.5799910  84.3157880  65.0140810  32.3426130
  83.5503550  65.5825810  32.2580800  84.4973840  64.7217020  31.4494360
  87.4046290  65.3904040  16.9678890  86.8556390  65.8373340  17.6121630
  88.0265550  64.8853290  17.4916560  91.4581230  66.7446140  32.9001150
  92.1990700  67.0821900  32.3968610  90.6953910  66.9138200  32.3470920
  79.2943020  61.7499410  33.7040680  79.3348360  61.4513280  34.6125910
  80.1488520  62.1507020  33.5448200  83.0721410  64.3494960  18.8644190
  83.4937830  64.1834830  19.7075580  83.1972250  63.5395190  18.3699330
  81.2348830  60.3291510  31.6715170  80.7045290  59.8382460  31.0438510
  81.9036900  60.7575710  31.1373100  85.5849050  63.3732570  16.1121290
  86.1054710  62.6581590  15.7462440  86.2317450  64.0118440  16.4121800
  90.1326890  64.7960970  31.4356360  90.5467910  64.9506050  32.2846780
  89.1977890  64.9216190  31.5982140  90.6049060  62.1357130  33.4395510
  91.1869830  61.3809450  33.3515990  90.7810830  62.6664570  32.6626990
  84.4882570  55.8527120  28.7839850  84.0399870  55.8751380  27.9385400
  83.8547770  55.4546140  29.3810150  84.8942120  64.7481450  29.4052290
  85.3130230  65.5914180  29.2328530  83.9750750  64.8853490  29.1759070
  87.2306020  62.4797630  30.7890130  87.3502230  61.8838770  31.5284970
  88.0900020  62.5167320  30.3691430  89.5693920  63.0334820  29.3652640
  89.0429140  63.5577440  28.7617780  89.9125260  63.6662210  29.9962370
  81.9680310  60.4228190  15.8102350  81.7669370  59.5595550  16.1715690
  81.7972360  60.3361550  14.8723950  82.7449540  71.0534460  30.5210020
  82.2070630  71.7780520  30.2018720  82.9983500  70.5764800  29.7307360
  83.9974790  59.0218980  32.0465950  84.5874480  58.7134830  32.7343770
  83.1795030  58.5498730  32.2025850  88.8168220  58.6384790  32.2798970
  88.1283740  57.9766330  32.2148960  89.5374240  58.1923060  32.7247430
  89.4468620  55.2336420  18.3389230  89.7270910  54.3904320  18.6948650
  88.6734350  55.4659530  18.8527980  80.7663110  57.5228810  15.7980230
  81.0689010  57.5296240  14.8899380  81.5057700  57.1726670  16.2947890
  85.6011750  72.2885670  30.7796670  85.5270450  73.1920810  31.0869040
  84.6990590  71.9697570  30.7518740  83.9848040  56.4663430  16.7836430
  83.6370040  55.7887420  16.2038880  84.1860810  56.0052940  17.5979820
  86.1497080  71.4544180  18.4023030  87.0447870  71.7929150  18.4241790
  86.1814710  70.7323590  17.7747310  79.7893240  66.8271230  16.6310030
  80.2268110  67.3700900  17.2867610  80.2740970  66.0018180  16.6406370
  77.0039040  69.6160260  24.0830290  77.3342050  68.7481320  23.8508930
  77.4330040  69.8218780  24.9135250  81.6000960  67.9469270  21.7432260
  81.2996500  67.8234240  22.6436170  81.4938450  67.0877860  21.3347990
  77.4929250  70.4830850  26.8211920  77.0560240  70.6631650  27.6536070
  78.0606930  71.2405470  26.6793640  93.1291430  69.9847850  31.1089230
  92.5293420  70.0440410  30.3653150  93.2585330  69.0452830  31.2386080
  94.3692880  67.7265670  16.4458940  93.5385840  67.7942320  16.9166170
  94.5464710  68.6169790  16.1425800  93.8249340  64.4713150  18.9493140
  94.5868250  65.0409800  19.0552830  93.8403710  63.9040350  19.7201450
  77.3253680  62.9951080  23.1800800  76.6702520  62.7262720  22.5360500
  78.1631630  62.8855560  22.7302780  94.8309310  65.3263250  23.7935070
  95.2018140  64.5430570  23.3871040  95.4711240  66.0152350  23.6152370
  91.8143070  66.7099830  29.2065390  91.0002910  67.1396990  29.4691180
  92.2217270  67.3218240  28.5934440  93.8768510  64.7647520  16.1065660
  94.1517350  65.6726400  15.9784880  93.6879250  64.7010050  17.0427650
  90.2744120  57.7892370  17.4019290  90.6929000  57.6023350  16.5615950
  89.9680180  56.9371420  17.7122220  93.7733850  62.7016510  21.0995090
  93.3977450  61.9344440  20.6676380  93.0436970  63.0839210  21.5870020
  78.3629610  63.3803650  27.7204140  78.7302650  63.2931050  28.6000160
  77.7940430  62.6170200  27.6211000  93.1633470  61.8488030  30.7334610
  92.9319560  61.6200780  29.8332560  93.4238020  62.7687580  30.6879500
  77.9145610  60.2912740  31.6262560  77.0201660  60.2579500  31.9656270
  78.4543160  60.4899530  32.3913810  91.6021540  57.0744460  33.5114310
  92.4791720  57.0827860  33.8948310  91.6142380  56.3375300  32.9006660
  76.5391760  60.2050010  19.1226130  75.6355840  60.4680210  18.9477790
  77.0232380  60.4761180  18.3426090  93.0484810  60.9274000  24.4002330
  93.5722290  60.4336650  23.7692500  93.6344230  61.0624360  25.1449900
  93.2274530  61.0113870  27.9221880  92.2777240  60.9777410  28.0366870
  93.4087540  61.9213980  27.6871650  79.0818970  59.2615550  17.0320510
  79.7910670  58.8398770  16.5467790  78.3658910  59.3290780  16.4003860
  78.7293130  55.3154880  16.0723160  79.4521260  55.8563820  16.3904380
  79.0017650  55.0418300  15.1964700  92.5384780  60.1847350  20.3394740
  93.0343900  59.9518220  21.1243620  92.3400850  59.3459190  19.9232380
  78.4185320  54.5661070  25.9745780  79.0661510  54.0158450  25.5340940
  78.8387160  54.8204220  26.7961590  93.9671940  58.8208300  22.8732420
  93.8571220  58.6664340  23.8114690  94.7279530  58.2929240  22.6307830
  92.3137660  54.7602430  29.3315420  92.9509880  55.3736570  29.6974610
  92.4612550  54.7963090  28.3864650  94.8562210  56.6516220  16.1138560
  95.7811520  56.5197400  15.9056850  94.8338000  56.7309040  17.0675010
  94.9300700  57.4226880  18.7395270  94.1352200  57.3572000  19.2688180
  95.1343980  58.3577520  18.7280620  91.8719120  71.4618430  22.7333660
  92.4678190  71.1403000  22.0568080  92.1297270  70.9890250  23.5246930
  78.1717320  54.7216740  28.7171100  77.8232140  55.1780560  29.4829280
  77.8405020  53.8273870  28.7993530  79.7781690  67.8936340  32.8824290
  79.7351320  67.5229250  33.7638750  79.9092700  68.8313910  33.0226110
  83.4787720  69.4495930  28.4834010  83.2379080  69.7170490  27.5964530
  84.4190360  69.6201660  28.5384870  85.6842140  55.9128620  32.2390520
  85.6231030  56.5050450  32.9885930  86.6242520  55.8054580  32.0940780
  88.3216700  55.5698680  31.8782810  88.9357110  55.8877970  31.2163890
  88.8666260  55.0847270  32.4978670  94.7391880  71.4690310  29.2844650
  94.2450160  71.8659180  28.5671780  94.1305170  70.8439520  29.6781930
  78.8437960  54.2492940  31.9921870  79.3920950  54.0680990  31.2287980
  78.9093270  53.4587050  32.5278180  79.6169720  70.8398590  30.0022070
  79.0230040  70.7083290  30.7412110  79.6093560  70.0036730  29.5364170
  89.0624740  54.1330820  28.2052100  88.1884580  54.4665930  28.0025030
  88.9535490  53.6604000  29.0303970  89.9696720  56.3401690  29.5893820
  89.6410080  55.5253450  29.2095550  90.9179020  56.2971500  29.4659510
  92.4231330  72.1113730  26.5631390  91.9634300  72.8629540  26.1889410
  91.7943790  71.3920200  26.5046190  79.2481950  68.2056970  28.9530110
  78.5216010  67.5862260  28.8856060  79.3091100  68.5997580  28.0828190
  82.8527050  70.4201970  25.7379520  83.3692070  69.8089330  25.2127780
  83.5024430  70.9230750  26.2290530  85.5922550  71.3110460  26.5648500
  85.8800360  71.0564760  25.6881510  86.1045770  70.7587820  27.1554070
  86.8099560  55.0500660  27.1445010  86.0271350  55.5246160  27.4241770
  86.5162490  54.1455490  27.0358190  91.3620630  55.7523760  25.1894100
  91.8028720  55.6968860  24.3415700  91.0928220  56.6681770  25.2604280
  93.2259200  55.3839000  23.2002920  93.1647600  54.4400220  23.0533940
  94.0051230  55.4919090  23.7456380  77.5311950  71.5231360  22.1626870
  77.3633990  70.8902040  22.8608760  76.6646460  71.7290760  21.8121060
  78.1539970  55.3548140  19.6658730  78.9119330  55.4677020  19.0922760
  77.6917140  56.1917340  19.6202160  84.6953780  57.4687410  22.6561040
  83.8828290  57.0944300  22.3156920  85.1995420  56.7132490  22.9582230
  89.1978760  54.1329860  23.8944110  89.8008130  54.7050070  24.3692630
  88.4571750  54.6969300  23.6718010  92.3413360  54.5351420  19.1684390
  92.5363990  55.4334870  19.4351820  91.5543230  54.3038500  19.6617340
  79.1374650  70.2164590  19.6077010  78.6122270  70.5972620  18.9038970
  79.0619230  70.8415360  20.3286720  80.5265120  55.8812190  18.2060700
  81.0557880  55.0941990  18.0768650  81.1593440  56.5603380  18.4396230
  82.7202960  55.6187330  21.2606090  82.0905700  54.9174640  21.4276220
  82.1808100  56.3791460  21.0439250  85.6594910  72.2326560  33.9316700
  86.5862220  71.9970830  33.9752660  85.6445340  73.0598560  33.4502730
  93.8939970  71.7752130  20.9290950  94.0692160  71.0889870  20.2851870
  93.1961540  72.2999180  20.5367620  81.7367620  72.1646970  18.4826260
  82.4686440  71.8806250  17.9350150  81.9961290  71.9260250  19.3725640
  80.8982410  68.2811700  18.4872590  80.2691290  68.7496800  19.0358420
  81.0130240  67.4360920  18.9218780  89.4473980  54.3124890  34.2739050
  89.3339430  54.6319500  35.1690570  90.2643720  54.7137400  33.9776330
  92.2272470  71.4596420  33.7557740  93.0197790  70.9645650  33.5483700
  92.5205620  72.1386560  34.3633350  88.3532130  62.3317360   4.6373790
  88.2726180  61.4171970   4.3665500  87.9396550  62.8284430   3.9313500
  86.4850170  64.1096380   6.5183060  85.7092270  63.6296820   6.8081630
  87.1363100  63.4302030   6.3439220  80.5016000  64.4216190   7.3958820
  79.6700880  64.1664900   7.7955330  81.1096980  64.4926960   8.1316740
  90.5057600  68.5156570   5.2982190  90.0439130  67.7443810   5.6269360
  91.3183150  68.5422640   5.8034640  80.4817260  68.4556280   7.5916840
  80.7845300  67.5654020   7.4127060  81.2260850  69.0126500   7.3639090
  76.8740960  61.9823730   7.0640910  77.4457070  61.2145930   7.0644550
  76.8742500  62.2812490   6.1547520  86.7320910  70.8014580   4.9186180
  86.1132350  71.2572080   4.3480620  87.5872690  70.9566040   4.5175880
  85.9259160  66.7853570   6.5253220  85.8567440  65.8443510   6.3642350
  86.6879020  66.8754980   7.0975790  78.1165830  57.3908090   8.8509840
  77.9368670  56.4933840   9.1312600  77.7145910  57.9379960   9.5256790
  86.9564330  59.5923950   6.7522150  87.3329150  58.7195830   6.6395820
  86.8583840  59.9282650   5.8612590  81.0869340  57.9649580   2.2139590
  81.1936090  58.8653310   2.5208350  80.1761700  57.9167550   1.9234240
  90.7388450  57.0874390   3.6850490  91.5598070  56.5970960   3.7275970
  90.7722530  57.6772050   4.4382330  78.7352500  59.8868590   7.4592180
  79.4162610  60.1506960   8.0779580  78.4200550  59.0469460   7.7930190
  82.9277070  60.9335950   6.5464770  83.4355290  61.4316920   7.1869790
  83.4590310  60.1571150   6.3704130  95.0288000  59.1041140  10.2494120
  94.3240170  59.4922850   9.7309230  95.2945920  59.7991430  10.8515050
  81.2113170  55.5734510  10.8128190  81.2131610  56.0906900  10.0074090
  80.3817480  55.0964690  10.7898120  87.5984260  65.6853820   2.3118090
  86.9801530  66.1503270   1.7480810  88.1107510  66.3781300   2.7287600
  82.4616020  65.2129690   8.9901690  82.1285400  65.8398610   9.6322760
  82.6382700  65.7391570   8.2103360  90.9749930  59.0274770   6.4578030
  90.2705500  59.3159660   7.0381140  91.3362090  59.8374880   6.0977590
  80.8928500  57.2844470   8.8198640  81.2345310  58.1286520   8.5252510
  79.9544310  57.4328210   8.9363980  81.6735120  67.1810490  10.8050870
  82.2909120  67.8561570  10.5235320  80.8128240  67.5898470  10.7138370
  92.5912710  68.6449900   8.7205510  91.9076230  69.3149010   8.7122180
  93.1307000  68.8430550   7.9550370  94.0436850  58.4729560   6.8487240
  93.0961760  58.5068540   6.9802670  94.3686840  59.2868510   7.2336600
  84.5756390  54.7726740   5.1443230  84.8831370  54.2173630   4.4278730
  83.6457090  54.9071200   4.9616220  90.1271450  70.4894030   7.4350690
  90.1398610  70.0856320   6.5672950  89.5746670  71.2641320   7.3312120
  91.4216870  67.2110250   2.5240860  91.3113200  66.2684580   2.6490280
  91.4185120  67.5725890   3.4103620  89.5256890  65.3923870   8.7633300
  89.9425680  65.1783980   7.9286760  90.2496710  65.6496660   9.3341920
  86.9637150  62.8375570   1.8803350  86.0366430  62.7712950   2.1091820
  87.1161970  63.7755700   1.7658590  93.4718990  63.7911090   8.8549540
  92.6437620  63.8604180   8.3799670  94.0669470  64.3765400   8.3865370
  90.9934440  64.3995870   2.3838600  90.3746860  64.0615420   1.7364900
  90.9758890  63.7555630   3.0917790  90.4361000  60.5780410   9.8004410
  90.0232180  61.4034120  10.0544400  89.7036950  59.9925450   9.6080770
  82.5693790  63.3640310   4.6623080  82.1650790  62.6517560   4.1668980
  82.6556910  63.0193550   5.5511120  83.0375490  67.0507870   6.8262290
  82.7403780  66.4453340   6.1470070  83.9875310  67.0885180   6.7151650
  81.2822410  60.1383520   8.4422120  81.8337000  60.2478860   7.6675370
  81.7965920  60.5121120   9.1577350  91.1261100  70.6239740  10.4885390
  90.6491660  71.4311930  10.2958000  90.4422890  69.9718070  10.6411600
  82.1293920  66.7889560  13.4770090  81.2322450  67.0129530  13.7243490
  82.1546790  66.9124500  12.5281490  80.9565140  63.6602880  12.0527460
  80.8172910  64.5325680  12.4214860  80.0746500  63.3175690  11.9075400
  87.2794520  68.5778750   3.3592590  87.7190430  69.3203080   2.9447980
  87.2181410  68.8205320   4.2831550  82.7545490  69.6024580  14.2612610
  82.7260920  70.0067530  13.3941040  82.5910460  68.6734940  14.0984210
  94.7060310  70.3851680  15.5576780  95.1820030  70.8634570  16.2365860
  95.3267470  70.3169170  14.8322280  76.9083790  65.4300430   7.9698370
  76.9864210  65.5649200   7.0254090  77.5225470  64.7216320   8.1626490
  78.1531420  67.1300620   4.3804550  77.7459500  67.2715210   3.5258150
  79.0444430  66.8460780   4.1775760  94.1093560  67.5764530  12.7176790
  94.2356620  67.3376410  11.7993970  94.1514940  66.7449070  13.1898870
  87.9710300  71.2792530  11.2871600  88.4854970  71.1900540  12.0894030
  87.1279380  71.6252230  11.5799510  82.4253080  71.3446400   2.4927220
  82.2495560  70.4281940   2.2795020  81.5708820  71.7033690   2.7325020
  89.2140760  70.6998140   3.3502090  89.6697710  69.9187520   3.6640710
  89.5533280  71.4104960   3.8943270  93.9617570  59.6296990  13.6826530
  93.3461840  60.1376660  13.1541990  93.6413990  58.7295320  13.6252470
  76.9643310  66.4714600  10.5092830  77.1274350  66.0019960   9.6912200
  77.4295760  65.9638160  11.1741670  81.7362080  55.6020360   5.5453400
  81.2930230  56.3829900   5.2137920  82.2947070  55.9250250   6.2524340
  86.0231890  58.4688880  11.1488720  85.5611260  58.6771900  11.9608660
  85.6210000  57.6548230  10.8459390  91.0236400  59.6897830  12.2785380
  90.1729990  59.3903580  12.5994450  90.8638190  59.9339840  11.3669200
  88.1186110  61.1899580  14.3784170  88.4439520  60.3563330  14.0386400
  88.9066440  61.7128100  14.5262500  83.7737980  56.1467690   7.4043000
  84.0710310  57.0530520   7.3235020  84.3223540  55.6586470   6.7902570
  81.5276300  60.7253930   3.2734650  81.3017220  60.5091100   4.1781270
  80.7468830  61.1582390   2.9280620  83.9675510  61.6239510  13.9394920
  83.8719110  60.6834240  13.7895320  84.8107490  61.8454580  13.5442990
  87.3638930  59.3680840   3.9028580  87.7568500  59.6853040   3.0897270
  87.7255780  58.4892720   4.0173100  79.0986050  58.0353180  12.0928700
  78.7049440  58.8828390  12.3001480  78.4104450  57.3979550  12.2837340
  85.6731100  58.1188150  15.1625440  84.9829420  57.9260350  15.7971530
  86.4163400  58.4022790  15.6949740  76.4003100  55.9581640   6.1258780
  76.1116150  56.5284500   6.8383760  77.1448860  55.4786090   6.4890010
  87.9494070  61.9586590   7.9979360  87.2175190  62.4673400   8.3469460
  87.5518410  61.1416570   7.6968140  84.3871460  58.6340790   6.4031850
  84.3907520  58.1930740   5.5536390  85.2822580  58.9558120   6.5103670
  80.2373840  58.5167280   5.3626060  79.8973890  58.9942510   6.1193110
  79.4751160  58.0632400   5.0027160  88.4119980  57.4120270   7.4102300
  88.4292720  57.8628920   8.2544150  88.1635560  56.5125910   7.6235740
  91.8390730  54.8252450  13.2488680  92.1636500  54.0942110  13.7746660
  91.8747240  54.5066090  12.3469670  78.5382290  65.8466030  12.6688640
  78.1537080  65.2059700  13.2671600  78.8494480  66.5502150  13.2383370
  84.6879430  62.6942570   8.1497260  85.0549560  62.2201140   8.8958600
  84.4984490  63.5684140   8.4905600  77.5519920  57.4386260   4.2790730
  77.2666840  57.0741930   5.1169350  77.4898780  56.7066720   3.6653870
  82.4778800  61.7351210  10.4681470  82.1735870  62.6143190  10.6931830
  83.4325260  61.7951000  10.5038910  91.7648570  64.9377560   6.8574710
  92.4847690  65.4332850   6.4670820  91.5630390  64.2595450   6.2128580
  87.1467370  65.0086620  12.7443710  87.0804680  64.0882290  12.4901300
  86.5172510  65.1062060  13.4588350  81.0497990  65.6092580   4.7027130
  81.5676660  64.8060840   4.6484020  80.5982010  65.5471720   5.5443960
  78.5342530  62.5753950  11.6152830  78.1757470  63.2407800  12.2026170
  78.2397090  61.7437500  11.9865450  81.7355650  63.0338190  14.4992380
  81.4355790  63.1795370  13.6020200  82.5066890  62.4743480  14.4065770
  87.0784100  67.8307190  12.4947510  87.0928640  66.8988150  12.2766420
  86.3709200  67.9166950  13.1337280  93.2895310  64.4714530  11.8416090
  92.5643500  65.0643310  11.6445480  93.8170770  64.4638070  11.0429460
  88.8194900  66.1974700   5.3399940  89.1718720  65.6002830   4.6801310
  87.9357230  65.8718930   5.5108190  84.9058180  66.9572390   2.7470350
  85.5929310  67.5041600   3.1277940  84.1190600  67.5013120   2.7819960
  84.2085390  63.9618420   2.3595710  84.6648170  64.7723670   2.5855900
  83.8573600  63.6441560   3.1914200  86.5118000  69.4724760   9.5888010
  87.1560220  69.6784140  10.2661430  86.8747440  68.7113160   9.1358860
  80.1097170  54.3056070   2.8318230  79.9811800  54.2973970   3.7803150
  79.2859190  54.6439160   2.4809240  87.7850080  67.4757110   8.3065460
  88.4272310  66.7750270   8.4197630  88.3099430  68.2555550   8.1262350
  89.5587700  68.2752010  11.5101520  89.8943940  68.8618700  12.1879440
  88.6388040  68.1444720  11.7399310  77.1091100  56.0647190  12.2924930
  76.3949620  56.2644110  12.8977540  77.5286140  55.2886760  12.6639730
  77.3963690  70.0527450  13.2791460  77.5054810  69.1122190  13.1386850
  76.7444250  70.3182200  12.6305190  85.3876280  68.3243340  14.6789580
  85.0673150  67.6052580  15.2235270  84.7134640  68.9998410  14.7525640
  88.6029880  58.5569500  10.0426380  88.9710700  57.7364710  10.3705950
  87.7428080  58.6171390  10.4582030  83.9375940  59.7912390   2.2671820
  83.2292090  60.2598730   2.7085430  84.2220420  59.1334400   2.9017010
  85.5631870  61.2109090  10.2664350  86.0617120  61.6854910  10.9316200
  85.7054820  60.2872610  10.4734380  87.9691370  56.5163050   3.7067610
  87.8459150  56.5349180   2.7577120  88.9175930  56.5641990   3.8266010
  85.0568160  71.7518350   2.9795590  85.3109660  71.7139740   2.0574960
  84.1080640  71.6251680   2.9723840  92.7698730  57.4277050  11.1092740
  92.2672330  58.1682450  11.4486550  93.5855390  57.8161050  10.7929530
  91.0620740  62.6710230   4.5554100  90.1210880  62.6860460   4.7301790
  91.3764810  61.8846190   5.0014400  93.0646320  69.8419080   6.2308360
  93.1893740  70.6650250   6.7032170  93.9311880  69.6309810   5.8832510
  80.5363850  71.9350290   5.9025490  81.2726330  71.3865750   6.1734060
  80.9204770  72.8006300   5.7631480  77.4209330  68.0023860   1.7767000
  76.4949110  68.2445000   1.7672410  77.8865760  68.8298120   1.6551750
  79.5422130  71.1196360  15.0911070  80.3434860  71.4408410  15.5046470
  79.0273950  70.7591940  15.8130980  88.3786760  67.2276230  15.0386480
  87.7724920  67.2507830  14.2982230  88.0740870  66.4959270  15.5753730
  89.8087130  70.9556520  13.6495890  90.7608880  70.8714540  13.5996130
  89.6615350  71.6198230  14.3229680  77.2619940  63.6069820  14.0347120
  77.7658960  63.0277100  14.6063350  76.5227360  63.8910050  14.5723490
  84.3157880  65.0140810  13.5682640  83.5503550  65.5825810  13.4837310
  84.4973840  64.7217020  12.6750870  91.4581230  66.7446140  14.1257660
  92.1990700  67.0821900  13.6225120  90.6953910  66.9138200  13.5727430
  79.2943020  61.7499410  14.9297190  79.3348360  61.4513280  15.8382420
  80.1488520  62.1507020  14.7704710  81.2348830  60.3291510  12.8971680
  80.7045290  59.8382460  12.2695020  81.9036900  60.7575710  12.3629610
  90.1326890  64.7960970  12.6612870  90.5467910  64.9506050  13.5103290
  89.1977890  64.9216190  12.8238650  90.6049060  62.1357130  14.6652020
  91.1869830  61.3809450  14.5772500  90.7810830  62.6664570  13.8883500
  81.7221130  57.2953880  12.9768970  81.6278000  56.6774630  12.2519840
  81.1418520  58.0220170  12.7498880  84.4882570  55.8527120  10.0096360
  84.0399870  55.8751380   9.1641910  83.8547770  55.4546140  10.6066660
  84.8942120  64.7481450  10.6308800  85.3130230  65.5914180  10.4585040
  83.9750750  64.8853490  10.4015580  87.2306020  62.4797630  12.0146640
  87.3502230  61.8838770  12.7541480  88.0900020  62.5167320  11.5947940
  89.5693920  63.0334820  10.5909150  89.0429140  63.5577440   9.9874290
  89.9125260  63.6662210  11.2218880  82.7449540  71.0534460  11.7466530
  82.2070630  71.7780520  11.4275230  82.9983500  70.5764800  10.9563870
  83.9974790  59.0218980  13.2722460  84.5874480  58.7134830  13.9600280
  83.1795030  58.5498730  13.4282360  88.8168220  58.6384790  13.5055480
  88.1283740  57.9766330  13.4405470  89.5374240  58.1923060  13.9503940
  85.6011750  72.2885670  12.0053180  85.5270450  73.1920810  12.3125550
  84.6990590  71.9697570  11.9775250  77.0039040  69.6160260   5.3086800
  77.3342050  68.7481320   5.0765440  77.4330040  69.8218780   6.1391760
  81.6000960  67.9469270   2.9688770  81.2996500  67.8234240   3.8692680
  81.4938450  67.0877860   2.5604500  77.4929250  70.4830850   8.0468430
  77.0560240  70.6631650   8.8792580  78.0606930  71.2405470   7.9050150
  93.1291430  69.9847850  12.3345740  92.5293420  70.0440410  11.5909660
  93.2585330  69.0452830  12.4642590  77.3253680  62.9951080   4.4057310
  76.6702520  62.7262720   3.7617010  78.1631630  62.8855560   3.9559290
  94.8309310  65.3263250   5.0191580  95.2018140  64.5430570   4.6127550
  95.4711240  66.0152350   4.8408880  91.8143070  66.7099830  10.4321900
  91.0002910  67.1396990  10.6947690  92.2217270  67.3218240   9.8190950
  93.7733850  62.7016510   2.3251600  93.3977450  61.9344440   1.8932890
  93.0436970  63.0839210   2.8126530  78.3629610  63.3803650   8.9460650
  78.7302650  63.2931050   9.8256670  77.7940430  62.6170200   8.8467510
  93.1633470  61.8488030  11.9591120  92.9319560  61.6200780  11.0589070
  93.4238020  62.7687580  11.9136010  77.9145610  60.2912740  12.8519070
  77.0201660  60.2579500  13.1912780  78.4543160  60.4899530  13.6170320
  91.6021540  57.0744460  14.7370820  92.4791720  57.0827860  15.1204820
  91.6142380  56.3375300  14.1263170  93.0484810  60.9274000   5.6258840
  93.5722290  60.4336650   4.9949010  93.6344230  61.0624360   6.3706410
  93.2274530  61.0113870   9.1478390  92.2777240  60.9777410   9.2623380
  93.4087540  61.9213980   8.9128160  78.4185320  54.5661070   7.2002290
  79.0661510  54.0158450   6.7597450  78.8387160  54.8204220   8.0218100
  93.9671940  58.8208300   4.0988930  93.8571220  58.6664340   5.0371200
  94.7279530  58.2929240   3.8564340  92.3137660  54.7602430  10.5571930
  92.9509880  55.3736570  10.9231120  92.4612550  54.7963090   9.6121160
  91.8719120  71.4618430   3.9590170  92.4678190  71.1403000   3.2824590
  92.1297270  70.9890250   4.7503440  78.1717320  54.7216740   9.9427610
  77.8232140  55.1780560  10.7085790  77.8405020  53.8273870  10.0250040
  79.7781690  67.8936340  14.1080800  79.7351320  67.5229250  14.9895260
  79.9092700  68.8313910  14.2482620  83.4787720  69.4495930   9.7090520
  83.2379080  69.7170490   8.8221040  84.4190360  69.6201660   9.7641380
  85.6842140  55.9128620  13.4647030  85.6231030  56.5050450  14.2142440
  86.6242520  55.8054580  13.3197290  88.3216700  55.5698680  13.1039320
  88.9357110  55.8877970  12.4420400  88.8666260  55.0847270  13.7235180
  94.7391880  71.4690310  10.5101160  94.2450160  71.8659180   9.7928290
  94.1305170  70.8439520  10.9038440  78.8437960  54.2492940  13.2178380
  79.3920950  54.0680990  12.4544490  78.9093270  53.4587050  13.7534690
  79.6169720  70.8398590  11.2278580  79.0230040  70.7083290  11.9668620
  79.6093560  70.0036730  10.7620680  89.0624740  54.1330820   9.4308610
  88.1884580  54.4665930   9.2281540  88.9535490  53.6604000  10.2560480
  89.9696720  56.3401690  10.8150330  89.6410080  55.5253450  10.4352060
  90.9179020  56.2971500  10.6916020  92.4231330  72.1113730   7.7887900
  91.9634300  72.8629540   7.4145920  91.7943790  71.3920200   7.7302700
  79.2481950  68.2056970  10.1786620  78.5216010  67.5862260  10.1112570
  79.3091100  68.5997580   9.3084700  82.8527050  70.4201970   6.9636030
  83.3692070  69.8089330   6.4384290  83.5024430  70.9230750   7.4547040
  85.5922550  71.3110460   7.7905010  85.8800360  71.0564760   6.9138020
  86.1045770  70.7587820   8.3810580  86.8099560  55.0500660   8.3701520
  86.0271350  55.5246160   8.6498280  86.5162490  54.1455490   8.2614700
  91.3620630  55.7523760   6.4150610  91.8028720  55.6968860   5.5672210
  91.0928220  56.6681770   6.4860790  93.2259200  55.3839000   4.4259430
  93.1647600  54.4400220   4.2790450  94.0051230  55.4919090   4.9712890
  77.5311950  71.5231360   3.3883380  77.3633990  70.8902040   4.0865270
  76.6646460  71.7290760   3.0377570  84.6953780  57.4687410   3.8817550
  83.8828290  57.0944300   3.5413430  85.1995420  56.7132490   4.1838740
  89.1978760  54.1329860   5.1200620  89.8008130  54.7050070   5.5949140
  88.4571750  54.6969300   4.8974520  82.7202960  55.6187330   2.4862600
  82.0905700  54.9174640   2.6532730  82.1808100  56.3791460   2.2695760
  85.6594910  72.2326560  15.1573210  86.5862220  71.9970830  15.2009170
  85.6445340  73.0598560  14.6759240  82.8458520  54.8971310  14.9215090
  82.5642790  55.4004910  14.1575910  83.2278220  54.0993060  14.5557220
  89.4473980  54.3124890  15.4995560  89.3339430  54.6319500  16.3947080
  90.2643720  54.7137400  15.2032840  92.2272470  71.4596420  14.9814250
  93.0197790  70.9645650  14.7740210  92.5205620  72.1386560  15.5889860
  88.3532130  43.5573870  79.7347750  88.2726180  42.6428480  79.4639460
  87.9396550  44.0540940  79.0287460  86.4850170  45.3352890  81.6157020
  85.7092270  44.8553330  81.9055590  87.1363100  44.6558540  81.4413180
  80.5016000  45.6472700  82.4932780  79.6700880  45.3921410  82.8929290
  81.1096980  45.7183470  83.2290700  90.5057600  49.7413080  80.3956150
  90.0439130  48.9700320  80.7243320  91.3183150  49.7679150  80.9008600
  80.4817260  49.6812790  82.6890800  80.7845300  48.7910530  82.5101020
  81.2260850  50.2383010  82.4613050  78.9107950  40.6074590  76.2775170
  78.0224650  40.9490560  76.1755050  79.1949140  40.4074910  75.3856000
  76.8740960  43.2080240  82.1614870  77.4457070  42.4402440  82.1618510
  76.8742500  43.5069000  81.2521480  86.7320910  52.0271090  80.0160140
  86.1132350  52.4828590  79.4454580  87.5872690  52.1822550  79.6149840
  85.9259160  48.0110080  81.6227180  85.8567440  47.0700020  81.4616310
  86.6879020  48.1011490  82.1949750  78.1165830  38.6164600  83.9483800
  77.9368670  37.7190350  84.2286560  77.7145910  39.1636470  84.6230750
  86.9564330  40.8180460  81.8496110  87.3329150  39.9452340  81.7369780
  86.8583840  41.1539160  80.9586550  81.0869340  39.1906090  77.3113550
  81.1936090  40.0909820  77.6182310  80.1761700  39.1424060  77.0208200
  90.7388450  38.3130900  78.7824450  91.5598070  37.8227470  78.8249930
  90.7722530  38.9028560  79.5356290  78.7352500  41.1125100  82.5566140
  79.4162610  41.3763470  83.1753540  78.4200550  40.2725970  82.8904150
  82.9277070  42.1592460  81.6438730  83.4355290  42.6573430  82.2843750
  83.4590310  41.3827660  81.4678090  95.0288000  40.3297650  85.3468080
  94.3240170  40.7179360  84.8283190  95.2945920  41.0247940  85.9489010
  81.2113170  36.7991020  85.9102150  81.2131610  37.3163410  85.1048050
  80.3817480  36.3221200  85.8872080  87.5984260  46.9110330  77.4092050
  86.9801530  47.3759780  76.8454770  88.1107510  47.6037810  77.8261560
  82.4616020  46.4386200  84.0875650  82.1285400  47.0655120  84.7296720
  82.6382700  46.9648080  83.3077320  90.9749930  40.2531280  81.5551990
  90.2705500  40.5416170  82.1355100  91.3362090  41.0631390  81.1951550
  80.8928500  38.5100980  83.9172600  81.2345310  39.3543030  83.6226470
  79.9544310  38.6584720  84.0337940  81.6735120  48.4067000  85.9024830
  82.2909120  49.0818080  85.6209280  80.8128240  48.8154980  85.8112330
  76.9667460  47.5966860  74.7831680  76.5895440  48.0853960  74.0516580
  77.2240530  48.2692140  75.4138210  92.5912710  49.8706410  83.8179470
  91.9076230  50.5405520  83.8096140  93.1307000  50.0687060  83.0524330
  94.0436850  39.6986070  81.9461200  93.0961760  39.7325050  82.0776630
  94.3686840  40.5125020  82.3310560  84.5756390  35.9983250  80.2417190
  84.8831370  35.4430140  79.5252690  83.6457090  36.1327710  80.0590180
  90.1271450  51.7150540  82.5324650  90.1398610  51.3112830  81.6646910
  89.5746670  52.4897830  82.4286080  91.4216870  48.4366760  77.6214820
  91.3113200  47.4941090  77.7464240  91.4185120  48.7982400  78.5077580
  89.5256890  46.6180380  83.8607260  89.9425680  46.4040490  83.0260720
  90.2496710  46.8753170  84.4315880  86.9637150  44.0632080  76.9777310
  86.0366430  43.9969460  77.2065780  87.1161970  45.0012210  76.8632550
  86.9506230  40.3349080  73.9744470  86.0109900  40.4963040  74.0596930
  87.2689490  41.0534760  73.4280460  93.4718990  45.0167600  83.9523500
  92.6437620  45.0860690  83.4773630  94.0669470  45.6021910  83.4839330
  90.9934440  45.6252380  77.4812560  90.3746860  45.2871930  76.8338860
  90.9758890  44.9812140  78.1891750  90.4361000  41.8036920  84.8978370
  90.0232180  42.6290630  85.1518360  89.7036950  41.2181960  84.7054730
  82.5693790  44.5896820  79.7597040  82.1650790  43.8774070  79.2642940
  82.6556910  44.2450060  80.6485080  83.0375490  48.2764380  81.9236250
  82.7403780  47.6709850  81.2444030  83.9875310  48.3141690  81.8125610
  81.2822410  41.3640030  83.5396080  81.8337000  41.4735370  82.7649330
  81.7965920  41.7377630  84.2551310  91.1261100  51.8496250  85.5859350
  90.6491660  52.6568440  85.3931960  90.4422890  51.1974580  85.7385560
  89.1699140  44.8639190  74.4885310  89.6092420  44.0261620  74.3423130
  89.8827560  45.4968590  74.5749450  87.2794520  49.8035260  78.4566550
  87.7190430  50.5459590  78.0421940  87.2181410  50.0461830  79.3805510
  92.7516280  36.1182000  72.8026350  92.4388940  36.2108830  73.7025420
  93.5128750  36.6963030  72.7523780  79.2698420  43.4841800  77.2603690
  79.1496020  44.2103890  76.6484960  78.9599310  42.7144710  76.7831600
  76.9083790  46.6556940  83.0672330  76.9864210  46.7905710  82.1228050
  77.5225470  45.9472830  83.2600450  78.1531420  48.3557130  79.4778510
  77.7459500  48.4971720  78.6232110  79.0444430  48.0717290  79.2749720
  89.9464700  52.7904380  75.8129560  89.7865840  52.5007320  76.7111390
  89.7811410  52.0144510  75.2774790  82.4253080  52.5702910  77.5901180
  82.2495560  51.6538450  77.3768980  81.5708820  52.9290200  77.8298980
  89.6490830  50.2991940  74.3727560  88.9555990  50.2969230  73.7129840
  90.3913690  49.8751260  73.9421730  89.2140760  51.9254650  78.4476050
  89.6697710  51.1444030  78.7614670  89.5533280  52.6361470  78.9917230
  81.7362080  36.8276870  80.6427360  81.2930230  37.6086410  80.3111880
  82.2947070  37.1506760  81.3498300  84.8520900  36.4487570  75.5233190
  84.2275080  36.4447440  76.2486500  84.7651020  35.5818530  75.1269160
  83.7737980  37.3724200  82.5016960  84.0710310  38.2787030  82.4208980
  84.3223540  36.8842980  81.8876530  81.5276300  41.9510440  78.3708610
  81.3017220  41.7347610  79.2755230  80.7468830  42.3838900  78.0254580
  88.7574060  41.9573810  76.9699260  88.1582950  42.6809610  76.7862880
  89.3053670  41.8950590  76.1875710  87.3638930  40.5937350  79.0002540
  87.7568500  40.9109550  78.1871230  87.7255780  39.7149230  79.1147060
  76.4003100  37.1838150  81.2232740  76.1116150  37.7541010  81.9357720
  77.1448860  36.7042600  81.5863970  76.5873330  41.1258270  72.4335460
  76.5048000  42.0689030  72.5750450  76.2356390  40.9833180  71.5547810
  87.9494070  43.1843100  83.0953320  87.2175190  43.6929910  83.4443420
  87.5518410  42.3673080  82.7942100  84.3871460  39.8597300  81.5005810
  84.3907520  39.4187250  80.6510350  85.2822580  40.1814630  81.6077630
  80.2373840  39.7423790  80.4600020  79.8973890  40.2199020  81.2167070
  79.4751160  39.2888910  80.1001120  84.4491610  40.8609380  74.4912570
  84.5704430  40.8195860  75.4398390  84.0640120  41.7233530  74.3359300
  88.4119980  38.6376780  82.5076260  88.4292720  39.0885430  83.3518110
  88.1635560  37.7382420  82.7209700  83.4613110  43.1710520  73.8895870
  82.8930010  42.7228770  73.2631780  84.1702110  43.5303300  73.3561020
  84.6879430  43.9199080  83.2471220  85.0549560  43.4457650  83.9932560
  84.4984490  44.7940650  83.5879560  77.5519920  38.6642770  79.3764690
  77.2666840  38.2998440  80.2143310  77.4898780  37.9323230  78.7627830
  82.4778800  42.9607720  85.5655430  82.1735870  43.8399700  85.7905790
  83.4325260  43.0207510  85.6012870  81.0060590  47.1668710  76.1622280
  80.2322850  46.6266330  76.0021000  81.7355220  46.6475320  75.8240040
  91.7648570  46.1634070  81.9548670  92.4847690  46.6589360  81.5644780
  91.5630390  45.4851960  81.3102540  87.2258510  37.5572030  76.0978060
  86.4123120  37.0585200  76.0223370  87.0320460  38.3970280  75.6814410
  89.9406900  41.9291680  74.3940220  90.8286520  42.2408910  74.2191560
  89.9111990  41.0563930  74.0020800  81.0497990  46.8349090  79.8001090
  81.5676660  46.0317350  79.7457980  80.5982010  46.7728230  80.6417920
  85.9367490  48.1015370  75.0728390  86.2783190  48.8457600  74.5771710
  85.1080200  48.4146490  75.4353220  92.2121170  43.2403520  73.8620080
  92.1284890  43.6717740  73.0116520  92.9315360  43.7001870  74.2946900
  93.2408420  50.0945780  76.5902210  92.5984580  49.4401400  76.8645930
  92.8539080  50.5000870  75.8142880  88.8194900  47.4231210  80.4373900
  89.1718720  46.8259340  79.7775270  87.9357230  47.0975440  80.6082150
  84.9058180  48.1828900  77.8444310  85.5929310  48.7298110  78.2251900
  84.1190600  48.7269630  77.8793920  77.0450580  43.8001720  73.3361390
  77.9145430  44.0826520  73.6197310  76.5540900  44.6137590  73.2210200
  84.2085390  45.1874930  77.4569670  84.6648170  45.9980180  77.6829860
  83.8573600  44.8698070  78.2888160  86.5118000  50.6981270  84.6861970
  87.1560220  50.9040650  85.3635390  86.8747440  49.9369670  84.2332820
  80.1097170  35.5312580  77.9292190  79.9811800  35.5230480  78.8777110
  79.2859190  35.8695670  77.5783200  87.7850080  48.7013620  83.4039420
  88.4272310  48.0006780  83.5171590  88.3099430  49.4812060  83.2236310
  91.6305800  48.9862240  73.1278560  91.4043380  48.2692680  73.7203200
  91.2402000  48.7374680  72.2900310  77.4121830  53.0129100  73.9023020
  77.7719470  53.6118440  73.2480290  77.2714170  53.5588990  74.6758050
  91.2122050  46.9034180  74.7892720  90.9243750  47.3646870  75.5770600
  92.0074220  46.4431950  75.0576940  83.4290450  50.3960300  74.7196690
  83.4200550  51.1289990  74.1041200  82.5088810  50.1491880  74.8123650
  79.0297090  45.6175190  75.4643450  78.4225040  46.3574090  75.4738750
  79.5046440  45.7074550  74.6381650  88.6029880  39.7826010  85.1400340
  88.9710700  38.9621220  85.4679910  87.7428080  39.8427900  85.5555990
  91.9691910  38.7382950  75.9487900  91.3405070  38.8428620  75.2346130
  91.4743830  38.9579730  76.7381780  86.4150050  50.4588540  73.3821880
  86.5162030  50.2552530  72.4523860  85.5151790  50.2046820  73.5869660
  83.9375940  41.0168900  77.3645780  83.2292090  41.4855240  77.8059390
  84.2220420  40.3590910  77.9990970  87.9691370  37.7419560  78.8041570
  87.8459150  37.7605690  77.8551080  88.9175930  37.7898500  78.9239970
  85.0568160  52.9774860  78.0769550  85.3109660  52.9396250  77.1548920
  84.1080640  52.8508190  78.0697800  82.1410960  39.3253980  74.7396490
  82.9901490  39.7624130  74.6736680  81.7742230  39.6374240  75.5668550
  91.0620740  43.8966740  79.6528060  90.1210880  43.9116970  79.8275750
  91.3764810  43.1102700  80.0988360  81.0402380  45.5786340  73.2132020
  81.8065650  45.4667700  73.7757450  81.1177070  44.8824310  72.5608790
  79.7349140  43.0111410  73.8964910  79.8152730  42.0638920  74.0082310
  80.6268890  43.3418290  74.0025570  93.0646320  51.0675590  81.3282320
  93.1893740  51.8906760  81.8006130  93.9311880  50.8566320  80.9806470
  80.5363850  53.1606800  80.9999450  81.2726330  52.6122260  81.2708020
  80.9204770  54.0262810  80.8605440  77.4209330  49.2280370  76.8740960
  76.4949110  49.4701510  76.8646370  77.8865760  50.0554630  76.7525710
  83.6466160  52.3337110  72.8225020  84.4394770  52.6225940  72.3706810
  83.1270510  51.9029280  72.1437500  92.6996330  51.5607240  74.2461760
  92.4137840  51.1472380  73.4315940  92.5015880  52.4894950  74.1262280
  84.1643560  47.5540520  72.6867370  84.0594200  46.9392870  73.4128750
  83.9967780  47.0306410  71.9030380  87.4046290  46.6160550  73.2909360
  86.8556390  47.0629850  73.9352100  88.0265550  46.1109800  73.8147030
  83.0721410  45.5751470  75.1874660  83.4937830  45.4091340  76.0306050
  83.1972250  44.7651700  74.6929800  85.5849050  44.5989080  72.4351760
  86.1054710  43.8838100  72.0692910  86.2317450  45.2374950  72.7352270
  84.4882570  37.0783630  85.1070320  84.0399870  37.1007890  84.2615870
  83.8547770  36.6802650  85.7040620  84.8942120  45.9737960  85.7282760
  85.3130230  46.8170690  85.5559000  83.9750750  46.1110000  85.4989540
  81.9680310  41.6484700  72.1332820  81.7669370  40.7852060  72.4946160
  81.7972360  41.5618060  71.1954420  89.4468620  36.4592930  74.6619700
  89.7270910  35.6160830  75.0179120  88.6734350  36.6916040  75.1758450
  80.7663110  38.7485320  72.1210700  81.0689010  38.7552750  71.2129850
  81.5057700  38.3983180  72.6178360  83.9848040  37.6919940  73.1066900
  83.6370040  37.0143930  72.5269350  84.1860810  37.2309450  73.9210290
  86.1497080  52.6800690  74.7253500  87.0447870  53.0185660  74.7472260
  86.1814710  51.9580100  74.0977780  79.7893240  48.0527740  72.9540500
  80.2268110  48.5957410  73.6098080  80.2740970  47.2274690  72.9636840
  77.0039040  50.8416770  80.4060760  77.3342050  49.9737830  80.1739400
  77.4330040  51.0475290  81.2365720  81.6000960  49.1725780  78.0662730
  81.2996500  49.0490750  78.9666640  81.4938450  48.3134370  77.6578460
  77.4929250  51.7087360  83.1442390  77.0560240  51.8888160  83.9766540
  78.0606930  52.4661980  83.0024110  94.3692880  48.9522180  72.7689410
  93.5385840  49.0198830  73.2396640  94.5464710  49.8426300  72.4656270
  93.8249340  45.6969660  75.2723610  94.5868250  46.2666310  75.3783300
  93.8403710  45.1296860  76.0431920  77.3253680  44.2207590  79.5031270
  76.6702520  43.9519230  78.8590970  78.1631630  44.1112070  79.0533250
  94.8309310  46.5519760  80.1165540  95.2018140  45.7687080  79.7101510
  95.4711240  47.2408860  79.9382840  91.8143070  47.9356340  85.5295860
  91.0002910  48.3653500  85.7921650  92.2217270  48.5474750  84.9164910
  93.8768510  45.9904030  72.4296130  94.1517350  46.8982910  72.3015350
  93.6879250  45.9266560  73.3658120  90.2744120  39.0148880  73.7249760
  90.6929000  38.8279860  72.8846420  89.9680180  38.1627930  74.0352690
  93.7733850  43.9273020  77.4225560  93.3977450  43.1600950  76.9906850
  93.0436970  44.3095720  77.9100490  78.3629610  44.6060160  84.0434610
  78.7302650  44.5187560  84.9230630  77.7940430  43.8426710  83.9441470
  76.5391760  41.4306520  75.4456600  75.6355840  41.6936720  75.2708260
  77.0232380  41.7017690  74.6656560  93.0484810  42.1530510  80.7232800
  93.5722290  41.6593160  80.0922970  93.6344230  42.2880870  81.4680370
  93.2274530  42.2370380  84.2452350  92.2777240  42.2033920  84.3597340
  93.4087540  43.1470490  84.0102120  79.0818970  40.4872060  73.3550980
  79.7910670  40.0655280  72.8698260  78.3658910  40.5547290  72.7234330
  78.7293130  36.5411390  72.3953630  79.4521260  37.0820330  72.7134850
  79.0017650  36.2674810  71.5195170  92.5384780  41.4103860  76.6625210
  93.0343900  41.1774730  77.4474090  92.3400850  40.5715700  76.2462850
  78.4185320  35.7917580  82.2976250  79.0661510  35.2414960  81.8571410
  78.8387160  36.0460730  83.1192060  93.9671940  40.0464810  79.1962890
  93.8571220  39.8920850  80.1345160  94.7279530  39.5185750  78.9538300
  94.8562210  37.8772730  72.4369030  95.7811520  37.7453910  72.2287320
  94.8338000  37.9565550  73.3905480  94.9300700  38.6483390  75.0625740
  94.1352200  38.5828510  75.5918650  95.1343980  39.5834030  75.0511090
  91.8719120  52.6874940  79.0564130  92.4678190  52.3659510  78.3798550
  92.1297270  52.2146760  79.8477400  78.1717320  35.9473250  85.0401570
  77.8232140  36.4037070  85.8059750  77.8405020  35.0530380  85.1224000
  83.4787720  50.6752440  84.8064480  83.2379080  50.9427000  83.9195000
  84.4190360  50.8458170  84.8615340  89.0624740  35.3587330  84.5282570
  88.1884580  35.6922440  84.3255500  88.9535490  34.8860510  85.3534440
  89.9696720  37.5658200  85.9124290  89.6410080  36.7509960  85.5326020
  90.9179020  37.5228010  85.7889980  92.4231330  53.3370240  82.8861860
  91.9634300  54.0886050  82.5119880  91.7943790  52.6176710  82.8276660
  79.2481950  49.4313480  85.2760580  78.5216010  48.8118770  85.2086530
  79.3091100  49.8254090  84.4058660  82.8527050  51.6458480  82.0609990
  83.3692070  51.0345840  81.5358250  83.5024430  52.1487260  82.5521000
  85.5922550  52.5366970  82.8878970  85.8800360  52.2821270  82.0111980
  86.1045770  51.9844330  83.4784540  86.8099560  36.2757170  83.4675480
  86.0271350  36.7502670  83.7472240  86.5162490  35.3712000  83.3588660
  91.3620630  36.9780270  81.5124570  91.8028720  36.9225370  80.6646170
  91.0928220  37.8938280  81.5834750  93.2259200  36.6095510  79.5233390
  93.1647600  35.6656730  79.3764410  94.0051230  36.7175600  80.0686850
  77.5311950  52.7487870  78.4857340  77.3633990  52.1158550  79.1839230
  76.6646460  52.9547270  78.1351530  78.1539970  36.5804650  75.9889200
  78.9119330  36.6933530  75.4153230  77.6917140  37.4173850  75.9432630
  84.6953780  38.6943920  78.9791510  83.8828290  38.3200810  78.6387390
  85.1995420  37.9389000  79.2812700  89.1978760  35.3586370  80.2174580
  89.8008130  35.9306580  80.6923100  88.4571750  35.9225810  79.9948480
  92.3413360  35.7607930  75.4914860  92.5363990  36.6591380  75.7582290
  91.5543230  35.5295010  75.9847810  79.1374650  51.4421100  75.9307480
  78.6122270  51.8229130  75.2269440  79.0619230  52.0671870  76.6517190
  80.5265120  37.1068700  74.5291170  81.0557880  36.3198500  74.3999120
  81.1593440  37.7859890  74.7626700  82.7202960  36.8443840  77.5836560
  82.0905700  36.1431150  77.7506690  82.1808100  37.6047970  77.3669720
  93.8939970  53.0008640  77.2521420  94.0692160  52.3146380  76.6082340
  93.1961540  53.5255690  76.8598090  81.7367620  53.3903480  74.8056730
  82.4686440  53.1062760  74.2580620  81.9961290  53.1516760  75.6956110
  80.8982410  49.5068210  74.8103060  80.2691290  49.9753310  75.3588890
  81.0130240  48.6617430  75.2449250  88.3532130  43.5573870  60.9604260
  88.2726180  42.6428480  60.6895970  87.9396550  44.0540940  60.2543970
  86.4850170  45.3352890  62.8413530  85.7092270  44.8553330  63.1312100
  87.1363100  44.6558540  62.6669690  80.5016000  45.6472700  63.7189290
  79.6700880  45.3921410  64.1185800  81.1096980  45.7183470  64.4547210
  90.5057600  49.7413080  61.6212660  90.0439130  48.9700320  61.9499830
  91.3183150  49.7679150  62.1265110  80.4817260  49.6812790  63.9147310
  80.7845300  48.7910530  63.7357530  81.2260850  50.2383010  63.6869560
  78.9107950  40.6074590  57.5031680  78.0224650  40.9490560  57.4011560
  79.1949140  40.4074910  56.6112510  76.8740960  43.2080240  63.3871380
  77.4457070  42.4402440  63.3875020  76.8742500  43.5069000  62.4777990
  86.7320910  52.0271090  61.2416650  86.1132350  52.4828590  60.6711090
  87.5872690  52.1822550  60.8406350  85.9259160  48.0110080  62.8483690
  85.8567440  47.0700020  62.6872820  86.6879020  48.1011490  63.4206260
  78.1165830  38.6164600  65.1740310  77.9368670  37.7190350  65.4543070
  77.7145910  39.1636470  65.8487260  86.9564330  40.8180460  63.0752620
  87.3329150  39.9452340  62.9626290  86.8583840  41.1539160  62.1843060
  81.0869340  39.1906090  58.5370060  81.1936090  40.0909820  58.8438820
  80.1761700  39.1424060  58.2464710  90.7388450  38.3130900  60.0080960
  91.5598070  37.8227470  60.0506440  90.7722530  38.9028560  60.7612800
  78.7352500  41.1125100  63.7822650  79.4162610  41.3763470  64.4010050
  78.4200550  40.2725970  64.1160660  82.9277070  42.1592460  62.8695240
  83.4355290  42.6573430  63.5100260  83.4590310  41.3827660  62.6934600
  95.0288000  40.3297650  66.5724590  94.3240170  40.7179360  66.0539700
  95.2945920  41.0247940  67.1745520  81.2113170  36.7991020  67.1358660
  81.2131610  37.3163410  66.3304560  80.3817480  36.3221200  67.1128590
  87.5984260  46.9110330  58.6348560  86.9801530  47.3759780  58.0711280
  88.1107510  47.6037810  59.0518070  82.4616020  46.4386200  65.3132160
  82.1285400  47.0655120  65.9553230  82.6382700  46.9648080  64.5333830
  90.9749930  40.2531280  62.7808500  90.2705500  40.5416170  63.3611610
  91.3362090  41.0631390  62.4208060  80.8928500  38.5100980  65.1429110
  81.2345310  39.3543030  64.8482980  79.9544310  38.6584720  65.2594450
  81.6735120  48.4067000  67.1281340  82.2909120  49.0818080  66.8465790
  80.8128240  48.8154980  67.0368840  76.9667460  47.5966860  56.0088190
  76.5895440  48.0853960  55.2773090  77.2240530  48.2692140  56.6394720
  92.5912710  49.8706410  65.0435980  91.9076230  50.5405520  65.0352650
  93.1307000  50.0687060  64.2780840  94.0436850  39.6986070  63.1717710
  93.0961760  39.7325050  63.3033140  94.3686840  40.5125020  63.5567070
  84.5756390  35.9983250  61.4673700  84.8831370  35.4430140  60.7509200
  83.6457090  36.1327710  61.2846690  90.1271450  51.7150540  63.7581160
  90.1398610  51.3112830  62.8903420  89.5746670  52.4897830  63.6542590
  91.4216870  48.4366760  58.8471330  91.3113200  47.4941090  58.9720750
  91.4185120  48.7982400  59.7334090  89.5256890  46.6180380  65.0863770
  89.9425680  46.4040490  64.2517230  90.2496710  46.8753170  65.6572390
  86.9637150  44.0632080  58.2033820  86.0366430  43.9969460  58.4322290
  87.1161970  45.0012210  58.0889060  86.9506230  40.3349080  55.2000980
  86.0109900  40.4963040  55.2853440  87.2689490  41.0534760  54.6536970
  93.4718990  45.0167600  65.1780010  92.6437620  45.0860690  64.7030140
  94.0669470  45.6021910  64.7095840  90.9934440  45.6252380  58.7069070
  90.3746860  45.2871930  58.0595370  90.9758890  44.9812140  59.4148260
  90.4361000  41.8036920  66.1234880  90.0232180  42.6290630  66.3774870
  89.7036950  41.2181960  65.9311240  82.5693790  44.5896820  60.9853550
  82.1650790  43.8774070  60.4899450  82.6556910  44.2450060  61.8741590
  83.0375490  48.2764380  63.1492760  82.7403780  47.6709850  62.4700540
  83.9875310  48.3141690  63.0382120  81.2822410  41.3640030  64.7652590
  81.8337000  41.4735370  63.9905840  81.7965920  41.7377630  65.4807820
  91.1261100  51.8496250  66.8115860  90.6491660  52.6568440  66.6188470
  90.4422890  51.1974580  66.9642070  82.1293920  48.0146070  69.8000560
  81.2322450  48.2386040  70.0473960  82.1546790  48.1381010  68.8511960
  89.1699140  44.8639190  55.7141820  89.6092420  44.0261620  55.5679640
  89.8827560  45.4968590  55.8005960  80.9565140  44.8859390  68.3757930
  80.8172910  45.7582190  68.7445330  80.0746500  44.5432200  68.2305870
  87.2794520  49.8035260  59.6823060  87.7190430  50.5459590  59.2678450
  87.2181410  50.0461830  60.6062020  82.7545490  50.8281090  70.5843080
  82.7260920  51.2324040  69.7171510  82.5910460  49.8991450  70.4214680
  92.7516280  36.1182000  54.0282860  92.4388940  36.2108830  54.9281930
  93.5128750  36.6963030  53.9780290  79.2698420  43.4841800  58.4860200
  79.1496020  44.2103890  57.8741470  78.9599310  42.7144710  58.0088110
  94.7060310  51.6108190  71.8807250  95.1820030  52.0891080  72.5596330
  95.3267470  51.5425680  71.1552750  76.9083790  46.6556940  64.2928840
  76.9864210  46.7905710  63.3484560  77.5225470  45.9472830  64.4856960
  78.1531420  48.3557130  60.7035020  77.7459500  48.4971720  59.8488620
  79.0444430  48.0717290  60.5006230  94.1093560  48.8021040  69.0407260
  94.2356620  48.5632920  68.1224440  94.1514940  47.9705580  69.5129340
  87.9710300  52.5049040  67.6102070  88.4854970  52.4157050  68.4124500
  87.1279380  52.8508740  67.9029980  89.9464700  52.7904380  57.0386070
  89.7865840  52.5007320  57.9367900  89.7811410  52.0144510  56.5031300
  82.4253080  52.5702910  58.8157690  82.2495560  51.6538450  58.6025490
  81.5708820  52.9290200  59.0555490  89.6490830  50.2991940  55.5984070
  88.9555990  50.2969230  54.9386350  90.3913690  49.8751260  55.1678240
  89.2140760  51.9254650  59.6732560  89.6697710  51.1444030  59.9871180
  89.5533280  52.6361470  60.2173740  93.9617570  40.8553500  70.0057000
  93.3461840  41.3633170  69.4772460  93.6413990  39.9551830  69.9482940
  76.9643310  47.6971110  66.8323300  77.1274350  47.2276470  66.0142670
  77.4295760  47.1894670  67.4972140  81.7362080  36.8276870  61.8683870
  81.2930230  37.6086410  61.5368390  82.2947070  37.1506760  62.5754810
  86.0231890  39.6945390  67.4719190  85.5611260  39.9028410  68.2839130
  85.6210000  38.8804740  67.1689860  91.0236400  40.9154340  68.6015850
  90.1729990  40.6160090  68.9224920  90.8638190  41.1596350  67.6899670
  88.1186110  42.4156090  70.7014640  88.4439520  41.5819840  70.3616870
  88.9066440  42.9384610  70.8492970  84.8520900  36.4487570  56.7489700
  84.2275080  36.4447440  57.4743010  84.7651020  35.5818530  56.3525670
  83.7737980  37.3724200  63.7273470  84.0710310  38.2787030  63.6465490
  84.3223540  36.8842980  63.1133040  81.5276300  41.9510440  59.5965120
  81.3017220  41.7347610  60.5011740  80.7468830  42.3838900  59.2511090
  88.7574060  41.9573810  58.1955770  88.1582950  42.6809610  58.0119390
  89.3053670  41.8950590  57.4132220  83.9675510  42.8496020  70.2625390
  83.8719110  41.9090750  70.1125790  84.8107490  43.0711090  69.8673460
  87.3638930  40.5937350  60.2259050  87.7568500  40.9109550  59.4127740
  87.7255780  39.7149230  60.3403570  79.0986050  39.2609690  68.4159170
  78.7049440  40.1084900  68.6231950  78.4104450  38.6236060  68.6067810
  85.6731100  39.3444660  71.4855910  84.9829420  39.1516860  72.1202000
  86.4163400  39.6279300  72.0180210  76.4003100  37.1838150  62.4489250
  76.1116150  37.7541010  63.1614230  77.1448860  36.7042600  62.8120480
  76.5873330  41.1258270  53.6591970  76.5048000  42.0689030  53.8006960
  76.2356390  40.9833180  52.7804320  87.9494070  43.1843100  64.3209830
  87.2175190  43.6929910  64.6699930  87.5518410  42.3673080  64.0198610
  84.3871460  39.8597300  62.7262320  84.3907520  39.4187250  61.8766860
  85.2822580  40.1814630  62.8334140  80.2373840  39.7423790  61.6856530
  79.8973890  40.2199020  62.4423580  79.4751160  39.2888910  61.3257630
  84.4491610  40.8609380  55.7169080  84.5704430  40.8195860  56.6654900
  84.0640120  41.7233530  55.5615810  88.4119980  38.6376780  63.7332770
  88.4292720  39.0885430  64.5774620  88.1635560  37.7382420  63.9466210
  83.4613110  43.1710520  55.1152380  82.8930010  42.7228770  54.4888290
  84.1702110  43.5303300  54.5817530  91.8390730  36.0508960  69.5719150
  92.1636500  35.3198620  70.0977130  91.8747240  35.7322600  68.6700140
  78.5382290  47.0722540  68.9919110  78.1537080  46.4316210  69.5902070
  78.8494480  47.7758660  69.5613840  84.6879430  43.9199080  64.4727730
  85.0549560  43.4457650  65.2189070  84.4984490  44.7940650  64.8136070
  77.5519920  38.6642770  60.6021200  77.2666840  38.2998440  61.4399820
  77.4898780  37.9323230  59.9884340  82.4778800  42.9607720  66.7911940
  82.1735870  43.8399700  67.0162300  83.4325260  43.0207510  66.8269380
  81.0060590  47.1668710  57.3878790  80.2322850  46.6266330  57.2277510
  81.7355220  46.6475320  57.0496550  91.7648570  46.1634070  63.1805180
  92.4847690  46.6589360  62.7901290  91.5630390  45.4851960  62.5359050
  87.2258510  37.5572030  57.3234570  86.4123120  37.0585200  57.2479880
  87.0320460  38.3970280  56.9070920  87.1467370  46.2343130  69.0674180
  87.0804680  45.3138800  68.8131770  86.5172510  46.3318570  69.7818820
  89.9406900  41.9291680  55.6196730  90.8286520  42.2408910  55.4448070
  89.9111990  41.0563930  55.2277310  81.0497990  46.8349090  61.0257600
  81.5676660  46.0317350  60.9714490  80.5982010  46.7728230  61.8674430
  85.9367490  48.1015370  56.2984900  86.2783190  48.8457600  55.8028220
  85.1080200  48.4146490  56.6609730  78.5342530  43.8010460  67.9383300
  78.1757470  44.4664310  68.5256640  78.2397090  42.9694010  68.3095920
  81.7355650  44.2594700  70.8222850  81.4355790  44.4051880  69.9250670
  82.5066890  43.6999990  70.7296240  87.0784100  49.0563700  68.8177980
  87.0928640  48.1244660  68.5996890  86.3709200  49.1423460  69.4567750
  92.2121170  43.2403520  55.0876590  92.1284890  43.6717740  54.2373030
  92.9315360  43.7001870  55.5203410  93.2895310  45.6971040  68.1646560
  92.5643500  46.2899820  67.9675950  93.8170770  45.6894580  67.3659930
  93.2408420  50.0945780  57.8158720  92.5984580  49.4401400  58.0902440
  92.8539080  50.5000870  57.0399390  88.8194900  47.4231210  61.6630410
  89.1718720  46.8259340  61.0031780  87.9357230  47.0975440  61.8338660
  84.9058180  48.1828900  59.0700820  85.5929310  48.7298110  59.4508410
  84.1190600  48.7269630  59.1050430  77.0450580  43.8001720  54.5617900
  77.9145430  44.0826520  54.8453820  76.5540900  44.6137590  54.4466710
  84.2085390  45.1874930  58.6826180  84.6648170  45.9980180  58.9086370
  83.8573600  44.8698070  59.5144670  86.5118000  50.6981270  65.9118480
  87.1560220  50.9040650  66.5891900  86.8747440  49.9369670  65.4589330
  80.1097170  35.5312580  59.1548700  79.9811800  35.5230480  60.1033620
  79.2859190  35.8695670  58.8039710  87.7850080  48.7013620  64.6295930
  88.4272310  48.0006780  64.7428100  88.3099430  49.4812060  64.4492820
  91.6305800  48.9862240  54.3535070  91.4043380  48.2692680  54.9459710
  91.2402000  48.7374680  53.5156820  89.5587700  49.5008520  67.8331990
  89.8943940  50.0875210  68.5109910  88.6388040  49.3701230  68.0629780
  77.4121830  53.0129100  55.1279530  77.7719470  53.6118440  54.4736800
  77.2714170  53.5588990  55.9014560  77.1091100  37.2903700  68.6155400
  76.3949620  37.4900620  69.2208010  77.5286140  36.5143270  68.9870200
  91.2122050  46.9034180  56.0149230  90.9243750  47.3646870  56.8027110
  92.0074220  46.4431950  56.2833450  77.3963690  51.2783960  69.6021930
  77.5054810  50.3378700  69.4617320  76.7444250  51.5438710  68.9535660
  85.3876280  49.5499850  71.0020050  85.0673150  48.8309090  71.5465740
  84.7134640  50.2254920  71.0756110  83.4290450  50.3960300  55.9453200
  83.4200550  51.1289990  55.3297710  82.5088810  50.1491880  56.0380160
  79.0297090  45.6175190  56.6899960  78.4225040  46.3574090  56.6995260
  79.5046440  45.7074550  55.8638160  88.6029880  39.7826010  66.3656850
  88.9710700  38.9621220  66.6936420  87.7428080  39.8427900  66.7812500
  91.9691910  38.7382950  57.1744410  91.3405070  38.8428620  56.4602640
  91.4743830  38.9579730  57.9638290  86.4150050  50.4588540  54.6078390
  86.5162030  50.2552530  53.6780370  85.5151790  50.2046820  54.8126170
  83.9375940  41.0168900  58.5902290  83.2292090  41.4855240  59.0315900
  84.2220420  40.3590910  59.2247480  85.5631870  42.4365600  66.5894820
  86.0617120  42.9111420  67.2546670  85.7054820  41.5129120  66.7964850
  87.9691370  37.7419560  60.0298080  87.8459150  37.7605690  59.0807590
  88.9175930  37.7898500  60.1496480  85.0568160  52.9774860  59.3026060
  85.3109660  52.9396250  58.3805430  84.1080640  52.8508190  59.2954310
  82.1410960  39.3253980  55.9653000  82.9901490  39.7624130  55.8993190
  81.7742230  39.6374240  56.7925060  92.7698730  38.6533560  67.4323210
  92.2672330  39.3938960  67.7717020  93.5855390  39.0417560  67.1160000
  91.0620740  43.8966740  60.8784570  90.1210880  43.9116970  61.0532260
  91.3764810  43.1102700  61.3244870  81.0402380  45.5786340  54.4388530
  81.8065650  45.4667700  55.0013960  81.1177070  44.8824310  53.7865300
  79.7349140  43.0111410  55.1221420  79.8152730  42.0638920  55.2338820
  80.6268890  43.3418290  55.2282080  93.0646320  51.0675590  62.5538830
  93.1893740  51.8906760  63.0262640  93.9311880  50.8566320  62.2062980
  80.5363850  53.1606800  62.2255960  81.2726330  52.6122260  62.4964530
  80.9204770  54.0262810  62.0861950  77.4209330  49.2280370  58.0997470
  76.4949110  49.4701510  58.0902880  77.8865760  50.0554630  57.9782220
  79.5422130  52.3452870  71.4141540  80.3434860  52.6664920  71.8276940
  79.0273950  51.9848450  72.1361450  83.6466160  52.3337110  54.0481530
  84.4394770  52.6225940  53.5963320  83.1270510  51.9029280  53.3694010
  88.3786760  48.4532740  71.3616950  87.7724920  48.4764340  70.6212700
  88.0740870  47.7215780  71.8984200  89.8087130  52.1813030  69.9726360
  90.7608880  52.0971050  69.9226600  89.6615350  52.8454740  70.6460150
  92.6996330  51.5607240  55.4718270  92.4137840  51.1472380  54.6572450
  92.5015880  52.4894950  55.3518790  77.2619940  44.8326330  70.3577590
  77.7658960  44.2533610  70.9293820  76.5227360  45.1166560  70.8953960
  84.1643560  47.5540520  53.9123880  84.0594200  46.9392870  54.6385260
  83.9967780  47.0306410  53.1286890  84.3157880  46.2397320  69.8913110
  83.5503550  46.8082320  69.8067780  84.4973840  45.9473530  68.9981340
  87.4046290  46.6160550  54.5165870  86.8556390  47.0629850  55.1608610
  88.0265550  46.1109800  55.0403540  91.4581230  47.9702650  70.4488130
  92.1990700  48.3078410  69.9455590  90.6953910  48.1394710  69.8957900
  79.2943020  42.9755920  71.2527660  79.3348360  42.6769790  72.1612890
  80.1488520  43.3763530  71.0935180  83.0721410  45.5751470  56.4131170
  83.4937830  45.4091340  57.2562560  83.1972250  44.7651700  55.9186310
  81.2348830  41.5548020  69.2202150  80.7045290  41.0638970  68.5925490
  81.9036900  41.9832220  68.6860080  85.5849050  44.5989080  53.6608270
  86.1054710  43.8838100  53.2949420  86.2317450  45.2374950  53.9608780
  90.1326890  46.0217480  68.9843340  90.5467910  46.1762560  69.8333760
  89.1977890  46.1472700  69.1469120  90.6049060  43.3613640  70.9882490
  91.1869830  42.6065960  70.9002970  90.7810830  43.8921080  70.2113970
  81.7221130  38.5210390  69.2999440  81.6278000  37.9031140  68.5750310
  81.1418520  39.2476680  69.0729350  84.4882570  37.0783630  66.3326830
  84.0399870  37.1007890  65.4872380  83.8547770  36.6802650  66.9297130
  84.8942120  45.9737960  66.9539270  85.3130230  46.8170690  66.7815510
  83.9750750  46.1110000  66.7246050  87.2306020  43.7054140  68.3377110
  87.3502230  43.1095280  69.0771950  88.0900020  43.7423830  67.9178410
  89.5693920  44.2591330  66.9139620  89.0429140  44.7833950  66.3104760
  89.9125260  44.8918720  67.5449350  81.9680310  41.6484700  53.3589330
  81.7669370  40.7852060  53.7202670  81.7972360  41.5618060  52.4210930
  82.7449540  52.2790970  68.0697000  82.2070630  53.0037030  67.7505700
  82.9983500  51.8021310  67.2794340  83.9974790  40.2475490  69.5952930
  84.5874480  39.9391340  70.2830750  83.1795030  39.7755240  69.7512830
  88.8168220  39.8641300  69.8285950  88.1283740  39.2022840  69.7635940
  89.5374240  39.4179570  70.2734410  89.4468620  36.4592930  55.8876210
  89.7270910  35.6160830  56.2435630  88.6734350  36.6916040  56.4014960
  80.7663110  38.7485320  53.3467210  81.0689010  38.7552750  52.4386360
  81.5057700  38.3983180  53.8434870  85.6011750  53.5142180  68.3283650
  85.5270450  54.4177320  68.6356020  84.6990590  53.1954080  68.3005720
  83.9848040  37.6919940  54.3323410  83.6370040  37.0143930  53.7525860
  84.1860810  37.2309450  55.1466800  86.1497080  52.6800690  55.9510010
  87.0447870  53.0185660  55.9728770  86.1814710  51.9580100  55.3234290
  79.7893240  48.0527740  54.1797010  80.2268110  48.5957410  54.8354590
  80.2740970  47.2274690  54.1893350  77.0039040  50.8416770  61.6317270
  77.3342050  49.9737830  61.3995910  77.4330040  51.0475290  62.4622230
  81.6000960  49.1725780  59.2919240  81.2996500  49.0490750  60.1923150
  81.4938450  48.3134370  58.8834970  77.4929250  51.7087360  64.3698900
  77.0560240  51.8888160  65.2023050  78.0606930  52.4661980  64.2280620
  93.1291430  51.2104360  68.6576210  92.5293420  51.2696920  67.9140130
  93.2585330  50.2709340  68.7873060  94.3692880  48.9522180  53.9945920
  93.5385840  49.0198830  54.4653150  94.5464710  49.8426300  53.6912780
  93.8249340  45.6969660  56.4980120  94.5868250  46.2666310  56.6039810
  93.8403710  45.1296860  57.2688430  77.3253680  44.2207590  60.7287780
  76.6702520  43.9519230  60.0847480  78.1631630  44.1112070  60.2789760
  94.8309310  46.5519760  61.3422050  95.2018140  45.7687080  60.9358020
  95.4711240  47.2408860  61.1639350  91.8143070  47.9356340  66.7552370
  91.0002910  48.3653500  67.0178160  92.2217270  48.5474750  66.1421420
  93.8768510  45.9904030  53.6552640  94.1517350  46.8982910  53.5271860
  93.6879250  45.9266560  54.5914630  90.2744120  39.0148880  54.9506270
  90.6929000  38.8279860  54.1102930  89.9680180  38.1627930  55.2609200
  93.7733850  43.9273020  58.6482070  93.3977450  43.1600950  58.2163360
  93.0436970  44.3095720  59.1357000  78.3629610  44.6060160  65.2691120
  78.7302650  44.5187560  66.1487140  77.7940430  43.8426710  65.1697980
  93.1633470  43.0744540  68.2821590  92.9319560  42.8457290  67.3819540
  93.4238020  43.9944090  68.2366480  77.9145610  41.5169250  69.1749540
  77.0201660  41.4836010  69.5143250  78.4543160  41.7156040  69.9400790
  91.6021540  38.3000970  71.0601290  92.4791720  38.3084370  71.4435290
  91.6142380  37.5631810  70.4493640  76.5391760  41.4306520  56.6713110
  75.6355840  41.6936720  56.4964770  77.0232380  41.7017690  55.8913070
  93.0484810  42.1530510  61.9489310  93.5722290  41.6593160  61.3179480
  93.6344230  42.2880870  62.6936880  93.2274530  42.2370380  65.4708860
  92.2777240  42.2033920  65.5853850  93.4087540  43.1470490  65.2358630
  79.0818970  40.4872060  54.5807490  79.7910670  40.0655280  54.0954770
  78.3658910  40.5547290  53.9490840  78.7293130  36.5411390  53.6210140
  79.4521260  37.0820330  53.9391360  79.0017650  36.2674810  52.7451680
  92.5384780  41.4103860  57.8881720  93.0343900  41.1774730  58.6730600
  92.3400850  40.5715700  57.4719360  78.4185320  35.7917580  63.5232760
  79.0661510  35.2414960  63.0827920  78.8387160  36.0460730  64.3448570
  93.9671940  40.0464810  60.4219400  93.8571220  39.8920850  61.3601670
  94.7279530  39.5185750  60.1794810  92.3137660  35.9858940  66.8802400
  92.9509880  36.5993080  67.2461590  92.4612550  36.0219600  65.9351630
  94.8562210  37.8772730  53.6625540  95.7811520  37.7453910  53.4543830
  94.8338000  37.9565550  54.6161990  94.9300700  38.6483390  56.2882250
  94.1352200  38.5828510  56.8175160  95.1343980  39.5834030  56.2767600
  91.8719120  52.6874940  60.2820640  92.4678190  52.3659510  59.6055060
  92.1297270  52.2146760  61.0733910  78.1717320  35.9473250  66.2658080
  77.8232140  36.4037070  67.0316260  77.8405020  35.0530380  66.3480510
  79.7781690  49.1192850  70.4311270  79.7351320  48.7485760  71.3125730
  79.9092700  50.0570420  70.5713090  83.4787720  50.6752440  66.0320990
  83.2379080  50.9427000  65.1451510  84.4190360  50.8458170  66.0871850
  85.6842140  37.1385130  69.7877500  85.6231030  37.7306960  70.5372910
  86.6242520  37.0311090  69.6427760  88.3216700  36.7955190  69.4269790
  88.9357110  37.1134480  68.7650870  88.8666260  36.3103780  70.0465650
  94.7391880  52.6946820  66.8331630  94.2450160  53.0915690  66.1158760
  94.1305170  52.0696030  67.2268910  78.8437960  35.4749450  69.5408850
  79.3920950  35.2937500  68.7774960  78.9093270  34.6843560  70.0765160
  79.6169720  52.0655100  67.5509050  79.0230040  51.9339800  68.2899090
  79.6093560  51.2293240  67.0851150  89.0624740  35.3587330  65.7539080
  88.1884580  35.6922440  65.5512010  88.9535490  34.8860510  66.5790950
  89.9696720  37.5658200  67.1380800  89.6410080  36.7509960  66.7582530
  90.9179020  37.5228010  67.0146490  92.4231330  53.3370240  64.1118370
  91.9634300  54.0886050  63.7376390  91.7943790  52.6176710  64.0533170
  79.2481950  49.4313480  66.5017090  78.5216010  48.8118770  66.4343040
  79.3091100  49.8254090  65.6315170  82.8527050  51.6458480  63.2866500
  83.3692070  51.0345840  62.7614760  83.5024430  52.1487260  63.7777510
  85.5922550  52.5366970  64.1135480  85.8800360  52.2821270  63.2368490
  86.1045770  51.9844330  64.7041050  86.8099560  36.2757170  64.6931990
  86.0271350  36.7502670  64.9728750  86.5162490  35.3712000  64.5845170
  91.3620630  36.9780270  62.7381080  91.8028720  36.9225370  61.8902680
  91.0928220  37.8938280  62.8091260  93.2259200  36.6095510  60.7489900
  93.1647600  35.6656730  60.6020920  94.0051230  36.7175600  61.2943360
  77.5311950  52.7487870  59.7113850  77.3633990  52.1158550  60.4095740
  76.6646460  52.9547270  59.3608040  78.1539970  36.5804650  57.2145710
  78.9119330  36.6933530  56.6409740  77.6917140  37.4173850  57.1689140
  84.6953780  38.6943920  60.2048020  83.8828290  38.3200810  59.8643900
  85.1995420  37.9389000  60.5069210  89.1978760  35.3586370  61.4431090
  89.8008130  35.9306580  61.9179610  88.4571750  35.9225810  61.2204990
  92.3413360  35.7607930  56.7171370  92.5363990  36.6591380  56.9838800
  91.5543230  35.5295010  57.2104320  79.1374650  51.4421100  57.1563990
  78.6122270  51.8229130  56.4525950  79.0619230  52.0671870  57.8773700
  80.5265120  37.1068700  55.7547680  81.0557880  36.3198500  55.6255630
  81.1593440  37.7859890  55.9883210  82.7202960  36.8443840  58.8093070
  82.0905700  36.1431150  58.9763200  82.1808100  37.6047970  58.5926230
  85.6594910  53.4583070  71.4803680  86.5862220  53.2227340  71.5239640
  85.6445340  54.2855070  70.9989710  93.8939970  53.0008640  58.4777930
  94.0692160  52.3146380  57.8338850  93.1961540  53.5255690  58.0854600
  82.8458520  36.1227820  71.2445560  82.5642790  36.6261420  70.4806380
  83.2278220  35.3249570  70.8787690  81.7367620  53.3903480  56.0313240
  82.4686440  53.1062760  55.4837130  81.9961290  53.1516760  56.9212620
  80.8982410  49.5068210  56.0359570  80.2691290  49.9753310  56.5845400
  81.0130240  48.6617430  56.4705760  89.4473980  35.5381400  71.8226030
  89.3339430  35.8576010  72.7177550  90.2643720  35.9393910  71.5263310
  92.2272470  52.6852930  71.3044720  93.0197790  52.1902160  71.0970680
  92.5205620  53.3643070  71.9120330  88.3532130  43.5573870  42.1860770
  88.2726180  42.6428480  41.9152480  87.9396550  44.0540940  41.4800480
  86.4850170  45.3352890  44.0670040  85.7092270  44.8553330  44.3568610
  87.1363100  44.6558540  43.8926200  80.5016000  45.6472700  44.9445800
  79.6700880  45.3921410  45.3442310  81.1096980  45.7183470  45.6803720
  90.5057600  49.7413080  42.8469170  90.0439130  48.9700320  43.1756340
  91.3183150  49.7679150  43.3521620  80.4817260  49.6812790  45.1403820
  80.7845300  48.7910530  44.9614040  81.2260850  50.2383010  44.9126070
  78.9107950  40.6074590  38.7288190  78.0224650  40.9490560  38.6268070
  79.1949140  40.4074910  37.8369020  76.8740960  43.2080240  44.6127890
  77.4457070  42.4402440  44.6131530  76.8742500  43.5069000  43.7034500
  86.7320910  52.0271090  42.4673160  86.1132350  52.4828590  41.8967600
  87.5872690  52.1822550  42.0662860  85.9259160  48.0110080  44.0740200
  85.8567440  47.0700020  43.9129330  86.6879020  48.1011490  44.6462770
  78.1165830  38.6164600  46.3996820  77.9368670  37.7190350  46.6799580
  77.7145910  39.1636470  47.0743770  86.9564330  40.8180460  44.3009130
  87.3329150  39.9452340  44.1882800  86.8583840  41.1539160  43.4099570
  81.0869340  39.1906090  39.7626570  81.1936090  40.0909820  40.0695330
  80.1761700  39.1424060  39.4721220  90.7388450  38.3130900  41.2337470
  91.5598070  37.8227470  41.2762950  90.7722530  38.9028560  41.9869310
  78.7352500  41.1125100  45.0079160  79.4162610  41.3763470  45.6266560
  78.4200550  40.2725970  45.3417170  82.9277070  42.1592460  44.0951750
  83.4355290  42.6573430  44.7356770  83.4590310  41.3827660  43.9191110
  95.0288000  40.3297650  47.7981100  94.3240170  40.7179360  47.2796210
  95.2945920  41.0247940  48.4002030  81.2113170  36.7991020  48.3615170
  81.2131610  37.3163410  47.5561070  80.3817480  36.3221200  48.3385100
  87.5984260  46.9110330  39.8605070  86.9801530  47.3759780  39.2967790
  88.1107510  47.6037810  40.2774580  82.4616020  46.4386200  46.5388670
  82.1285400  47.0655120  47.1809740  82.6382700  46.9648080  45.7590340
  90.9749930  40.2531280  44.0065010  90.2705500  40.5416170  44.5868120
  91.3362090  41.0631390  43.6464570  80.8928500  38.5100980  46.3685620
  81.2345310  39.3543030  46.0739490  79.9544310  38.6584720  46.4850960
  81.6735120  48.4067000  48.3537850  82.2909120  49.0818080  48.0722300
  80.8128240  48.8154980  48.2625350  76.9667460  47.5966860  37.2344700
  76.5895440  48.0853960  36.5029600  77.2240530  48.2692140  37.8651230
  92.5912710  49.8706410  46.2692490  91.9076230  50.5405520  46.2609160
  93.1307000  50.0687060  45.5037350  94.0436850  39.6986070  44.3974220
  93.0961760  39.7325050  44.5289650  94.3686840  40.5125020  44.7823580
  84.5756390  35.9983250  42.6930210  84.8831370  35.4430140  41.9765710
  83.6457090  36.1327710  42.5103200  90.1271450  51.7150540  44.9837670
  90.1398610  51.3112830  44.1159930  89.5746670  52.4897830  44.8799100
  91.4216870  48.4366760  40.0727840  91.3113200  47.4941090  40.1977260
  91.4185120  48.7982400  40.9590600  89.5256890  46.6180380  46.3120280
  89.9425680  46.4040490  45.4773740  90.2496710  46.8753170  46.8828900
  86.9637150  44.0632080  39.4290330  86.0366430  43.9969460  39.6578800
  87.1161970  45.0012210  39.3145570  86.9506230  40.3349080  36.4257490
  86.0109900  40.4963040  36.5109950  87.2689490  41.0534760  35.8793480
  93.4718990  45.0167600  46.4036520  92.6437620  45.0860690  45.9286650
  94.0669470  45.6021910  45.9352350  90.9934440  45.6252380  39.9325580
  90.3746860  45.2871930  39.2851880  90.9758890  44.9812140  40.6404770
  90.4361000  41.8036920  47.3491390  90.0232180  42.6290630  47.6031380
  89.7036950  41.2181960  47.1567750  82.5693790  44.5896820  42.2110060
  82.1650790  43.8774070  41.7155960  82.6556910  44.2450060  43.0998100
  83.0375490  48.2764380  44.3749270  82.7403780  47.6709850  43.6957050
  83.9875310  48.3141690  44.2638630  81.2822410  41.3640030  45.9909100
  81.8337000  41.4735370  45.2162350  81.7965920  41.7377630  46.7064330
  91.1261100  51.8496250  48.0372370  90.6491660  52.6568440  47.8444980
  90.4422890  51.1974580  48.1898580  82.1293920  48.0146070  51.0257070
  81.2322450  48.2386040  51.2730470  82.1546790  48.1381010  50.0768470
  89.1699140  44.8639190  36.9398330  89.6092420  44.0261620  36.7936150
  89.8827560  45.4968590  37.0262470  80.9565140  44.8859390  49.6014440
  80.8172910  45.7582190  49.9701840  80.0746500  44.5432200  49.4562380
  87.2794520  49.8035260  40.9079570  87.7190430  50.5459590  40.4934960
  87.2181410  50.0461830  41.8318530  82.7545490  50.8281090  51.8099590
  82.7260920  51.2324040  50.9428020  82.5910460  49.8991450  51.6471190
  92.7516280  36.1182000  35.2539370  92.4388940  36.2108830  36.1538440
  93.5128750  36.6963030  35.2036800  79.2698420  43.4841800  39.7116710
  79.1496020  44.2103890  39.0997980  78.9599310  42.7144710  39.2344620
  94.7060310  51.6108190  53.1063760  95.1820030  52.0891080  53.7852840
  95.3267470  51.5425680  52.3809260  76.9083790  46.6556940  45.5185350
  76.9864210  46.7905710  44.5741070  77.5225470  45.9472830  45.7113470
  78.1531420  48.3557130  41.9291530  77.7459500  48.4971720  41.0745130
  79.0444430  48.0717290  41.7262740  94.1093560  48.8021040  50.2663770
  94.2356620  48.5632920  49.3480950  94.1514940  47.9705580  50.7385850
  87.9710300  52.5049040  48.8358580  88.4854970  52.4157050  49.6381010
  87.1279380  52.8508740  49.1286490  89.9464700  52.7904380  38.2642580
  89.7865840  52.5007320  39.1624410  89.7811410  52.0144510  37.7287810
  82.4253080  52.5702910  40.0414200  82.2495560  51.6538450  39.8282000
  81.5708820  52.9290200  40.2812000  89.6490830  50.2991940  36.8240580
  88.9555990  50.2969230  36.1642860  90.3913690  49.8751260  36.3934750
  89.2140760  51.9254650  40.8989070  89.6697710  51.1444030  41.2127690
  89.5533280  52.6361470  41.4430250  93.9617570  40.8553500  51.2313510
  93.3461840  41.3633170  50.7028970  93.6413990  39.9551830  51.1739450
  76.9643310  47.6971110  48.0579810  77.1274350  47.2276470  47.2399180
  77.4295760  47.1894670  48.7228650  81.7362080  36.8276870  43.0940380
  81.2930230  37.6086410  42.7624900  82.2947070  37.1506760  43.8011320
  86.0231890  39.6945390  48.6975700  85.5611260  39.9028410  49.5095640
  85.6210000  38.8804740  48.3946370  91.0236400  40.9154340  49.8272360
  90.1729990  40.6160090  50.1481430  90.8638190  41.1596350  48.9156180
  88.1186110  42.4156090  51.9271150  88.4439520  41.5819840  51.5873380
  88.9066440  42.9384610  52.0749480  84.8520900  36.4487570  37.9746210
  84.2275080  36.4447440  38.6999520  84.7651020  35.5818530  37.5782180
  83.7737980  37.3724200  44.9529980  84.0710310  38.2787030  44.8722000
  84.3223540  36.8842980  44.3389550  81.5276300  41.9510440  40.8221630
  81.3017220  41.7347610  41.7268250  80.7468830  42.3838900  40.4767600
  88.7574060  41.9573810  39.4212280  88.1582950  42.6809610  39.2375900
  89.3053670  41.8950590  38.6388730  83.9675510  42.8496020  51.4881900
  83.8719110  41.9090750  51.3382300  84.8107490  43.0711090  51.0929970
  87.3638930  40.5937350  41.4515560  87.7568500  40.9109550  40.6384250
  87.7255780  39.7149230  41.5660080  79.0986050  39.2609690  49.6415680
  78.7049440  40.1084900  49.8488460  78.4104450  38.6236060  49.8324320
  85.6731100  39.3444660  52.7112420  84.9829420  39.1516860  53.3458510
  86.4163400  39.6279300  53.2436720  76.4003100  37.1838150  43.6745760
  76.1116150  37.7541010  44.3870740  77.1448860  36.7042600  44.0376990
  76.5873330  41.1258270  34.8848480  76.5048000  42.0689030  35.0263470
  76.2356390  40.9833180  34.0060830  87.9494070  43.1843100  45.5466340
  87.2175190  43.6929910  45.8956440  87.5518410  42.3673080  45.2455120
  84.3871460  39.8597300  43.9518830  84.3907520  39.4187250  43.1023370
  85.2822580  40.1814630  44.0590650  80.2373840  39.7423790  42.9113040
  79.8973890  40.2199020  43.6680090  79.4751160  39.2888910  42.5514140
  84.4491610  40.8609380  36.9425590  84.5704430  40.8195860  37.8911410
  84.0640120  41.7233530  36.7872320  88.4119980  38.6376780  44.9589280
  88.4292720  39.0885430  45.8031130  88.1635560  37.7382420  45.1722720
  83.4613110  43.1710520  36.3408890  82.8930010  42.7228770  35.7144800
  84.1702110  43.5303300  35.8074040  91.8390730  36.0508960  50.7975660
  92.1636500  35.3198620  51.3233640  91.8747240  35.7322600  49.8956650
  78.5382290  47.0722540  50.2175620  78.1537080  46.4316210  50.8158580
  78.8494480  47.7758660  50.7870350  84.6879430  43.9199080  45.6984240
  85.0549560  43.4457650  46.4445580  84.4984490  44.7940650  46.0392580
  77.5519920  38.6642770  41.8277710  77.2666840  38.2998440  42.6656330
  77.4898780  37.9323230  41.2140850  82.4778800  42.9607720  48.0168450
  82.1735870  43.8399700  48.2418810  83.4325260  43.0207510  48.0525890
  81.0060590  47.1668710  38.6135300  80.2322850  46.6266330  38.4534020
  81.7355220  46.6475320  38.2753060  91.7648570  46.1634070  44.4061690
  92.4847690  46.6589360  44.0157800  91.5630390  45.4851960  43.7615560
  87.2258510  37.5572030  38.5491080  86.4123120  37.0585200  38.4736390
  87.0320460  38.3970280  38.1327430  87.1467370  46.2343130  50.2930690
  87.0804680  45.3138800  50.0388280  86.5172510  46.3318570  51.0075330
  89.9406900  41.9291680  36.8453240  90.8286520  42.2408910  36.6704580
  89.9111990  41.0563930  36.4533820  81.0497990  46.8349090  42.2514110
  81.5676660  46.0317350  42.1971000  80.5982010  46.7728230  43.0930940
  85.9367490  48.1015370  37.5241410  86.2783190  48.8457600  37.0284730
  85.1080200  48.4146490  37.8866240  78.5342530  43.8010460  49.1639810
  78.1757470  44.4664310  49.7513150  78.2397090  42.9694010  49.5352430
  81.7355650  44.2594700  52.0479360  81.4355790  44.4051880  51.1507180
  82.5066890  43.6999990  51.9552750  87.0784100  49.0563700  50.0434490
  87.0928640  48.1244660  49.8253400  86.3709200  49.1423460  50.6824260
  92.2121170  43.2403520  36.3133100  92.1284890  43.6717740  35.4629540
  92.9315360  43.7001870  36.7459920  93.2895310  45.6971040  49.3903070
  92.5643500  46.2899820  49.1932460  93.8170770  45.6894580  48.5916440
  93.2408420  50.0945780  39.0415230  92.5984580  49.4401400  39.3158950
  92.8539080  50.5000870  38.2655900  88.8194900  47.4231210  42.8886920
  89.1718720  46.8259340  42.2288290  87.9357230  47.0975440  43.0595170
  84.9058180  48.1828900  40.2957330  85.5929310  48.7298110  40.6764920
  84.1190600  48.7269630  40.3306940  77.0450580  43.8001720  35.7874410
  77.9145430  44.0826520  36.0710330  76.5540900  44.6137590  35.6723220
  84.2085390  45.1874930  39.9082690  84.6648170  45.9980180  40.1342880
  83.8573600  44.8698070  40.7401180  86.5118000  50.6981270  47.1374990
  87.1560220  50.9040650  47.8148410  86.8747440  49.9369670  46.6845840
  80.1097170  35.5312580  40.3805210  79.9811800  35.5230480  41.3290130
  79.2859190  35.8695670  40.0296220  87.7850080  48.7013620  45.8552440
  88.4272310  48.0006780  45.9684610  88.3099430  49.4812060  45.6749330
  91.6305800  48.9862240  35.5791580  91.4043380  48.2692680  36.1716220
  91.2402000  48.7374680  34.7413330  89.5587700  49.5008520  49.0588500
  89.8943940  50.0875210  49.7366420  88.6388040  49.3701230  49.2886290
  77.4121830  53.0129100  36.3536040  77.7719470  53.6118440  35.6993310
  77.2714170  53.5588990  37.1271070  77.1091100  37.2903700  49.8411910
  76.3949620  37.4900620  50.4464520  77.5286140  36.5143270  50.2126710
  91.2122050  46.9034180  37.2405740  90.9243750  47.3646870  38.0283620
  92.0074220  46.4431950  37.5089960  77.3963690  51.2783960  50.8278440
  77.5054810  50.3378700  50.6873830  76.7444250  51.5438710  50.1792170
  85.3876280  49.5499850  52.2276560  85.0673150  48.8309090  52.7722250
  84.7134640  50.2254920  52.3012620  83.4290450  50.3960300  37.1709710
  83.4200550  51.1289990  36.5554220  82.5088810  50.1491880  37.2636670
  79.0297090  45.6175190  37.9156470  78.4225040  46.3574090  37.9251770
  79.5046440  45.7074550  37.0894670  88.6029880  39.7826010  47.5913360
  88.9710700  38.9621220  47.9192930  87.7428080  39.8427900  48.0069010
  91.9691910  38.7382950  38.4000920  91.3405070  38.8428620  37.6859150
  91.4743830  38.9579730  39.1894800  86.4150050  50.4588540  35.8334900
  86.5162030  50.2552530  34.9036880  85.5151790  50.2046820  36.0382680
  83.9375940  41.0168900  39.8158800  83.2292090  41.4855240  40.2572410
  84.2220420  40.3590910  40.4503990  85.5631870  42.4365600  47.8151330
  86.0617120  42.9111420  48.4803180  85.7054820  41.5129120  48.0221360
  87.9691370  37.7419560  41.2554590  87.8459150  37.7605690  40.3064100
  88.9175930  37.7898500  41.3752990  85.0568160  52.9774860  40.5282570
  85.3109660  52.9396250  39.6061940  84.1080640  52.8508190  40.5210820
  82.1410960  39.3253980  37.1909510  82.9901490  39.7624130  37.1249700
  81.7742230  39.6374240  38.0181570  92.7698730  38.6533560  48.6579720
  92.2672330  39.3938960  48.9973530  93.5855390  39.0417560  48.3416510
  91.0620740  43.8966740  42.1041080  90.1210880  43.9116970  42.2788770
  91.3764810  43.1102700  42.5501380  81.0402380  45.5786340  35.6645040
  81.8065650  45.4667700  36.2270470  81.1177070  44.8824310  35.0121810
  79.7349140  43.0111410  36.3477930  79.8152730  42.0638920  36.4595330
  80.6268890  43.3418290  36.4538590  93.0646320  51.0675590  43.7795340
  93.1893740  51.8906760  44.2519150  93.9311880  50.8566320  43.4319490
  80.5363850  53.1606800  43.4512470  81.2726330  52.6122260  43.7221040
  80.9204770  54.0262810  43.3118460  77.4209330  49.2280370  39.3253980
  76.4949110  49.4701510  39.3159390  77.8865760  50.0554630  39.2038730
  79.5422130  52.3452870  52.6398050  80.3434860  52.6664920  53.0533450
  79.0273950  51.9848450  53.3617960  83.6466160  52.3337110  35.2738040
  84.4394770  52.6225940  34.8219830  83.1270510  51.9029280  34.5950520
  88.3786760  48.4532740  52.5873460  87.7724920  48.4764340  51.8469210
  88.0740870  47.7215780  53.1240710  89.8087130  52.1813030  51.1982870
  90.7608880  52.0971050  51.1483110  89.6615350  52.8454740  51.8716660
  92.6996330  51.5607240  36.6974780  92.4137840  51.1472380  35.8828960
  92.5015880  52.4894950  36.5775300  77.2619940  44.8326330  51.5834100
  77.7658960  44.2533610  52.1550330  76.5227360  45.1166560  52.1210470
  84.1643560  47.5540520  35.1380390  84.0594200  46.9392870  35.8641770
  83.9967780  47.0306410  34.3543400  84.3157880  46.2397320  51.1169620
  83.5503550  46.8082320  51.0324290  84.4973840  45.9473530  50.2237850
  87.4046290  46.6160550  35.7422380  86.8556390  47.0629850  36.3865120
  88.0265550  46.1109800  36.2660050  91.4581230  47.9702650  51.6744640
  92.1990700  48.3078410  51.1712100  90.6953910  48.1394710  51.1214410
  79.2943020  42.9755920  52.4784170  79.3348360  42.6769790  53.3869400
  80.1488520  43.3763530  52.3191690  83.0721410  45.5751470  37.6387680
  83.4937830  45.4091340  38.4819070  83.1972250  44.7651700  37.1442820
  81.2348830  41.5548020  50.4458660  80.7045290  41.0638970  49.8182000
  81.9036900  41.9832220  49.9116590  85.5849050  44.5989080  34.8864780
  86.1054710  43.8838100  34.5205930  86.2317450  45.2374950  35.1865290
  90.1326890  46.0217480  50.2099850  90.5467910  46.1762560  51.0590270
  89.1977890  46.1472700  50.3725630  90.6049060  43.3613640  52.2139000
  91.1869830  42.6065960  52.1259480  90.7810830  43.8921080  51.4370480
  81.7221130  38.5210390  50.5255950  81.6278000  37.9031140  49.8006820
  81.1418520  39.2476680  50.2985860  84.4882570  37.0783630  47.5583340
  84.0399870  37.1007890  46.7128890  83.8547770  36.6802650  48.1553640
  84.8942120  45.9737960  48.1795780  85.3130230  46.8170690  48.0072020
  83.9750750  46.1110000  47.9502560  87.2306020  43.7054140  49.5633620
  87.3502230  43.1095280  50.3028460  88.0900020  43.7423830  49.1434920
  89.5693920  44.2591330  48.1396130  89.0429140  44.7833950  47.5361270
  89.9125260  44.8918720  48.7705860  81.9680310  41.6484700  34.5845840
  81.7669370  40.7852060  34.9459180  81.7972360  41.5618060  33.6467440
  82.7449540  52.2790970  49.2953510  82.2070630  53.0037030  48.9762210
  82.9983500  51.8021310  48.5050850  83.9974790  40.2475490  50.8209440
  84.5874480  39.9391340  51.5087260  83.1795030  39.7755240  50.9769340
  88.8168220  39.8641300  51.0542460  88.1283740  39.2022840  50.9892450
  89.5374240  39.4179570  51.4990920  89.4468620  36.4592930  37.1132720
  89.7270910  35.6160830  37.4692140  88.6734350  36.6916040  37.6271470
  80.7663110  38.7485320  34.5723720  81.0689010  38.7552750  33.6642870
  81.5057700  38.3983180  35.0691380  85.6011750  53.5142180  49.5540160
  85.5270450  54.4177320  49.8612530  84.6990590  53.1954080  49.5262230
  83.9848040  37.6919940  35.5579920  83.6370040  37.0143930  34.9782370
  84.1860810  37.2309450  36.3723310  86.1497080  52.6800690  37.1766520
  87.0447870  53.0185660  37.1985280  86.1814710  51.9580100  36.5490800
  79.7893240  48.0527740  35.4053520  80.2268110  48.5957410  36.0611100
  80.2740970  47.2274690  35.4149860  77.0039040  50.8416770  42.8573780
  77.3342050  49.9737830  42.6252420  77.4330040  51.0475290  43.6878740
  81.6000960  49.1725780  40.5175750  81.2996500  49.0490750  41.4179660
  81.4938450  48.3134370  40.1091480  77.4929250  51.7087360  45.5955410
  77.0560240  51.8888160  46.4279560  78.0606930  52.4661980  45.4537130
  93.1291430  51.2104360  49.8832720  92.5293420  51.2696920  49.1396640
  93.2585330  50.2709340  50.0129570  94.3692880  48.9522180  35.2202430
  93.5385840  49.0198830  35.6909660  94.5464710  49.8426300  34.9169290
  93.8249340  45.6969660  37.7236630  94.5868250  46.2666310  37.8296320
  93.8403710  45.1296860  38.4944940  77.3253680  44.2207590  41.9544290
  76.6702520  43.9519230  41.3103990  78.1631630  44.1112070  41.5046270
  94.8309310  46.5519760  42.5678560  95.2018140  45.7687080  42.1614530
  95.4711240  47.2408860  42.3895860  91.8143070  47.9356340  47.9808880
  91.0002910  48.3653500  48.2434670  92.2217270  48.5474750  47.3677930
  93.8768510  45.9904030  34.8809150  94.1517350  46.8982910  34.7528370
  93.6879250  45.9266560  35.8171140  90.2744120  39.0148880  36.1762780
  90.6929000  38.8279860  35.3359440  89.9680180  38.1627930  36.4865710
  93.7733850  43.9273020  39.8738580  93.3977450  43.1600950  39.4419870
  93.0436970  44.3095720  40.3613510  78.3629610  44.6060160  46.4947630
  78.7302650  44.5187560  47.3743650  77.7940430  43.8426710  46.3954490
  93.1633470  43.0744540  49.5078100  92.9319560  42.8457290  48.6076050
  93.4238020  43.9944090  49.4622990  77.9145610  41.5169250  50.4006050
  77.0201660  41.4836010  50.7399760  78.4543160  41.7156040  51.1657300
  91.6021540  38.3000970  52.2857800  92.4791720  38.3084370  52.6691800
  91.6142380  37.5631810  51.6750150  76.5391760  41.4306520  37.8969620
  75.6355840  41.6936720  37.7221280  77.0232380  41.7017690  37.1169580
  93.0484810  42.1530510  43.1745820  93.5722290  41.6593160  42.5435990
  93.6344230  42.2880870  43.9193390  93.2274530  42.2370380  46.6965370
  92.2777240  42.2033920  46.8110360  93.4087540  43.1470490  46.4615140
  79.0818970  40.4872060  35.8064000  79.7910670  40.0655280  35.3211280
  78.3658910  40.5547290  35.1747350  78.7293130  36.5411390  34.8466650
  79.4521260  37.0820330  35.1647870  79.0017650  36.2674810  33.9708190
  92.5384780  41.4103860  39.1138230  93.0343900  41.1774730  39.8987110
  92.3400850  40.5715700  38.6975870  78.4185320  35.7917580  44.7489270
  79.0661510  35.2414960  44.3084430  78.8387160  36.0460730  45.5705080
  93.9671940  40.0464810  41.6475910  93.8571220  39.8920850  42.5858180
  94.7279530  39.5185750  41.4051320  92.3137660  35.9858940  48.1058910
  92.9509880  36.5993080  48.4718100  92.4612550  36.0219600  47.1608140
  94.8562210  37.8772730  34.8882050  95.7811520  37.7453910  34.6800340
  94.8338000  37.9565550  35.8418500  94.9300700  38.6483390  37.5138760
  94.1352200  38.5828510  38.0431670  95.1343980  39.5834030  37.5024110
  91.8719120  52.6874940  41.5077150  92.4678190  52.3659510  40.8311570
  92.1297270  52.2146760  42.2990420  78.1717320  35.9473250  47.4914590
  77.8232140  36.4037070  48.2572770  77.8405020  35.0530380  47.5737020
  79.7781690  49.1192850  51.6567780  79.7351320  48.7485760  52.5382240
  79.9092700  50.0570420  51.7969600  83.4787720  50.6752440  47.2577500
  83.2379080  50.9427000  46.3708020  84.4190360  50.8458170  47.3128360
  85.6842140  37.1385130  51.0134010  85.6231030  37.7306960  51.7629420
  86.6242520  37.0311090  50.8684270  88.3216700  36.7955190  50.6526300
  88.9357110  37.1134480  49.9907380  88.8666260  36.3103780  51.2722160
  94.7391880  52.6946820  48.0588140  94.2450160  53.0915690  47.3415270
  94.1305170  52.0696030  48.4525420  78.8437960  35.4749450  50.7665360
  79.3920950  35.2937500  50.0031470  78.9093270  34.6843560  51.3021670
  79.6169720  52.0655100  48.7765560  79.0230040  51.9339800  49.5155600
  79.6093560  51.2293240  48.3107660  89.0624740  35.3587330  46.9795590
  88.1884580  35.6922440  46.7768520  88.9535490  34.8860510  47.8047460
  89.9696720  37.5658200  48.3637310  89.6410080  36.7509960  47.9839040
  90.9179020  37.5228010  48.2403000  92.4231330  53.3370240  45.3374880
  91.9634300  54.0886050  44.9632900  91.7943790  52.6176710  45.2789680
  79.2481950  49.4313480  47.7273600  78.5216010  48.8118770  47.6599550
  79.3091100  49.8254090  46.8571680  82.8527050  51.6458480  44.5123010
  83.3692070  51.0345840  43.9871270  83.5024430  52.1487260  45.0034020
  85.5922550  52.5366970  45.3391990  85.8800360  52.2821270  44.4625000
  86.1045770  51.9844330  45.9297560  86.8099560  36.2757170  45.9188500
  86.0271350  36.7502670  46.1985260  86.5162490  35.3712000  45.8101680
  91.3620630  36.9780270  43.9637590  91.8028720  36.9225370  43.1159190
  91.0928220  37.8938280  44.0347770  93.2259200  36.6095510  41.9746410
  93.1647600  35.6656730  41.8277430  94.0051230  36.7175600  42.5199870
  77.5311950  52.7487870  40.9370360  77.3633990  52.1158550  41.6352250
  76.6646460  52.9547270  40.5864550  78.1539970  36.5804650  38.4402220
  78.9119330  36.6933530  37.8666250  77.6917140  37.4173850  38.3945650
  84.6953780  38.6943920  41.4304530  83.8828290  38.3200810  41.0900410
  85.1995420  37.9389000  41.7325720  89.1978760  35.3586370  42.6687600
  89.8008130  35.9306580  43.1436120  88.4571750  35.9225810  42.4461500
  92.3413360  35.7607930  37.9427880  92.5363990  36.6591380  38.2095310
  91.5543230  35.5295010  38.4360830  79.1374650  51.4421100  38.3820500
  78.6122270  51.8229130  37.6782460  79.0619230  52.0671870  39.1030210
  80.5265120  37.1068700  36.9804190  81.0557880  36.3198500  36.8512140
  81.1593440  37.7859890  37.2139720  82.7202960  36.8443840  40.0349580
  82.0905700  36.1431150  40.2019710  82.1808100  37.6047970  39.8182740
  85.6594910  53.4583070  52.7060190  86.5862220  53.2227340  52.7496150
  85.6445340  54.2855070  52.2246220  93.8939970  53.0008640  39.7034440
  94.0692160  52.3146380  39.0595360  93.1961540  53.5255690  39.3111110
  82.8458520  36.1227820  52.4702070  82.5642790  36.6261420  51.7062890
  83.2278220  35.3249570  52.1044200  81.7367620  53.3903480  37.2569750
  82.4686440  53.1062760  36.7093640  81.9961290  53.1516760  38.1469130
  80.8982410  49.5068210  37.2616080  80.2691290  49.9753310  37.8101910
  81.0130240  48.6617430  37.6962270  89.4473980  35.5381400  53.0482540
  89.3339430  35.8576010  53.9434060  90.2643720  35.9393910  52.7519820
  92.2272470  52.6852930  52.5301230  93.0197790  52.1902160  52.3227190
  92.5205620  53.3643070  53.1376840  88.3532130  43.5573870  23.4117280
  88.2726180  42.6428480  23.1408990  87.9396550  44.0540940  22.7056990
  86.4850170  45.3352890  25.2926550  85.7092270  44.8553330  25.5825120
  87.1363100  44.6558540  25.1182710  80.5016000  45.6472700  26.1702310
  79.6700880  45.3921410  26.5698820  81.1096980  45.7183470  26.9060230
  90.5057600  49.7413080  24.0725680  90.0439130  48.9700320  24.4012850
  91.3183150  49.7679150  24.5778130  80.4817260  49.6812790  26.3660330
  80.7845300  48.7910530  26.1870550  81.2260850  50.2383010  26.1382580
  78.9107950  40.6074590  19.9544700  78.0224650  40.9490560  19.8524580
  79.1949140  40.4074910  19.0625530  76.8740960  43.2080240  25.8384400
  77.4457070  42.4402440  25.8388040  76.8742500  43.5069000  24.9291010
  86.7320910  52.0271090  23.6929670  86.1132350  52.4828590  23.1224110
  87.5872690  52.1822550  23.2919370  85.9259160  48.0110080  25.2996710
  85.8567440  47.0700020  25.1385840  86.6879020  48.1011490  25.8719280
  78.1165830  38.6164600  27.6253330  77.9368670  37.7190350  27.9056090
  77.7145910  39.1636470  28.3000280  86.9564330  40.8180460  25.5265640
  87.3329150  39.9452340  25.4139310  86.8583840  41.1539160  24.6356080
  81.0869340  39.1906090  20.9883080  81.1936090  40.0909820  21.2951840
  80.1761700  39.1424060  20.6977730  90.7388450  38.3130900  22.4593980
  91.5598070  37.8227470  22.5019460  90.7722530  38.9028560  23.2125820
  78.7352500  41.1125100  26.2335670  79.4162610  41.3763470  26.8523070
  78.4200550  40.2725970  26.5673680  82.9277070  42.1592460  25.3208260
  83.4355290  42.6573430  25.9613280  83.4590310  41.3827660  25.1447620
  95.0288000  40.3297650  29.0237610  94.3240170  40.7179360  28.5052720
  95.2945920  41.0247940  29.6258540  81.2113170  36.7991020  29.5871680
  81.2131610  37.3163410  28.7817580  80.3817480  36.3221200  29.5641610
  87.5984260  46.9110330  21.0861580  86.9801530  47.3759780  20.5224300
  88.1107510  47.6037810  21.5031090  82.4616020  46.4386200  27.7645180
  82.1285400  47.0655120  28.4066250  82.6382700  46.9648080  26.9846850
  90.9749930  40.2531280  25.2321520  90.2705500  40.5416170  25.8124630
  91.3362090  41.0631390  24.8721080  80.8928500  38.5100980  27.5942130
  81.2345310  39.3543030  27.2996000  79.9544310  38.6584720  27.7107470
  81.6735120  48.4067000  29.5794360  82.2909120  49.0818080  29.2978810
  80.8128240  48.8154980  29.4881860  76.9667460  47.5966860  18.4601210
  76.5895440  48.0853960  17.7286110  77.2240530  48.2692140  19.0907740
  92.5912710  49.8706410  27.4949000  91.9076230  50.5405520  27.4865670
  93.1307000  50.0687060  26.7293860  94.0436850  39.6986070  25.6230730
  93.0961760  39.7325050  25.7546160  94.3686840  40.5125020  26.0080090
  84.5756390  35.9983250  23.9186720  84.8831370  35.4430140  23.2022220
  83.6457090  36.1327710  23.7359710  90.1271450  51.7150540  26.2094180
  90.1398610  51.3112830  25.3416440  89.5746670  52.4897830  26.1055610
  91.4216870  48.4366760  21.2984350  91.3113200  47.4941090  21.4233770
  91.4185120  48.7982400  22.1847110  89.5256890  46.6180380  27.5376790
  89.9425680  46.4040490  26.7030250  90.2496710  46.8753170  28.1085410
  86.9637150  44.0632080  20.6546840  86.0366430  43.9969460  20.8835310
  87.1161970  45.0012210  20.5402080  86.9506230  40.3349080  17.6514000
  86.0109900  40.4963040  17.7366460  87.2689490  41.0534760  17.1049990
  93.4718990  45.0167600  27.6293030  92.6437620  45.0860690  27.1543160
  94.0669470  45.6021910  27.1608860  90.9934440  45.6252380  21.1582090
  90.3746860  45.2871930  20.5108390  90.9758890  44.9812140  21.8661280
  90.4361000  41.8036920  28.5747900  90.0232180  42.6290630  28.8287890
  89.7036950  41.2181960  28.3824260  82.5693790  44.5896820  23.4366570
  82.1650790  43.8774070  22.9412470  82.6556910  44.2450060  24.3254610
  83.0375490  48.2764380  25.6005780  82.7403780  47.6709850  24.9213560
  83.9875310  48.3141690  25.4895140  81.2822410  41.3640030  27.2165610
  81.8337000  41.4735370  26.4418860  81.7965920  41.7377630  27.9320840
  91.1261100  51.8496250  29.2628880  90.6491660  52.6568440  29.0701490
  90.4422890  51.1974580  29.4155090  82.1293920  48.0146070  32.2513580
  81.2322450  48.2386040  32.4986980  82.1546790  48.1381010  31.3024980
  89.1699140  44.8639190  18.1654840  89.6092420  44.0261620  18.0192660
  89.8827560  45.4968590  18.2518980  80.9565140  44.8859390  30.8270950
  80.8172910  45.7582190  31.1958350  80.0746500  44.5432200  30.6818890
  87.2794520  49.8035260  22.1336080  87.7190430  50.5459590  21.7191470
  87.2181410  50.0461830  23.0575040  82.7545490  50.8281090  33.0356100
  82.7260920  51.2324040  32.1684530  82.5910460  49.8991450  32.8727700
  92.7516280  36.1182000  16.4795880  92.4388940  36.2108830  17.3794950
  93.5128750  36.6963030  16.4293310  79.2698420  43.4841800  20.9373220
  79.1496020  44.2103890  20.3254490  78.9599310  42.7144710  20.4601130
  94.7060310  51.6108190  34.3320270  95.1820030  52.0891080  35.0109350
  95.3267470  51.5425680  33.6065770  76.9083790  46.6556940  26.7441860
  76.9864210  46.7905710  25.7997580  77.5225470  45.9472830  26.9369980
  78.1531420  48.3557130  23.1548040  77.7459500  48.4971720  22.3001640
  79.0444430  48.0717290  22.9519250  94.1093560  48.8021040  31.4920280
  94.2356620  48.5632920  30.5737460  94.1514940  47.9705580  31.9642360
  87.9710300  52.5049040  30.0615090  88.4854970  52.4157050  30.8637520
  87.1279380  52.8508740  30.3543000  89.9464700  52.7904380  19.4899090
  89.7865840  52.5007320  20.3880920  89.7811410  52.0144510  18.9544320
  82.4253080  52.5702910  21.2670710  82.2495560  51.6538450  21.0538510
  81.5708820  52.9290200  21.5068510  89.6490830  50.2991940  18.0497090
  88.9555990  50.2969230  17.3899370  90.3913690  49.8751260  17.6191260
  89.2140760  51.9254650  22.1245580  89.6697710  51.1444030  22.4384200
  89.5533280  52.6361470  22.6686760  93.9617570  40.8553500  32.4570020
  93.3461840  41.3633170  31.9285480  93.6413990  39.9551830  32.3995960
  76.9643310  47.6971110  29.2836320  77.1274350  47.2276470  28.4655690
  77.4295760  47.1894670  29.9485160  81.7362080  36.8276870  24.3196890
  81.2930230  37.6086410  23.9881410  82.2947070  37.1506760  25.0267830
  86.0231890  39.6945390  29.9232210  85.5611260  39.9028410  30.7352150
  85.6210000  38.8804740  29.6202880  91.0236400  40.9154340  31.0528870
  90.1729990  40.6160090  31.3737940  90.8638190  41.1596350  30.1412690
  88.1186110  42.4156090  33.1527660  88.4439520  41.5819840  32.8129890
  88.9066440  42.9384610  33.3005990  84.8520900  36.4487570  19.2002720
  84.2275080  36.4447440  19.9256030  84.7651020  35.5818530  18.8038690
  83.7737980  37.3724200  26.1786490  84.0710310  38.2787030  26.0978510
  84.3223540  36.8842980  25.5646060  81.5276300  41.9510440  22.0478140
  81.3017220  41.7347610  22.9524760  80.7468830  42.3838900  21.7024110
  88.7574060  41.9573810  20.6468790  88.1582950  42.6809610  20.4632410
  89.3053670  41.8950590  19.8645240  83.9675510  42.8496020  32.7138410
  83.8719110  41.9090750  32.5638810  84.8107490  43.0711090  32.3186480
  87.3638930  40.5937350  22.6772070  87.7568500  40.9109550  21.8640760
  87.7255780  39.7149230  22.7916590  79.0986050  39.2609690  30.8672190
  78.7049440  40.1084900  31.0744970  78.4104450  38.6236060  31.0580830
  85.6731100  39.3444660  33.9368930  84.9829420  39.1516860  34.5715020
  86.4163400  39.6279300  34.4693230  76.4003100  37.1838150  24.9002270
  76.1116150  37.7541010  25.6127250  77.1448860  36.7042600  25.2633500
  76.5873330  41.1258270  16.1104990  76.5048000  42.0689030  16.2519980
  76.2356390  40.9833180  15.2317340  87.9494070  43.1843100  26.7722850
  87.2175190  43.6929910  27.1212950  87.5518410  42.3673080  26.4711630
  84.3871460  39.8597300  25.1775340  84.3907520  39.4187250  24.3279880
  85.2822580  40.1814630  25.2847160  80.2373840  39.7423790  24.1369550
  79.8973890  40.2199020  24.8936600  79.4751160  39.2888910  23.7770650
  84.4491610  40.8609380  18.1682100  84.5704430  40.8195860  19.1167920
  84.0640120  41.7233530  18.0128830  88.4119980  38.6376780  26.1845790
  88.4292720  39.0885430  27.0287640  88.1635560  37.7382420  26.3979230
  83.4613110  43.1710520  17.5665400  82.8930010  42.7228770  16.9401310
  84.1702110  43.5303300  17.0330550  91.8390730  36.0508960  32.0232170
  92.1636500  35.3198620  32.5490150  91.8747240  35.7322600  31.1213160
  78.5382290  47.0722540  31.4432130  78.1537080  46.4316210  32.0415090
  78.8494480  47.7758660  32.0126860  84.6879430  43.9199080  26.9240750
  85.0549560  43.4457650  27.6702090  84.4984490  44.7940650  27.2649090
  77.5519920  38.6642770  23.0534220  77.2666840  38.2998440  23.8912840
  77.4898780  37.9323230  22.4397360  82.4778800  42.9607720  29.2424960
  82.1735870  43.8399700  29.4675320  83.4325260  43.0207510  29.2782400
  81.0060590  47.1668710  19.8391810  80.2322850  46.6266330  19.6790530
  81.7355220  46.6475320  19.5009570  91.7648570  46.1634070  25.6318200
  92.4847690  46.6589360  25.2414310  91.5630390  45.4851960  24.9872070
  87.2258510  37.5572030  19.7747590  86.4123120  37.0585200  19.6992900
  87.0320460  38.3970280  19.3583940  87.1467370  46.2343130  31.5187200
  87.0804680  45.3138800  31.2644790  86.5172510  46.3318570  32.2331840
  89.9406900  41.9291680  18.0709750  90.8286520  42.2408910  17.8961090
  89.9111990  41.0563930  17.6790330  81.0497990  46.8349090  23.4770620
  81.5676660  46.0317350  23.4227510  80.5982010  46.7728230  24.3187450
  85.9367490  48.1015370  18.7497920  86.2783190  48.8457600  18.2541240
  85.1080200  48.4146490  19.1122750  78.5342530  43.8010460  30.3896320
  78.1757470  44.4664310  30.9769660  78.2397090  42.9694010  30.7608940
  81.7355650  44.2594700  33.2735870  81.4355790  44.4051880  32.3763690
  82.5066890  43.6999990  33.1809260  87.0784100  49.0563700  31.2691000
  87.0928640  48.1244660  31.0509910  86.3709200  49.1423460  31.9080770
  92.2121170  43.2403520  17.5389610  92.1284890  43.6717740  16.6886050
  92.9315360  43.7001870  17.9716430  93.2895310  45.6971040  30.6159580
  92.5643500  46.2899820  30.4188970  93.8170770  45.6894580  29.8172950
  93.2408420  50.0945780  20.2671740  92.5984580  49.4401400  20.5415460
  92.8539080  50.5000870  19.4912410  88.8194900  47.4231210  24.1143430
  89.1718720  46.8259340  23.4544800  87.9357230  47.0975440  24.2851680
  84.9058180  48.1828900  21.5213840  85.5929310  48.7298110  21.9021430
  84.1190600  48.7269630  21.5563450  77.0450580  43.8001720  17.0130920
  77.9145430  44.0826520  17.2966840  76.5540900  44.6137590  16.8979730
  84.2085390  45.1874930  21.1339200  84.6648170  45.9980180  21.3599390
  83.8573600  44.8698070  21.9657690  86.5118000  50.6981270  28.3631500
  87.1560220  50.9040650  29.0404920  86.8747440  49.9369670  27.9102350
  80.1097170  35.5312580  21.6061720  79.9811800  35.5230480  22.5546640
  79.2859190  35.8695670  21.2552730  87.7850080  48.7013620  27.0808950
  88.4272310  48.0006780  27.1941120  88.3099430  49.4812060  26.9005840
  91.6305800  48.9862240  16.8048090  91.4043380  48.2692680  17.3972730
  91.2402000  48.7374680  15.9669840  89.5587700  49.5008520  30.2845010
  89.8943940  50.0875210  30.9622930  88.6388040  49.3701230  30.5142800
  77.4121830  53.0129100  17.5792550  77.7719470  53.6118440  16.9249820
  77.2714170  53.5588990  18.3527580  77.1091100  37.2903700  31.0668420
  76.3949620  37.4900620  31.6721030  77.5286140  36.5143270  31.4383220
  91.2122050  46.9034180  18.4662250  90.9243750  47.3646870  19.2540130
  92.0074220  46.4431950  18.7346470  77.3963690  51.2783960  32.0534950
  77.5054810  50.3378700  31.9130340  76.7444250  51.5438710  31.4048680
  85.3876280  49.5499850  33.4533070  85.0673150  48.8309090  33.9978760
  84.7134640  50.2254920  33.5269130  83.4290450  50.3960300  18.3966220
  83.4200550  51.1289990  17.7810730  82.5088810  50.1491880  18.4893180
  79.0297090  45.6175190  19.1412980  78.4225040  46.3574090  19.1508280
  79.5046440  45.7074550  18.3151180  88.6029880  39.7826010  28.8169870
  88.9710700  38.9621220  29.1449440  87.7428080  39.8427900  29.2325520
  91.9691910  38.7382950  19.6257430  91.3405070  38.8428620  18.9115660
  91.4743830  38.9579730  20.4151310  86.4150050  50.4588540  17.0591410
  86.5162030  50.2552530  16.1293390  85.5151790  50.2046820  17.2639190
  83.9375940  41.0168900  21.0415310  83.2292090  41.4855240  21.4828920
  84.2220420  40.3590910  21.6760500  85.5631870  42.4365600  29.0407840
  86.0617120  42.9111420  29.7059690  85.7054820  41.5129120  29.2477870
  87.9691370  37.7419560  22.4811100  87.8459150  37.7605690  21.5320610
  88.9175930  37.7898500  22.6009500  85.0568160  52.9774860  21.7539080
  85.3109660  52.9396250  20.8318450  84.1080640  52.8508190  21.7467330
  82.1410960  39.3253980  18.4166020  82.9901490  39.7624130  18.3506210
  81.7742230  39.6374240  19.2438080  92.7698730  38.6533560  29.8836230
  92.2672330  39.3938960  30.2230040  93.5855390  39.0417560  29.5673020
  91.0620740  43.8966740  23.3297590  90.1210880  43.9116970  23.5045280
  91.3764810  43.1102700  23.7757890  81.0402380  45.5786340  16.8901550
  81.8065650  45.4667700  17.4526980  81.1177070  44.8824310  16.2378320
  79.7349140  43.0111410  17.5734440  79.8152730  42.0638920  17.6851840
  80.6268890  43.3418290  17.6795100  93.0646320  51.0675590  25.0051850
  93.1893740  51.8906760  25.4775660  93.9311880  50.8566320  24.6576000
  80.5363850  53.1606800  24.6768980  81.2726330  52.6122260  24.9477550
  80.9204770  54.0262810  24.5374970  77.4209330  49.2280370  20.5510490
  76.4949110  49.4701510  20.5415900  77.8865760  50.0554630  20.4295240
  79.5422130  52.3452870  33.8654560  80.3434860  52.6664920  34.2789960
  79.0273950  51.9848450  34.5874470  83.6466160  52.3337110  16.4994550
  84.4394770  52.6225940  16.0476340  83.1270510  51.9029280  15.8207030
  88.3786760  48.4532740  33.8129970  87.7724920  48.4764340  33.0725720
  88.0740870  47.7215780  34.3497220  89.8087130  52.1813030  32.4239380
  90.7608880  52.0971050  32.3739620  89.6615350  52.8454740  33.0973170
  92.6996330  51.5607240  17.9231290  92.4137840  51.1472380  17.1085470
  92.5015880  52.4894950  17.8031810  77.2619940  44.8326330  32.8090610
  77.7658960  44.2533610  33.3806840  76.5227360  45.1166560  33.3466980
  84.1643560  47.5540520  16.3636900  84.0594200  46.9392870  17.0898280
  83.9967780  47.0306410  15.5799910  84.3157880  46.2397320  32.3426130
  83.5503550  46.8082320  32.2580800  84.4973840  45.9473530  31.4494360
  87.4046290  46.6160550  16.9678890  86.8556390  47.0629850  17.6121630
  88.0265550  46.1109800  17.4916560  91.4581230  47.9702650  32.9001150
  92.1990700  48.3078410  32.3968610  90.6953910  48.1394710  32.3470920
  79.2943020  42.9755920  33.7040680  79.3348360  42.6769790  34.6125910
  80.1488520  43.3763530  33.5448200  83.0721410  45.5751470  18.8644190
  83.4937830  45.4091340  19.7075580  83.1972250  44.7651700  18.3699330
  81.2348830  41.5548020  31.6715170  80.7045290  41.0638970  31.0438510
  81.9036900  41.9832220  31.1373100  85.5849050  44.5989080  16.1121290
  86.1054710  43.8838100  15.7462440  86.2317450  45.2374950  16.4121800
  90.1326890  46.0217480  31.4356360  90.5467910  46.1762560  32.2846780
  89.1977890  46.1472700  31.5982140  90.6049060  43.3613640  33.4395510
  91.1869830  42.6065960  33.3515990  90.7810830  43.8921080  32.6626990
  81.7221130  38.5210390  31.7512460  81.6278000  37.9031140  31.0263330
  81.1418520  39.2476680  31.5242370  84.4882570  37.0783630  28.7839850
  84.0399870  37.1007890  27.9385400  83.8547770  36.6802650  29.3810150
  84.8942120  45.9737960  29.4052290  85.3130230  46.8170690  29.2328530
  83.9750750  46.1110000  29.1759070  87.2306020  43.7054140  30.7890130
  87.3502230  43.1095280  31.5284970  88.0900020  43.7423830  30.3691430
  89.5693920  44.2591330  29.3652640  89.0429140  44.7833950  28.7617780
  89.9125260  44.8918720  29.9962370  81.9680310  41.6484700  15.8102350
  81.7669370  40.7852060  16.1715690  81.7972360  41.5618060  14.8723950
  82.7449540  52.2790970  30.5210020  82.2070630  53.0037030  30.2018720
  82.9983500  51.8021310  29.7307360  83.9974790  40.2475490  32.0465950
  84.5874480  39.9391340  32.7343770  83.1795030  39.7755240  32.2025850
  88.8168220  39.8641300  32.2798970  88.1283740  39.2022840  32.2148960
  89.5374240  39.4179570  32.7247430  89.4468620  36.4592930  18.3389230
  89.7270910  35.6160830  18.6948650  88.6734350  36.6916040  18.8527980
  80.7663110  38.7485320  15.7980230  81.0689010  38.7552750  14.8899380
  81.5057700  38.3983180  16.2947890  85.6011750  53.5142180  30.7796670
  85.5270450  54.4177320  31.0869040  84.6990590  53.1954080  30.7518740
  83.9848040  37.6919940  16.7836430  83.6370040  37.0143930  16.2038880
  84.1860810  37.2309450  17.5979820  86.1497080  52.6800690  18.4023030
  87.0447870  53.0185660  18.4241790  86.1814710  51.9580100  17.7747310
  79.7893240  48.0527740  16.6310030  80.2268110  48.5957410  17.2867610
  80.2740970  47.2274690  16.6406370  77.0039040  50.8416770  24.0830290
  77.3342050  49.9737830  23.8508930  77.4330040  51.0475290  24.9135250
  81.6000960  49.1725780  21.7432260  81.2996500  49.0490750  22.6436170
  81.4938450  48.3134370  21.3347990  77.4929250  51.7087360  26.8211920
  77.0560240  51.8888160  27.6536070  78.0606930  52.4661980  26.6793640
  93.1291430  51.2104360  31.1089230  92.5293420  51.2696920  30.3653150
  93.2585330  50.2709340  31.2386080  94.3692880  48.9522180  16.4458940
  93.5385840  49.0198830  16.9166170  94.5464710  49.8426300  16.1425800
  93.8249340  45.6969660  18.9493140  94.5868250  46.2666310  19.0552830
  93.8403710  45.1296860  19.7201450  77.3253680  44.2207590  23.1800800
  76.6702520  43.9519230  22.5360500  78.1631630  44.1112070  22.7302780
  94.8309310  46.5519760  23.7935070  95.2018140  45.7687080  23.3871040
  95.4711240  47.2408860  23.6152370  91.8143070  47.9356340  29.2065390
  91.0002910  48.3653500  29.4691180  92.2217270  48.5474750  28.5934440
  93.8768510  45.9904030  16.1065660  94.1517350  46.8982910  15.9784880
  93.6879250  45.9266560  17.0427650  90.2744120  39.0148880  17.4019290
  90.6929000  38.8279860  16.5615950  89.9680180  38.1627930  17.7122220
  93.7733850  43.9273020  21.0995090  93.3977450  43.1600950  20.6676380
  93.0436970  44.3095720  21.5870020  78.3629610  44.6060160  27.7204140
  78.7302650  44.5187560  28.6000160  77.7940430  43.8426710  27.6211000
  93.1633470  43.0744540  30.7334610  92.9319560  42.8457290  29.8332560
  93.4238020  43.9944090  30.6879500  77.9145610  41.5169250  31.6262560
  77.0201660  41.4836010  31.9656270  78.4543160  41.7156040  32.3913810
  91.6021540  38.3000970  33.5114310  92.4791720  38.3084370  33.8948310
  91.6142380  37.5631810  32.9006660  76.5391760  41.4306520  19.1226130
  75.6355840  41.6936720  18.9477790  77.0232380  41.7017690  18.3426090
  93.0484810  42.1530510  24.4002330  93.5722290  41.6593160  23.7692500
  93.6344230  42.2880870  25.1449900  93.2274530  42.2370380  27.9221880
  92.2777240  42.2033920  28.0366870  93.4087540  43.1470490  27.6871650
  79.0818970  40.4872060  17.0320510  79.7910670  40.0655280  16.5467790
  78.3658910  40.5547290  16.4003860  78.7293130  36.5411390  16.0723160
  79.4521260  37.0820330  16.3904380  79.0017650  36.2674810  15.1964700
  92.5384780  41.4103860  20.3394740  93.0343900  41.1774730  21.1243620
  92.3400850  40.5715700  19.9232380  78.4185320  35.7917580  25.9745780
  79.0661510  35.2414960  25.5340940  78.8387160  36.0460730  26.7961590
  93.9671940  40.0464810  22.8732420  93.8571220  39.8920850  23.8114690
  94.7279530  39.5185750  22.6307830  92.3137660  35.9858940  29.3315420
  92.9509880  36.5993080  29.6974610  92.4612550  36.0219600  28.3864650
  94.8562210  37.8772730  16.1138560  95.7811520  37.7453910  15.9056850
  94.8338000  37.9565550  17.0675010  94.9300700  38.6483390  18.7395270
  94.1352200  38.5828510  19.2688180  95.1343980  39.5834030  18.7280620
  91.8719120  52.6874940  22.7333660  92.4678190  52.3659510  22.0568080
  92.1297270  52.2146760  23.5246930  78.1717320  35.9473250  28.7171100
  77.8232140  36.4037070  29.4829280  77.8405020  35.0530380  28.7993530
  79.7781690  49.1192850  32.8824290  79.7351320  48.7485760  33.7638750
  79.9092700  50.0570420  33.0226110  83.4787720  50.6752440  28.4834010
  83.2379080  50.9427000  27.5964530  84.4190360  50.8458170  28.5384870
  85.6842140  37.1385130  32.2390520  85.6231030  37.7306960  32.9885930
  86.6242520  37.0311090  32.0940780  88.3216700  36.7955190  31.8782810
  88.9357110  37.1134480  31.2163890  88.8666260  36.3103780  32.4978670
  94.7391880  52.6946820  29.2844650  94.2450160  53.0915690  28.5671780
  94.1305170  52.0696030  29.6781930  78.8437960  35.4749450  31.9921870
  79.3920950  35.2937500  31.2287980  78.9093270  34.6843560  32.5278180
  79.6169720  52.0655100  30.0022070  79.0230040  51.9339800  30.7412110
  79.6093560  51.2293240  29.5364170  89.0624740  35.3587330  28.2052100
  88.1884580  35.6922440  28.0025030  88.9535490  34.8860510  29.0303970
  89.9696720  37.5658200  29.5893820  89.6410080  36.7509960  29.2095550
  90.9179020  37.5228010  29.4659510  92.4231330  53.3370240  26.5631390
  91.9634300  54.0886050  26.1889410  91.7943790  52.6176710  26.5046190
  79.2481950  49.4313480  28.9530110  78.5216010  48.8118770  28.8856060
  79.3091100  49.8254090  28.0828190  82.8527050  51.6458480  25.7379520
  83.3692070  51.0345840  25.2127780  83.5024430  52.1487260  26.2290530
  85.5922550  52.5366970  26.5648500  85.8800360  52.2821270  25.6881510
  86.1045770  51.9844330  27.1554070  86.8099560  36.2757170  27.1445010
  86.0271350  36.7502670  27.4241770  86.5162490  35.3712000  27.0358190
  91.3620630  36.9780270  25.1894100  91.8028720  36.9225370  24.3415700
  91.0928220  37.8938280  25.2604280  93.2259200  36.6095510  23.2002920
  93.1647600  35.6656730  23.0533940  94.0051230  36.7175600  23.7456380
  77.5311950  52.7487870  22.1626870  77.3633990  52.1158550  22.8608760
  76.6646460  52.9547270  21.8121060  78.1539970  36.5804650  19.6658730
  78.9119330  36.6933530  19.0922760  77.6917140  37.4173850  19.6202160
  84.6953780  38.6943920  22.6561040  83.8828290  38.3200810  22.3156920
  85.1995420  37.9389000  22.9582230  89.1978760  35.3586370  23.8944110
  89.8008130  35.9306580  24.3692630  88.4571750  35.9225810  23.6718010
  92.3413360  35.7607930  19.1684390  92.5363990  36.6591380  19.4351820
  91.5543230  35.5295010  19.6617340  79.1374650  51.4421100  19.6077010
  78.6122270  51.8229130  18.9038970  79.0619230  52.0671870  20.3286720
  80.5265120  37.1068700  18.2060700  81.0557880  36.3198500  18.0768650
  81.1593440  37.7859890  18.4396230  82.7202960  36.8443840  21.2606090
  82.0905700  36.1431150  21.4276220  82.1808100  37.6047970  21.0439250
  85.6594910  53.4583070  33.9316700  86.5862220  53.2227340  33.9752660
  85.6445340  54.2855070  33.4502730  93.8939970  53.0008640  20.9290950
  94.0692160  52.3146380  20.2851870  93.1961540  53.5255690  20.5367620
  82.8458520  36.1227820  33.6958580  82.5642790  36.6261420  32.9319400
  83.2278220  35.3249570  33.3300710  81.7367620  53.3903480  18.4826260
  82.4686440  53.1062760  17.9350150  81.9961290  53.1516760  19.3725640
  80.8982410  49.5068210  18.4872590  80.2691290  49.9753310  19.0358420
  81.0130240  48.6617430  18.9218780  89.4473980  35.5381400  34.2739050
  89.3339430  35.8576010  35.1690570  90.2643720  35.9393910  33.9776330
  92.2272470  52.6852930  33.7557740  93.0197790  52.1902160  33.5483700
  92.5205620  53.3643070  34.3633350  88.3532130  43.5573870   4.6373790
  88.2726180  42.6428480   4.3665500  87.9396550  44.0540940   3.9313500
  86.4850170  45.3352890   6.5183060  85.7092270  44.8553330   6.8081630
  87.1363100  44.6558540   6.3439220  80.5016000  45.6472700   7.3958820
  79.6700880  45.3921410   7.7955330  81.1096980  45.7183470   8.1316740
  90.5057600  49.7413080   5.2982190  90.0439130  48.9700320   5.6269360
  91.3183150  49.7679150   5.8034640  80.4817260  49.6812790   7.5916840
  80.7845300  48.7910530   7.4127060  81.2260850  50.2383010   7.3639090
  76.8740960  43.2080240   7.0640910  77.4457070  42.4402440   7.0644550
  76.8742500  43.5069000   6.1547520  86.7320910  52.0271090   4.9186180
  86.1132350  52.4828590   4.3480620  87.5872690  52.1822550   4.5175880
  85.9259160  48.0110080   6.5253220  85.8567440  47.0700020   6.3642350
  86.6879020  48.1011490   7.0975790  78.1165830  38.6164600   8.8509840
  77.9368670  37.7190350   9.1312600  77.7145910  39.1636470   9.5256790
  86.9564330  40.8180460   6.7522150  87.3329150  39.9452340   6.6395820
  86.8583840  41.1539160   5.8612590  81.0869340  39.1906090   2.2139590
  81.1936090  40.0909820   2.5208350  80.1761700  39.1424060   1.9234240
  90.7388450  38.3130900   3.6850490  91.5598070  37.8227470   3.7275970
  90.7722530  38.9028560   4.4382330  78.7352500  41.1125100   7.4592180
  79.4162610  41.3763470   8.0779580  78.4200550  40.2725970   7.7930190
  82.9277070  42.1592460   6.5464770  83.4355290  42.6573430   7.1869790
  83.4590310  41.3827660   6.3704130  95.0288000  40.3297650  10.2494120
  94.3240170  40.7179360   9.7309230  95.2945920  41.0247940  10.8515050
  81.2113170  36.7991020  10.8128190  81.2131610  37.3163410  10.0074090
  80.3817480  36.3221200  10.7898120  87.5984260  46.9110330   2.3118090
  86.9801530  47.3759780   1.7480810  88.1107510  47.6037810   2.7287600
  82.4616020  46.4386200   8.9901690  82.1285400  47.0655120   9.6322760
  82.6382700  46.9648080   8.2103360  90.9749930  40.2531280   6.4578030
  90.2705500  40.5416170   7.0381140  91.3362090  41.0631390   6.0977590
  80.8928500  38.5100980   8.8198640  81.2345310  39.3543030   8.5252510
  79.9544310  38.6584720   8.9363980  81.6735120  48.4067000  10.8050870
  82.2909120  49.0818080  10.5235320  80.8128240  48.8154980  10.7138370
  92.5912710  49.8706410   8.7205510  91.9076230  50.5405520   8.7122180
  93.1307000  50.0687060   7.9550370  94.0436850  39.6986070   6.8487240
  93.0961760  39.7325050   6.9802670  94.3686840  40.5125020   7.2336600
  84.5756390  35.9983250   5.1443230  84.8831370  35.4430140   4.4278730
  83.6457090  36.1327710   4.9616220  90.1271450  51.7150540   7.4350690
  90.1398610  51.3112830   6.5672950  89.5746670  52.4897830   7.3312120
  91.4216870  48.4366760   2.5240860  91.3113200  47.4941090   2.6490280
  91.4185120  48.7982400   3.4103620  89.5256890  46.6180380   8.7633300
  89.9425680  46.4040490   7.9286760  90.2496710  46.8753170   9.3341920
  86.9637150  44.0632080   1.8803350  86.0366430  43.9969460   2.1091820
  87.1161970  45.0012210   1.7658590  93.4718990  45.0167600   8.8549540
  92.6437620  45.0860690   8.3799670  94.0669470  45.6021910   8.3865370
  90.9934440  45.6252380   2.3838600  90.3746860  45.2871930   1.7364900
  90.9758890  44.9812140   3.0917790  90.4361000  41.8036920   9.8004410
  90.0232180  42.6290630  10.0544400  89.7036950  41.2181960   9.6080770
  82.5693790  44.5896820   4.6623080  82.1650790  43.8774070   4.1668980
  82.6556910  44.2450060   5.5511120  83.0375490  48.2764380   6.8262290
  82.7403780  47.6709850   6.1470070  83.9875310  48.3141690   6.7151650
  81.2822410  41.3640030   8.4422120  81.8337000  41.4735370   7.6675370
  81.7965920  41.7377630   9.1577350  91.1261100  51.8496250  10.4885390
  90.6491660  52.6568440  10.2958000  90.4422890  51.1974580  10.6411600
  82.1293920  48.0146070  13.4770090  81.2322450  48.2386040  13.7243490
  82.1546790  48.1381010  12.5281490  80.9565140  44.8859390  12.0527460
  80.8172910  45.7582190  12.4214860  80.0746500  44.5432200  11.9075400
  87.2794520  49.8035260   3.3592590  87.7190430  50.5459590   2.9447980
  87.2181410  50.0461830   4.2831550  82.7545490  50.8281090  14.2612610
  82.7260920  51.2324040  13.3941040  82.5910460  49.8991450  14.0984210
  94.7060310  51.6108190  15.5576780  95.1820030  52.0891080  16.2365860
  95.3267470  51.5425680  14.8322280  76.9083790  46.6556940   7.9698370
  76.9864210  46.7905710   7.0254090  77.5225470  45.9472830   8.1626490
  78.1531420  48.3557130   4.3804550  77.7459500  48.4971720   3.5258150
  79.0444430  48.0717290   4.1775760  94.1093560  48.8021040  12.7176790
  94.2356620  48.5632920  11.7993970  94.1514940  47.9705580  13.1898870
  87.9710300  52.5049040  11.2871600  88.4854970  52.4157050  12.0894030
  87.1279380  52.8508740  11.5799510  82.4253080  52.5702910   2.4927220
  82.2495560  51.6538450   2.2795020  81.5708820  52.9290200   2.7325020
  89.2140760  51.9254650   3.3502090  89.6697710  51.1444030   3.6640710
  89.5533280  52.6361470   3.8943270  93.9617570  40.8553500  13.6826530
  93.3461840  41.3633170  13.1541990  93.6413990  39.9551830  13.6252470
  76.9643310  47.6971110  10.5092830  77.1274350  47.2276470   9.6912200
  77.4295760  47.1894670  11.1741670  81.7362080  36.8276870   5.5453400
  81.2930230  37.6086410   5.2137920  82.2947070  37.1506760   6.2524340
  86.0231890  39.6945390  11.1488720  85.5611260  39.9028410  11.9608660
  85.6210000  38.8804740  10.8459390  91.0236400  40.9154340  12.2785380
  90.1729990  40.6160090  12.5994450  90.8638190  41.1596350  11.3669200
  88.1186110  42.4156090  14.3784170  88.4439520  41.5819840  14.0386400
  88.9066440  42.9384610  14.5262500  83.7737980  37.3724200   7.4043000
  84.0710310  38.2787030   7.3235020  84.3223540  36.8842980   6.7902570
  81.5276300  41.9510440   3.2734650  81.3017220  41.7347610   4.1781270
  80.7468830  42.3838900   2.9280620  83.9675510  42.8496020  13.9394920
  83.8719110  41.9090750  13.7895320  84.8107490  43.0711090  13.5442990
  87.3638930  40.5937350   3.9028580  87.7568500  40.9109550   3.0897270
  87.7255780  39.7149230   4.0173100  79.0986050  39.2609690  12.0928700
  78.7049440  40.1084900  12.3001480  78.4104450  38.6236060  12.2837340
  85.6731100  39.3444660  15.1625440  84.9829420  39.1516860  15.7971530
  86.4163400  39.6279300  15.6949740  76.4003100  37.1838150   6.1258780
  76.1116150  37.7541010   6.8383760  77.1448860  36.7042600   6.4890010
  87.9494070  43.1843100   7.9979360  87.2175190  43.6929910   8.3469460
  87.5518410  42.3673080   7.6968140  84.3871460  39.8597300   6.4031850
  84.3907520  39.4187250   5.5536390  85.2822580  40.1814630   6.5103670
  80.2373840  39.7423790   5.3626060  79.8973890  40.2199020   6.1193110
  79.4751160  39.2888910   5.0027160  88.4119980  38.6376780   7.4102300
  88.4292720  39.0885430   8.2544150  88.1635560  37.7382420   7.6235740
  91.8390730  36.0508960  13.2488680  92.1636500  35.3198620  13.7746660
  91.8747240  35.7322600  12.3469670  78.5382290  47.0722540  12.6688640
  78.1537080  46.4316210  13.2671600  78.8494480  47.7758660  13.2383370
  84.6879430  43.9199080   8.1497260  85.0549560  43.4457650   8.8958600
  84.4984490  44.7940650   8.4905600  77.5519920  38.6642770   4.2790730
  77.2666840  38.2998440   5.1169350  77.4898780  37.9323230   3.6653870
  82.4778800  42.9607720  10.4681470  82.1735870  43.8399700  10.6931830
  83.4325260  43.0207510  10.5038910  91.7648570  46.1634070   6.8574710
  92.4847690  46.6589360   6.4670820  91.5630390  45.4851960   6.2128580
  87.1467370  46.2343130  12.7443710  87.0804680  45.3138800  12.4901300
  86.5172510  46.3318570  13.4588350  81.0497990  46.8349090   4.7027130
  81.5676660  46.0317350   4.6484020  80.5982010  46.7728230   5.5443960
  78.5342530  43.8010460  11.6152830  78.1757470  44.4664310  12.2026170
  78.2397090  42.9694010  11.9865450  81.7355650  44.2594700  14.4992380
  81.4355790  44.4051880  13.6020200  82.5066890  43.6999990  14.4065770
  87.0784100  49.0563700  12.4947510  87.0928640  48.1244660  12.2766420
  86.3709200  49.1423460  13.1337280  93.2895310  45.6971040  11.8416090
  92.5643500  46.2899820  11.6445480  93.8170770  45.6894580  11.0429460
  88.8194900  47.4231210   5.3399940  89.1718720  46.8259340   4.6801310
  87.9357230  47.0975440   5.5108190  84.9058180  48.1828900   2.7470350
  85.5929310  48.7298110   3.1277940  84.1190600  48.7269630   2.7819960
  84.2085390  45.1874930   2.3595710  84.6648170  45.9980180   2.5855900
  83.8573600  44.8698070   3.1914200  86.5118000  50.6981270   9.5888010
  87.1560220  50.9040650  10.2661430  86.8747440  49.9369670   9.1358860
  80.1097170  35.5312580   2.8318230  79.9811800  35.5230480   3.7803150
  79.2859190  35.8695670   2.4809240  87.7850080  48.7013620   8.3065460
  88.4272310  48.0006780   8.4197630  88.3099430  49.4812060   8.1262350
  89.5587700  49.5008520  11.5101520  89.8943940  50.0875210  12.1879440
  88.6388040  49.3701230  11.7399310  77.1091100  37.2903700  12.2924930
  76.3949620  37.4900620  12.8977540  77.5286140  36.5143270  12.6639730
  77.3963690  51.2783960  13.2791460  77.5054810  50.3378700  13.1386850
  76.7444250  51.5438710  12.6305190  85.3876280  49.5499850  14.6789580
  85.0673150  48.8309090  15.2235270  84.7134640  50.2254920  14.7525640
  88.6029880  39.7826010  10.0426380  88.9710700  38.9621220  10.3705950
  87.7428080  39.8427900  10.4582030  83.9375940  41.0168900   2.2671820
  83.2292090  41.4855240   2.7085430  84.2220420  40.3590910   2.9017010
  85.5631870  42.4365600  10.2664350  86.0617120  42.9111420  10.9316200
  85.7054820  41.5129120  10.4734380  87.9691370  37.7419560   3.7067610
  87.8459150  37.7605690   2.7577120  88.9175930  37.7898500   3.8266010
  85.0568160  52.9774860   2.9795590  85.3109660  52.9396250   2.0574960
  84.1080640  52.8508190   2.9723840  92.7698730  38.6533560  11.1092740
  92.2672330  39.3938960  11.4486550  93.5855390  39.0417560  10.7929530
  91.0620740  43.8966740   4.5554100  90.1210880  43.9116970   4.7301790
  91.3764810  43.1102700   5.0014400  93.0646320  51.0675590   6.2308360
  93.1893740  51.8906760   6.7032170  93.9311880  50.8566320   5.8832510
  80.5363850  53.1606800   5.9025490  81.2726330  52.6122260   6.1734060
  80.9204770  54.0262810   5.7631480  77.4209330  49.2280370   1.7767000
  76.4949110  49.4701510   1.7672410  77.8865760  50.0554630   1.6551750
  79.5422130  52.3452870  15.0911070  80.3434860  52.6664920  15.5046470
  79.0273950  51.9848450  15.8130980  88.3786760  48.4532740  15.0386480
  87.7724920  48.4764340  14.2982230  88.0740870  47.7215780  15.5753730
  89.8087130  52.1813030  13.6495890  90.7608880  52.0971050  13.5996130
  89.6615350  52.8454740  14.3229680  77.2619940  44.8326330  14.0347120
  77.7658960  44.2533610  14.6063350  76.5227360  45.1166560  14.5723490
  84.3157880  46.2397320  13.5682640  83.5503550  46.8082320  13.4837310
  84.4973840  45.9473530  12.6750870  91.4581230  47.9702650  14.1257660
  92.1990700  48.3078410  13.6225120  90.6953910  48.1394710  13.5727430
  79.2943020  42.9755920  14.9297190  79.3348360  42.6769790  15.8382420
  80.1488520  43.3763530  14.7704710  81.2348830  41.5548020  12.8971680
  80.7045290  41.0638970  12.2695020  81.9036900  41.9832220  12.3629610
  90.1326890  46.0217480  12.6612870  90.5467910  46.1762560  13.5103290
  89.1977890  46.1472700  12.8238650  90.6049060  43.3613640  14.6652020
  91.1869830  42.6065960  14.5772500  90.7810830  43.8921080  13.8883500
  81.7221130  38.5210390  12.9768970  81.6278000  37.9031140  12.2519840
  81.1418520  39.2476680  12.7498880  84.4882570  37.0783630  10.0096360
  84.0399870  37.1007890   9.1641910  83.8547770  36.6802650  10.6066660
  84.8942120  45.9737960  10.6308800  85.3130230  46.8170690  10.4585040
  83.9750750  46.1110000  10.4015580  87.2306020  43.7054140  12.0146640
  87.3502230  43.1095280  12.7541480  88.0900020  43.7423830  11.5947940
  89.5693920  44.2591330  10.5909150  89.0429140  44.7833950   9.9874290
  89.9125260  44.8918720  11.2218880  82.7449540  52.2790970  11.7466530
  82.2070630  53.0037030  11.4275230  82.9983500  51.8021310  10.9563870
  83.9974790  40.2475490  13.2722460  84.5874480  39.9391340  13.9600280
  83.1795030  39.7755240  13.4282360  88.8168220  39.8641300  13.5055480
  88.1283740  39.2022840  13.4405470  89.5374240  39.4179570  13.9503940
  85.6011750  53.5142180  12.0053180  85.5270450  54.4177320  12.3125550
  84.6990590  53.1954080  11.9775250  77.0039040  50.8416770   5.3086800
  77.3342050  49.9737830   5.0765440  77.4330040  51.0475290   6.1391760
  81.6000960  49.1725780   2.9688770  81.2996500  49.0490750   3.8692680
  81.4938450  48.3134370   2.5604500  77.4929250  51.7087360   8.0468430
  77.0560240  51.8888160   8.8792580  78.0606930  52.4661980   7.9050150
  93.1291430  51.2104360  12.3345740  92.5293420  51.2696920  11.5909660
  93.2585330  50.2709340  12.4642590  77.3253680  44.2207590   4.4057310
  76.6702520  43.9519230   3.7617010  78.1631630  44.1112070   3.9559290
  94.8309310  46.5519760   5.0191580  95.2018140  45.7687080   4.6127550
  95.4711240  47.2408860   4.8408880  91.8143070  47.9356340  10.4321900
  91.0002910  48.3653500  10.6947690  92.2217270  48.5474750   9.8190950
  93.7733850  43.9273020   2.3251600  93.3977450  43.1600950   1.8932890
  93.0436970  44.3095720   2.8126530  78.3629610  44.6060160   8.9460650
  78.7302650  44.5187560   9.8256670  77.7940430  43.8426710   8.8467510
  93.1633470  43.0744540  11.9591120  92.9319560  42.8457290  11.0589070
  93.4238020  43.9944090  11.9136010  77.9145610  41.5169250  12.8519070
  77.0201660  41.4836010  13.1912780  78.4543160  41.7156040  13.6170320
  91.6021540  38.3000970  14.7370820  92.4791720  38.3084370  15.1204820
  91.6142380  37.5631810  14.1263170  93.0484810  42.1530510   5.6258840
  93.5722290  41.6593160   4.9949010  93.6344230  42.2880870   6.3706410
  93.2274530  42.2370380   9.1478390  92.2777240  42.2033920   9.2623380
  93.4087540  43.1470490   8.9128160  78.4185320  35.7917580   7.2002290
  79.0661510  35.2414960   6.7597450  78.8387160  36.0460730   8.0218100
  93.9671940  40.0464810   4.0988930  93.8571220  39.8920850   5.0371200
  94.7279530  39.5185750   3.8564340  92.3137660  35.9858940  10.5571930
  92.9509880  36.5993080  10.9231120  92.4612550  36.0219600   9.6121160
  91.8719120  52.6874940   3.9590170  92.4678190  52.3659510   3.2824590
  92.1297270  52.2146760   4.7503440  78.1717320  35.9473250   9.9427610
  77.8232140  36.4037070  10.7085790  77.8405020  35.0530380  10.0250040
  79.7781690  49.1192850  14.1080800  79.7351320  48.7485760  14.9895260
  79.9092700  50.0570420  14.2482620  83.4787720  50.6752440   9.7090520
  83.2379080  50.9427000   8.8221040  84.4190360  50.8458170   9.7641380
  85.6842140  37.1385130  13.4647030  85.6231030  37.7306960  14.2142440
  86.6242520  37.0311090  13.3197290  88.3216700  36.7955190  13.1039320
  88.9357110  37.1134480  12.4420400  88.8666260  36.3103780  13.7235180
  94.7391880  52.6946820  10.5101160  94.2450160  53.0915690   9.7928290
  94.1305170  52.0696030  10.9038440  78.8437960  35.4749450  13.2178380
  79.3920950  35.2937500  12.4544490  78.9093270  34.6843560  13.7534690
  79.6169720  52.0655100  11.2278580  79.0230040  51.9339800  11.9668620
  79.6093560  51.2293240  10.7620680  89.0624740  35.3587330   9.4308610
  88.1884580  35.6922440   9.2281540  88.9535490  34.8860510  10.2560480
  89.9696720  37.5658200  10.8150330  89.6410080  36.7509960  10.4352060
  90.9179020  37.5228010  10.6916020  92.4231330  53.3370240   7.7887900
  91.9634300  54.0886050   7.4145920  91.7943790  52.6176710   7.7302700
  79.2481950  49.4313480  10.1786620  78.5216010  48.8118770  10.1112570
  79.3091100  49.8254090   9.3084700  82.8527050  51.6458480   6.9636030
  83.3692070  51.0345840   6.4384290  83.5024430  52.1487260   7.4547040
  85.5922550  52.5366970   7.7905010  85.8800360  52.2821270   6.9138020
  86.1045770  51.9844330   8.3810580  86.8099560  36.2757170   8.3701520
  86.0271350  36.7502670   8.6498280  86.5162490  35.3712000   8.2614700
  91.3620630  36.9780270   6.4150610  91.8028720  36.9225370   5.5672210
  91.0928220  37.8938280   6.4860790  93.2259200  36.6095510   4.4259430
  93.1647600  35.6656730   4.2790450  94.0051230  36.7175600   4.9712890
  77.5311950  52.7487870   3.3883380  77.3633990  52.1158550   4.0865270
  76.6646460  52.9547270   3.0377570  84.6953780  38.6943920   3.8817550
  83.8828290  38.3200810   3.5413430  85.1995420  37.9389000   4.1838740
  89.1978760  35.3586370   5.1200620  89.8008130  35.9306580   5.5949140
  88.4571750  35.9225810   4.8974520  82.7202960  36.8443840   2.4862600
  82.0905700  36.1431150   2.6532730  82.1808100  37.6047970   2.2695760
  85.6594910  53.4583070  15.1573210  86.5862220  53.2227340  15.2009170
  85.6445340  54.2855070  14.6759240  82.8458520  36.1227820  14.9215090
  82.5642790  36.6261420  14.1575910  83.2278220  35.3249570  14.5557220
  89.4473980  35.5381400  15.4995560  89.3339430  35.8576010  16.3947080
  90.2643720  35.9393910  15.2032840  92.2272470  52.6852930  14.9814250
  93.0197790  52.1902160  14.7740210  92.5205620  53.3643070  15.5889860
  88.3532130  24.7830380  79.7347750  88.2726180  23.8684990  79.4639460
  87.9396550  25.2797450  79.0287460  86.4850170  26.5609400  81.6157020
  85.7092270  26.0809840  81.9055590  87.1363100  25.8815050  81.4413180
  80.5016000  26.8729210  82.4932780  79.6700880  26.6177920  82.8929290
  81.1096980  26.9439980  83.2290700  90.5057600  30.9669590  80.3956150
  90.0439130  30.1956830  80.7243320  91.3183150  30.9935660  80.9008600
  80.4817260  30.9069300  82.6890800  80.7845300  30.0167040  82.5101020
  81.2260850  31.4639520  82.4613050  78.9107950  21.8331100  76.2775170
  78.0224650  22.1747070  76.1755050  79.1949140  21.6331420  75.3856000
  76.8740960  24.4336750  82.1614870  77.4457070  23.6658950  82.1618510
  76.8742500  24.7325510  81.2521480  86.7320910  33.2527600  80.0160140
  86.1132350  33.7085100  79.4454580  87.5872690  33.4079060  79.6149840
  85.9259160  29.2366590  81.6227180  85.8567440  28.2956530  81.4616310
  86.6879020  29.3268000  82.1949750  78.1165830  19.8421110  83.9483800
  77.9368670  18.9446860  84.2286560  77.7145910  20.3892980  84.6230750
  86.9564330  22.0436970  81.8496110  87.3329150  21.1708850  81.7369780
  86.8583840  22.3795670  80.9586550  81.0869340  20.4162600  77.3113550
  81.1936090  21.3166330  77.6182310  80.1761700  20.3680570  77.0208200
  90.7388450  19.5387410  78.7824450  91.5598070  19.0483980  78.8249930
  90.7722530  20.1285070  79.5356290  78.7352500  22.3381610  82.5566140
  79.4162610  22.6019980  83.1753540  78.4200550  21.4982480  82.8904150
  82.9277070  23.3848970  81.6438730  83.4355290  23.8829940  82.2843750
  83.4590310  22.6084170  81.4678090  95.0288000  21.5554160  85.3468080
  94.3240170  21.9435870  84.8283190  95.2945920  22.2504450  85.9489010
  81.2113170  18.0247530  85.9102150  81.2131610  18.5419920  85.1048050
  80.3817480  17.5477710  85.8872080  87.5984260  28.1366840  77.4092050
  86.9801530  28.6016290  76.8454770  88.1107510  28.8294320  77.8261560
  82.4616020  27.6642710  84.0875650  82.1285400  28.2911630  84.7296720
  82.6382700  28.1904590  83.3077320  90.9749930  21.4787790  81.5551990
  90.2705500  21.7672680  82.1355100  91.3362090  22.2887900  81.1951550
  80.8928500  19.7357490  83.9172600  81.2345310  20.5799540  83.6226470
  79.9544310  19.8841230  84.0337940  81.6735120  29.6323510  85.9024830
  82.2909120  30.3074590  85.6209280  80.8128240  30.0411490  85.8112330
  76.9667460  28.8223370  74.7831680  76.5895440  29.3110470  74.0516580
  77.2240530  29.4948650  75.4138210  92.5912710  31.0962920  83.8179470
  91.9076230  31.7662030  83.8096140  93.1307000  31.2943570  83.0524330
  94.0436850  20.9242580  81.9461200  93.0961760  20.9581560  82.0776630
  94.3686840  21.7381530  82.3310560  84.5756390  17.2239760  80.2417190
  84.8831370  16.6686650  79.5252690  83.6457090  17.3584220  80.0590180
  90.1271450  32.9407050  82.5324650  90.1398610  32.5369340  81.6646910
  89.5746670  33.7154340  82.4286080  91.4216870  29.6623270  77.6214820
  91.3113200  28.7197600  77.7464240  91.4185120  30.0238910  78.5077580
  89.5256890  27.8436890  83.8607260  89.9425680  27.6297000  83.0260720
  90.2496710  28.1009680  84.4315880  86.9637150  25.2888590  76.9777310
  86.0366430  25.2225970  77.2065780  87.1161970  26.2268720  76.8632550
  86.9506230  21.5605590  73.9744470  86.0109900  21.7219550  74.0596930
  87.2689490  22.2791270  73.4280460  93.4718990  26.2424110  83.9523500
  92.6437620  26.3117200  83.4773630  94.0669470  26.8278420  83.4839330
  90.9934440  26.8508890  77.4812560  90.3746860  26.5128440  76.8338860
  90.9758890  26.2068650  78.1891750  90.4361000  23.0293430  84.8978370
  90.0232180  23.8547140  85.1518360  89.7036950  22.4438470  84.7054730
  82.5693790  25.8153330  79.7597040  82.1650790  25.1030580  79.2642940
  82.6556910  25.4706570  80.6485080  83.0375490  29.5020890  81.9236250
  82.7403780  28.8966360  81.2444030  83.9875310  29.5398200  81.8125610
  81.2822410  22.5896540  83.5396080  81.8337000  22.6991880  82.7649330
  81.7965920  22.9634140  84.2551310  91.1261100  33.0752760  85.5859350
  90.6491660  33.8824950  85.3931960  90.4422890  32.4231090  85.7385560
  89.1699140  26.0895700  74.4885310  89.6092420  25.2518130  74.3423130
  89.8827560  26.7225100  74.5749450  87.2794520  31.0291770  78.4566550
  87.7190430  31.7716100  78.0421940  87.2181410  31.2718340  79.3805510
  92.7516280  17.3438510  72.8026350  92.4388940  17.4365340  73.7025420
  93.5128750  17.9219540  72.7523780  79.2698420  24.7098310  77.2603690
  79.1496020  25.4360400  76.6484960  78.9599310  23.9401220  76.7831600
  76.9083790  27.8813450  83.0672330  76.9864210  28.0162220  82.1228050
  77.5225470  27.1729340  83.2600450  78.1531420  29.5813640  79.4778510
  77.7459500  29.7228230  78.6232110  79.0444430  29.2973800  79.2749720
  89.9464700  34.0160890  75.8129560  89.7865840  33.7263830  76.7111390
  89.7811410  33.2401020  75.2774790  82.4253080  33.7959420  77.5901180
  82.2495560  32.8794960  77.3768980  81.5708820  34.1546710  77.8298980
  89.6490830  31.5248450  74.3727560  88.9555990  31.5225740  73.7129840
  90.3913690  31.1007770  73.9421730  89.2140760  33.1511160  78.4476050
  89.6697710  32.3700540  78.7614670  89.5533280  33.8617980  78.9917230
  81.7362080  18.0533380  80.6427360  81.2930230  18.8342920  80.3111880
  82.2947070  18.3763270  81.3498300  84.8520900  17.6744080  75.5233190
  84.2275080  17.6703950  76.2486500  84.7651020  16.8075040  75.1269160
  83.7737980  18.5980710  82.5016960  84.0710310  19.5043540  82.4208980
  84.3223540  18.1099490  81.8876530  81.5276300  23.1766950  78.3708610
  81.3017220  22.9604120  79.2755230  80.7468830  23.6095410  78.0254580
  88.7574060  23.1830320  76.9699260  88.1582950  23.9066120  76.7862880
  89.3053670  23.1207100  76.1875710  87.3638930  21.8193860  79.0002540
  87.7568500  22.1366060  78.1871230  87.7255780  20.9405740  79.1147060
  76.4003100  18.4094660  81.2232740  76.1116150  18.9797520  81.9357720
  77.1448860  17.9299110  81.5863970  76.5873330  22.3514780  72.4335460
  76.5048000  23.2945540  72.5750450  76.2356390  22.2089690  71.5547810
  87.9494070  24.4099610  83.0953320  87.2175190  24.9186420  83.4443420
  87.5518410  23.5929590  82.7942100  84.3871460  21.0853810  81.5005810
  84.3907520  20.6443760  80.6510350  85.2822580  21.4071140  81.6077630
  80.2373840  20.9680300  80.4600020  79.8973890  21.4455530  81.2167070
  79.4751160  20.5145420  80.1001120  84.4491610  22.0865890  74.4912570
  84.5704430  22.0452370  75.4398390  84.0640120  22.9490040  74.3359300
  88.4119980  19.8633290  82.5076260  88.4292720  20.3141940  83.3518110
  88.1635560  18.9638930  82.7209700  83.4613110  24.3967030  73.8895870
  82.8930010  23.9485280  73.2631780  84.1702110  24.7559810  73.3561020
  84.6879430  25.1455590  83.2471220  85.0549560  24.6714160  83.9932560
  84.4984490  26.0197160  83.5879560  77.5519920  19.8899280  79.3764690
  77.2666840  19.5254950  80.2143310  77.4898780  19.1579740  78.7627830
  82.4778800  24.1864230  85.5655430  82.1735870  25.0656210  85.7905790
  83.4325260  24.2464020  85.6012870  81.0060590  28.3925220  76.1622280
  80.2322850  27.8522840  76.0021000  81.7355220  27.8731830  75.8240040
  91.7648570  27.3890580  81.9548670  92.4847690  27.8845870  81.5644780
  91.5630390  26.7108470  81.3102540  87.2258510  18.7828540  76.0978060
  86.4123120  18.2841710  76.0223370  87.0320460  19.6226790  75.6814410
  89.9406900  23.1548190  74.3940220  90.8286520  23.4665420  74.2191560
  89.9111990  22.2820440  74.0020800  81.0497990  28.0605600  79.8001090
  81.5676660  27.2573860  79.7457980  80.5982010  27.9984740  80.6417920
  85.9367490  29.3271880  75.0728390  86.2783190  30.0714110  74.5771710
  85.1080200  29.6403000  75.4353220  92.2121170  24.4660030  73.8620080
  92.1284890  24.8974250  73.0116520  92.9315360  24.9258380  74.2946900
  93.2408420  31.3202290  76.5902210  92.5984580  30.6657910  76.8645930
  92.8539080  31.7257380  75.8142880  88.8194900  28.6487720  80.4373900
  89.1718720  28.0515850  79.7775270  87.9357230  28.3231950  80.6082150
  84.9058180  29.4085410  77.8444310  85.5929310  29.9554620  78.2251900
  84.1190600  29.9526140  77.8793920  77.0450580  25.0258230  73.3361390
  77.9145430  25.3083030  73.6197310  76.5540900  25.8394100  73.2210200
  84.2085390  26.4131440  77.4569670  84.6648170  27.2236690  77.6829860
  83.8573600  26.0954580  78.2888160  86.5118000  31.9237780  84.6861970
  87.1560220  32.1297160  85.3635390  86.8747440  31.1626180  84.2332820
  80.1097170  16.7569090  77.9292190  79.9811800  16.7486990  78.8777110
  79.2859190  17.0952180  77.5783200  87.7850080  29.9270130  83.4039420
  88.4272310  29.2263290  83.5171590  88.3099430  30.7068570  83.2236310
  91.6305800  30.2118750  73.1278560  91.4043380  29.4949190  73.7203200
  91.2402000  29.9631190  72.2900310  77.4121830  34.2385610  73.9023020
  77.7719470  34.8374950  73.2480290  77.2714170  34.7845500  74.6758050
  91.2122050  28.1290690  74.7892720  90.9243750  28.5903380  75.5770600
  92.0074220  27.6688460  75.0576940  83.4290450  31.6216810  74.7196690
  83.4200550  32.3546500  74.1041200  82.5088810  31.3748390  74.8123650
  79.0297090  26.8431700  75.4643450  78.4225040  27.5830600  75.4738750
  79.5046440  26.9331060  74.6381650  88.6029880  21.0082520  85.1400340
  88.9710700  20.1877730  85.4679910  87.7428080  21.0684410  85.5555990
  91.9691910  19.9639460  75.9487900  91.3405070  20.0685130  75.2346130
  91.4743830  20.1836240  76.7381780  86.4150050  31.6845050  73.3821880
  86.5162030  31.4809040  72.4523860  85.5151790  31.4303330  73.5869660
  83.9375940  22.2425410  77.3645780  83.2292090  22.7111750  77.8059390
  84.2220420  21.5847420  77.9990970  87.9691370  18.9676070  78.8041570
  87.8459150  18.9862200  77.8551080  88.9175930  19.0155010  78.9239970
  85.0568160  34.2031370  78.0769550  85.3109660  34.1652760  77.1548920
  84.1080640  34.0764700  78.0697800  82.1410960  20.5510490  74.7396490
  82.9901490  20.9880640  74.6736680  81.7742230  20.8630750  75.5668550
  91.0620740  25.1223250  79.6528060  90.1210880  25.1373480  79.8275750
  91.3764810  24.3359210  80.0988360  81.0402380  26.8042850  73.2132020
  81.8065650  26.6924210  73.7757450  81.1177070  26.1080820  72.5608790
  79.7349140  24.2367920  73.8964910  79.8152730  23.2895430  74.0082310
  80.6268890  24.5674800  74.0025570  93.0646320  32.2932100  81.3282320
  93.1893740  33.1163270  81.8006130  93.9311880  32.0822830  80.9806470
  80.5363850  34.3863310  80.9999450  81.2726330  33.8378770  81.2708020
  80.9204770  35.2519320  80.8605440  77.4209330  30.4536880  76.8740960
  76.4949110  30.6958020  76.8646370  77.8865760  31.2811140  76.7525710
  83.6466160  33.5593620  72.8225020  84.4394770  33.8482450  72.3706810
  83.1270510  33.1285790  72.1437500  92.6996330  32.7863750  74.2461760
  92.4137840  32.3728890  73.4315940  92.5015880  33.7151460  74.1262280
  84.1643560  28.7797030  72.6867370  84.0594200  28.1649380  73.4128750
  83.9967780  28.2562920  71.9030380  87.4046290  27.8417060  73.2909360
  86.8556390  28.2886360  73.9352100  88.0265550  27.3366310  73.8147030
  83.0721410  26.8007980  75.1874660  83.4937830  26.6347850  76.0306050
  83.1972250  25.9908210  74.6929800  85.5849050  25.8245590  72.4351760
  86.1054710  25.1094610  72.0692910  86.2317450  26.4631460  72.7352270
  84.4882570  18.3040140  85.1070320  84.0399870  18.3264400  84.2615870
  83.8547770  17.9059160  85.7040620  84.8942120  27.1994470  85.7282760
  85.3130230  28.0427200  85.5559000  83.9750750  27.3366510  85.4989540
  81.9680310  22.8741210  72.1332820  81.7669370  22.0108570  72.4946160
  81.7972360  22.7874570  71.1954420  89.4468620  17.6849440  74.6619700
  89.7270910  16.8417340  75.0179120  88.6734350  17.9172550  75.1758450
  80.7663110  19.9741830  72.1210700  81.0689010  19.9809260  71.2129850
  81.5057700  19.6239690  72.6178360  83.9848040  18.9176450  73.1066900
  83.6370040  18.2400440  72.5269350  84.1860810  18.4565960  73.9210290
  86.1497080  33.9057200  74.7253500  87.0447870  34.2442170  74.7472260
  86.1814710  33.1836610  74.0977780  79.7893240  29.2784250  72.9540500
  80.2268110  29.8213920  73.6098080  80.2740970  28.4531200  72.9636840
  77.0039040  32.0673280  80.4060760  77.3342050  31.1994340  80.1739400
  77.4330040  32.2731800  81.2365720  81.6000960  30.3982290  78.0662730
  81.2996500  30.2747260  78.9666640  81.4938450  29.5390880  77.6578460
  77.4929250  32.9343870  83.1442390  77.0560240  33.1144670  83.9766540
  78.0606930  33.6918490  83.0024110  94.3692880  30.1778690  72.7689410
  93.5385840  30.2455340  73.2396640  94.5464710  31.0682810  72.4656270
  93.8249340  26.9226170  75.2723610  94.5868250  27.4922820  75.3783300
  93.8403710  26.3553370  76.0431920  77.3253680  25.4464100  79.5031270
  76.6702520  25.1775740  78.8590970  78.1631630  25.3368580  79.0533250
  94.8309310  27.7776270  80.1165540  95.2018140  26.9943590  79.7101510
  95.4711240  28.4665370  79.9382840  91.8143070  29.1612850  85.5295860
  91.0002910  29.5910010  85.7921650  92.2217270  29.7731260  84.9164910
  93.8768510  27.2160540  72.4296130  94.1517350  28.1239420  72.3015350
  93.6879250  27.1523070  73.3658120  90.2744120  20.2405390  73.7249760
  90.6929000  20.0536370  72.8846420  89.9680180  19.3884440  74.0352690
  93.7733850  25.1529530  77.4225560  93.3977450  24.3857460  76.9906850
  93.0436970  25.5352230  77.9100490  78.3629610  25.8316670  84.0434610
  78.7302650  25.7444070  84.9230630  77.7940430  25.0683220  83.9441470
  76.5391760  22.6563030  75.4456600  75.6355840  22.9193230  75.2708260
  77.0232380  22.9274200  74.6656560  93.0484810  23.3787020  80.7232800
  93.5722290  22.8849670  80.0922970  93.6344230  23.5137380  81.4680370
  93.2274530  23.4626890  84.2452350  92.2777240  23.4290430  84.3597340
  93.4087540  24.3727000  84.0102120  79.0818970  21.7128570  73.3550980
  79.7910670  21.2911790  72.8698260  78.3658910  21.7803800  72.7234330
  78.7293130  17.7667900  72.3953630  79.4521260  18.3076840  72.7134850
  79.0017650  17.4931320  71.5195170  92.5384780  22.6360370  76.6625210
  93.0343900  22.4031240  77.4474090  92.3400850  21.7972210  76.2462850
  78.4185320  17.0174090  82.2976250  79.0661510  16.4671470  81.8571410
  78.8387160  17.2717240  83.1192060  93.9671940  21.2721320  79.1962890
  93.8571220  21.1177360  80.1345160  94.7279530  20.7442260  78.9538300
  94.8562210  19.1029240  72.4369030  95.7811520  18.9710420  72.2287320
  94.8338000  19.1822060  73.3905480  94.9300700  19.8739900  75.0625740
  94.1352200  19.8085020  75.5918650  95.1343980  20.8090540  75.0511090
  91.8719120  33.9131450  79.0564130  92.4678190  33.5916020  78.3798550
  92.1297270  33.4403270  79.8477400  78.1717320  17.1729760  85.0401570
  77.8232140  17.6293580  85.8059750  77.8405020  16.2786890  85.1224000
  83.4787720  31.9008950  84.8064480  83.2379080  32.1683510  83.9195000
  84.4190360  32.0714680  84.8615340  89.0624740  16.5843840  84.5282570
  88.1884580  16.9178950  84.3255500  88.9535490  16.1117020  85.3534440
  89.9696720  18.7914710  85.9124290  89.6410080  17.9766470  85.5326020
  90.9179020  18.7484520  85.7889980  92.4231330  34.5626750  82.8861860
  91.9634300  35.3142560  82.5119880  91.7943790  33.8433220  82.8276660
  79.2481950  30.6569990  85.2760580  78.5216010  30.0375280  85.2086530
  79.3091100  31.0510600  84.4058660  82.8527050  32.8714990  82.0609990
  83.3692070  32.2602350  81.5358250  83.5024430  33.3743770  82.5521000
  85.5922550  33.7623480  82.8878970  85.8800360  33.5077780  82.0111980
  86.1045770  33.2100840  83.4784540  86.8099560  17.5013680  83.4675480
  86.0271350  17.9759180  83.7472240  86.5162490  16.5968510  83.3588660
  91.3620630  18.2036780  81.5124570  91.8028720  18.1481880  80.6646170
  91.0928220  19.1194790  81.5834750  93.2259200  17.8352020  79.5233390
  93.1647600  16.8913240  79.3764410  94.0051230  17.9432110  80.0686850
  77.5311950  33.9744380  78.4857340  77.3633990  33.3415060  79.1839230
  76.6646460  34.1803780  78.1351530  78.1539970  17.8061160  75.9889200
  78.9119330  17.9190040  75.4153230  77.6917140  18.6430360  75.9432630
  84.6953780  19.9200430  78.9791510  83.8828290  19.5457320  78.6387390
  85.1995420  19.1645510  79.2812700  89.1978760  16.5842880  80.2174580
  89.8008130  17.1563090  80.6923100  88.4571750  17.1482320  79.9948480
  92.3413360  16.9864440  75.4914860  92.5363990  17.8847890  75.7582290
  91.5543230  16.7551520  75.9847810  79.1374650  32.6677610  75.9307480
  78.6122270  33.0485640  75.2269440  79.0619230  33.2928380  76.6517190
  80.5265120  18.3325210  74.5291170  81.0557880  17.5455010  74.3999120
  81.1593440  19.0116400  74.7626700  82.7202960  18.0700350  77.5836560
  82.0905700  17.3687660  77.7506690  82.1808100  18.8304480  77.3669720
  93.8939970  34.2265150  77.2521420  94.0692160  33.5402890  76.6082340
  93.1961540  34.7512200  76.8598090  81.7367620  34.6159990  74.8056730
  82.4686440  34.3319270  74.2580620  81.9961290  34.3773270  75.6956110
  80.8982410  30.7324720  74.8103060  80.2691290  31.2009820  75.3588890
  81.0130240  29.8873940  75.2449250  88.3532130  24.7830380  60.9604260
  88.2726180  23.8684990  60.6895970  87.9396550  25.2797450  60.2543970
  86.4850170  26.5609400  62.8413530  85.7092270  26.0809840  63.1312100
  87.1363100  25.8815050  62.6669690  80.5016000  26.8729210  63.7189290
  79.6700880  26.6177920  64.1185800  81.1096980  26.9439980  64.4547210
  90.5057600  30.9669590  61.6212660  90.0439130  30.1956830  61.9499830
  91.3183150  30.9935660  62.1265110  80.4817260  30.9069300  63.9147310
  80.7845300  30.0167040  63.7357530  81.2260850  31.4639520  63.6869560
  78.9107950  21.8331100  57.5031680  78.0224650  22.1747070  57.4011560
  79.1949140  21.6331420  56.6112510  76.8740960  24.4336750  63.3871380
  77.4457070  23.6658950  63.3875020  76.8742500  24.7325510  62.4777990
  86.7320910  33.2527600  61.2416650  86.1132350  33.7085100  60.6711090
  87.5872690  33.4079060  60.8406350  85.9259160  29.2366590  62.8483690
  85.8567440  28.2956530  62.6872820  86.6879020  29.3268000  63.4206260
  78.1165830  19.8421110  65.1740310  77.9368670  18.9446860  65.4543070
  77.7145910  20.3892980  65.8487260  86.9564330  22.0436970  63.0752620
  87.3329150  21.1708850  62.9626290  86.8583840  22.3795670  62.1843060
  81.0869340  20.4162600  58.5370060  81.1936090  21.3166330  58.8438820
  80.1761700  20.3680570  58.2464710  90.7388450  19.5387410  60.0080960
  91.5598070  19.0483980  60.0506440  90.7722530  20.1285070  60.7612800
  78.7352500  22.3381610  63.7822650  79.4162610  22.6019980  64.4010050
  78.4200550  21.4982480  64.1160660  82.9277070  23.3848970  62.8695240
  83.4355290  23.8829940  63.5100260  83.4590310  22.6084170  62.6934600
  95.0288000  21.5554160  66.5724590  94.3240170  21.9435870  66.0539700
  95.2945920  22.2504450  67.1745520  81.2113170  18.0247530  67.1358660
  81.2131610  18.5419920  66.3304560  80.3817480  17.5477710  67.1128590
  87.5984260  28.1366840  58.6348560  86.9801530  28.6016290  58.0711280
  88.1107510  28.8294320  59.0518070  82.4616020  27.6642710  65.3132160
  82.1285400  28.2911630  65.9553230  82.6382700  28.1904590  64.5333830
  90.9749930  21.4787790  62.7808500  90.2705500  21.7672680  63.3611610
  91.3362090  22.2887900  62.4208060  80.8928500  19.7357490  65.1429110
  81.2345310  20.5799540  64.8482980  79.9544310  19.8841230  65.2594450
  81.6735120  29.6323510  67.1281340  82.2909120  30.3074590  66.8465790
  80.8128240  30.0411490  67.0368840  76.9667460  28.8223370  56.0088190
  76.5895440  29.3110470  55.2773090  77.2240530  29.4948650  56.6394720
  92.5912710  31.0962920  65.0435980  91.9076230  31.7662030  65.0352650
  93.1307000  31.2943570  64.2780840  94.0436850  20.9242580  63.1717710
  93.0961760  20.9581560  63.3033140  94.3686840  21.7381530  63.5567070
  84.5756390  17.2239760  61.4673700  84.8831370  16.6686650  60.7509200
  83.6457090  17.3584220  61.2846690  90.1271450  32.9407050  63.7581160
  90.1398610  32.5369340  62.8903420  89.5746670  33.7154340  63.6542590
  91.4216870  29.6623270  58.8471330  91.3113200  28.7197600  58.9720750
  91.4185120  30.0238910  59.7334090  89.5256890  27.8436890  65.0863770
  89.9425680  27.6297000  64.2517230  90.2496710  28.1009680  65.6572390
  86.9637150  25.2888590  58.2033820  86.0366430  25.2225970  58.4322290
  87.1161970  26.2268720  58.0889060  86.9506230  21.5605590  55.2000980
  86.0109900  21.7219550  55.2853440  87.2689490  22.2791270  54.6536970
  93.4718990  26.2424110  65.1780010  92.6437620  26.3117200  64.7030140
  94.0669470  26.8278420  64.7095840  90.9934440  26.8508890  58.7069070
  90.3746860  26.5128440  58.0595370  90.9758890  26.2068650  59.4148260
  90.4361000  23.0293430  66.1234880  90.0232180  23.8547140  66.3774870
  89.7036950  22.4438470  65.9311240  82.5693790  25.8153330  60.9853550
  82.1650790  25.1030580  60.4899450  82.6556910  25.4706570  61.8741590
  83.0375490  29.5020890  63.1492760  82.7403780  28.8966360  62.4700540
  83.9875310  29.5398200  63.0382120  81.2822410  22.5896540  64.7652590
  81.8337000  22.6991880  63.9905840  81.7965920  22.9634140  65.4807820
  91.1261100  33.0752760  66.8115860  90.6491660  33.8824950  66.6188470
  90.4422890  32.4231090  66.9642070  82.1293920  29.2402580  69.8000560
  81.2322450  29.4642550  70.0473960  82.1546790  29.3637520  68.8511960
  89.1699140  26.0895700  55.7141820  89.6092420  25.2518130  55.5679640
  89.8827560  26.7225100  55.8005960  80.9565140  26.1115900  68.3757930
  80.8172910  26.9838700  68.7445330  80.0746500  25.7688710  68.2305870
  87.2794520  31.0291770  59.6823060  87.7190430  31.7716100  59.2678450
  87.2181410  31.2718340  60.6062020  82.7545490  32.0537600  70.5843080
  82.7260920  32.4580550  69.7171510  82.5910460  31.1247960  70.4214680
  92.7516280  17.3438510  54.0282860  92.4388940  17.4365340  54.9281930
  93.5128750  17.9219540  53.9780290  79.2698420  24.7098310  58.4860200
  79.1496020  25.4360400  57.8741470  78.9599310  23.9401220  58.0088110
  94.7060310  32.8364700  71.8807250  95.1820030  33.3147590  72.5596330
  95.3267470  32.7682190  71.1552750  76.9083790  27.8813450  64.2928840
  76.9864210  28.0162220  63.3484560  77.5225470  27.1729340  64.4856960
  78.1531420  29.5813640  60.7035020  77.7459500  29.7228230  59.8488620
  79.0444430  29.2973800  60.5006230  94.1093560  30.0277550  69.0407260
  94.2356620  29.7889430  68.1224440  94.1514940  29.1962090  69.5129340
  87.9710300  33.7305550  67.6102070  88.4854970  33.6413560  68.4124500
  87.1279380  34.0765250  67.9029980  89.9464700  34.0160890  57.0386070
  89.7865840  33.7263830  57.9367900  89.7811410  33.2401020  56.5031300
  82.4253080  33.7959420  58.8157690  82.2495560  32.8794960  58.6025490
  81.5708820  34.1546710  59.0555490  89.6490830  31.5248450  55.5984070
  88.9555990  31.5225740  54.9386350  90.3913690  31.1007770  55.1678240
  89.2140760  33.1511160  59.6732560  89.6697710  32.3700540  59.9871180
  89.5533280  33.8617980  60.2173740  93.9617570  22.0810010  70.0057000
  93.3461840  22.5889680  69.4772460  93.6413990  21.1808340  69.9482940
  76.9643310  28.9227620  66.8323300  77.1274350  28.4532980  66.0142670
  77.4295760  28.4151180  67.4972140  81.7362080  18.0533380  61.8683870
  81.2930230  18.8342920  61.5368390  82.2947070  18.3763270  62.5754810
  86.0231890  20.9201900  67.4719190  85.5611260  21.1284920  68.2839130
  85.6210000  20.1061250  67.1689860  91.0236400  22.1410850  68.6015850
  90.1729990  21.8416600  68.9224920  90.8638190  22.3852860  67.6899670
  88.1186110  23.6412600  70.7014640  88.4439520  22.8076350  70.3616870
  88.9066440  24.1641120  70.8492970  84.8520900  17.6744080  56.7489700
  84.2275080  17.6703950  57.4743010  84.7651020  16.8075040  56.3525670
  83.7737980  18.5980710  63.7273470  84.0710310  19.5043540  63.6465490
  84.3223540  18.1099490  63.1133040  81.5276300  23.1766950  59.5965120
  81.3017220  22.9604120  60.5011740  80.7468830  23.6095410  59.2511090
  88.7574060  23.1830320  58.1955770  88.1582950  23.9066120  58.0119390
  89.3053670  23.1207100  57.4132220  83.9675510  24.0752530  70.2625390
  83.8719110  23.1347260  70.1125790  84.8107490  24.2967600  69.8673460
  87.3638930  21.8193860  60.2259050  87.7568500  22.1366060  59.4127740
  87.7255780  20.9405740  60.3403570  79.0986050  20.4866200  68.4159170
  78.7049440  21.3341410  68.6231950  78.4104450  19.8492570  68.6067810
  85.6731100  20.5701170  71.4855910  84.9829420  20.3773370  72.1202000
  86.4163400  20.8535810  72.0180210  76.4003100  18.4094660  62.4489250
  76.1116150  18.9797520  63.1614230  77.1448860  17.9299110  62.8120480
  76.5873330  22.3514780  53.6591970  76.5048000  23.2945540  53.8006960
  76.2356390  22.2089690  52.7804320  87.9494070  24.4099610  64.3209830
  87.2175190  24.9186420  64.6699930  87.5518410  23.5929590  64.0198610
  84.3871460  21.0853810  62.7262320  84.3907520  20.6443760  61.8766860
  85.2822580  21.4071140  62.8334140  80.2373840  20.9680300  61.6856530
  79.8973890  21.4455530  62.4423580  79.4751160  20.5145420  61.3257630
  84.4491610  22.0865890  55.7169080  84.5704430  22.0452370  56.6654900
  84.0640120  22.9490040  55.5615810  88.4119980  19.8633290  63.7332770
  88.4292720  20.3141940  64.5774620  88.1635560  18.9638930  63.9466210
  83.4613110  24.3967030  55.1152380  82.8930010  23.9485280  54.4888290
  84.1702110  24.7559810  54.5817530  91.8390730  17.2765470  69.5719150
  92.1636500  16.5455130  70.0977130  91.8747240  16.9579110  68.6700140
  78.5382290  28.2979050  68.9919110  78.1537080  27.6572720  69.5902070
  78.8494480  29.0015170  69.5613840  84.6879430  25.1455590  64.4727730
  85.0549560  24.6714160  65.2189070  84.4984490  26.0197160  64.8136070
  77.5519920  19.8899280  60.6021200  77.2666840  19.5254950  61.4399820
  77.4898780  19.1579740  59.9884340  82.4778800  24.1864230  66.7911940
  82.1735870  25.0656210  67.0162300  83.4325260  24.2464020  66.8269380
  81.0060590  28.3925220  57.3878790  80.2322850  27.8522840  57.2277510
  81.7355220  27.8731830  57.0496550  91.7648570  27.3890580  63.1805180
  92.4847690  27.8845870  62.7901290  91.5630390  26.7108470  62.5359050
  87.2258510  18.7828540  57.3234570  86.4123120  18.2841710  57.2479880
  87.0320460  19.6226790  56.9070920  87.1467370  27.4599640  69.0674180
  87.0804680  26.5395310  68.8131770  86.5172510  27.5575080  69.7818820
  89.9406900  23.1548190  55.6196730  90.8286520  23.4665420  55.4448070
  89.9111990  22.2820440  55.2277310  81.0497990  28.0605600  61.0257600
  81.5676660  27.2573860  60.9714490  80.5982010  27.9984740  61.8674430
  85.9367490  29.3271880  56.2984900  86.2783190  30.0714110  55.8028220
  85.1080200  29.6403000  56.6609730  78.5342530  25.0266970  67.9383300
  78.1757470  25.6920820  68.5256640  78.2397090  24.1950520  68.3095920
  81.7355650  25.4851210  70.8222850  81.4355790  25.6308390  69.9250670
  82.5066890  24.9256500  70.7296240  87.0784100  30.2820210  68.8177980
  87.0928640  29.3501170  68.5996890  86.3709200  30.3679970  69.4567750
  92.2121170  24.4660030  55.0876590  92.1284890  24.8974250  54.2373030
  92.9315360  24.9258380  55.5203410  93.2895310  26.9227550  68.1646560
  92.5643500  27.5156330  67.9675950  93.8170770  26.9151090  67.3659930
  93.2408420  31.3202290  57.8158720  92.5984580  30.6657910  58.0902440
  92.8539080  31.7257380  57.0399390  88.8194900  28.6487720  61.6630410
  89.1718720  28.0515850  61.0031780  87.9357230  28.3231950  61.8338660
  84.9058180  29.4085410  59.0700820  85.5929310  29.9554620  59.4508410
  84.1190600  29.9526140  59.1050430  77.0450580  25.0258230  54.5617900
  77.9145430  25.3083030  54.8453820  76.5540900  25.8394100  54.4466710
  84.2085390  26.4131440  58.6826180  84.6648170  27.2236690  58.9086370
  83.8573600  26.0954580  59.5144670  86.5118000  31.9237780  65.9118480
  87.1560220  32.1297160  66.5891900  86.8747440  31.1626180  65.4589330
  80.1097170  16.7569090  59.1548700  79.9811800  16.7486990  60.1033620
  79.2859190  17.0952180  58.8039710  87.7850080  29.9270130  64.6295930
  88.4272310  29.2263290  64.7428100  88.3099430  30.7068570  64.4492820
  91.6305800  30.2118750  54.3535070  91.4043380  29.4949190  54.9459710
  91.2402000  29.9631190  53.5156820  89.5587700  30.7265030  67.8331990
  89.8943940  31.3131720  68.5109910  88.6388040  30.5957740  68.0629780
  77.4121830  34.2385610  55.1279530  77.7719470  34.8374950  54.4736800
  77.2714170  34.7845500  55.9014560  77.1091100  18.5160210  68.6155400
  76.3949620  18.7157130  69.2208010  77.5286140  17.7399780  68.9870200
  91.2122050  28.1290690  56.0149230  90.9243750  28.5903380  56.8027110
  92.0074220  27.6688460  56.2833450  77.3963690  32.5040470  69.6021930
  77.5054810  31.5635210  69.4617320  76.7444250  32.7695220  68.9535660
  85.3876280  30.7756360  71.0020050  85.0673150  30.0565600  71.5465740
  84.7134640  31.4511430  71.0756110  83.4290450  31.6216810  55.9453200
  83.4200550  32.3546500  55.3297710  82.5088810  31.3748390  56.0380160
  79.0297090  26.8431700  56.6899960  78.4225040  27.5830600  56.6995260
  79.5046440  26.9331060  55.8638160  88.6029880  21.0082520  66.3656850
  88.9710700  20.1877730  66.6936420  87.7428080  21.0684410  66.7812500
  91.9691910  19.9639460  57.1744410  91.3405070  20.0685130  56.4602640
  91.4743830  20.1836240  57.9638290  86.4150050  31.6845050  54.6078390
  86.5162030  31.4809040  53.6780370  85.5151790  31.4303330  54.8126170
  83.9375940  22.2425410  58.5902290  83.2292090  22.7111750  59.0315900
  84.2220420  21.5847420  59.2247480  85.5631870  23.6622110  66.5894820
  86.0617120  24.1367930  67.2546670  85.7054820  22.7385630  66.7964850
  87.9691370  18.9676070  60.0298080  87.8459150  18.9862200  59.0807590
  88.9175930  19.0155010  60.1496480  85.0568160  34.2031370  59.3026060
  85.3109660  34.1652760  58.3805430  84.1080640  34.0764700  59.2954310
  82.1410960  20.5510490  55.9653000  82.9901490  20.9880640  55.8993190
  81.7742230  20.8630750  56.7925060  92.7698730  19.8790070  67.4323210
  92.2672330  20.6195470  67.7717020  93.5855390  20.2674070  67.1160000
  91.0620740  25.1223250  60.8784570  90.1210880  25.1373480  61.0532260
  91.3764810  24.3359210  61.3244870  81.0402380  26.8042850  54.4388530
  81.8065650  26.6924210  55.0013960  81.1177070  26.1080820  53.7865300
  79.7349140  24.2367920  55.1221420  79.8152730  23.2895430  55.2338820
  80.6268890  24.5674800  55.2282080  93.0646320  32.2932100  62.5538830
  93.1893740  33.1163270  63.0262640  93.9311880  32.0822830  62.2062980
  80.5363850  34.3863310  62.2255960  81.2726330  33.8378770  62.4964530
  80.9204770  35.2519320  62.0861950  77.4209330  30.4536880  58.0997470
  76.4949110  30.6958020  58.0902880  77.8865760  31.2811140  57.9782220
  79.5422130  33.5709380  71.4141540  80.3434860  33.8921430  71.8276940
  79.0273950  33.2104960  72.1361450  83.6466160  33.5593620  54.0481530
  84.4394770  33.8482450  53.5963320  83.1270510  33.1285790  53.3694010
  88.3786760  29.6789250  71.3616950  87.7724920  29.7020850  70.6212700
  88.0740870  28.9472290  71.8984200  89.8087130  33.4069540  69.9726360
  90.7608880  33.3227560  69.9226600  89.6615350  34.0711250  70.6460150
  92.6996330  32.7863750  55.4718270  92.4137840  32.3728890  54.6572450
  92.5015880  33.7151460  55.3518790  77.2619940  26.0582840  70.3577590
  77.7658960  25.4790120  70.9293820  76.5227360  26.3423070  70.8953960
  84.1643560  28.7797030  53.9123880  84.0594200  28.1649380  54.6385260
  83.9967780  28.2562920  53.1286890  84.3157880  27.4653830  69.8913110
  83.5503550  28.0338830  69.8067780  84.4973840  27.1730040  68.9981340
  87.4046290  27.8417060  54.5165870  86.8556390  28.2886360  55.1608610
  88.0265550  27.3366310  55.0403540  91.4581230  29.1959160  70.4488130
  92.1990700  29.5334920  69.9455590  90.6953910  29.3651220  69.8957900
  79.2943020  24.2012430  71.2527660  79.3348360  23.9026300  72.1612890
  80.1488520  24.6020040  71.0935180  83.0721410  26.8007980  56.4131170
  83.4937830  26.6347850  57.2562560  83.1972250  25.9908210  55.9186310
  81.2348830  22.7804530  69.2202150  80.7045290  22.2895480  68.5925490
  81.9036900  23.2088730  68.6860080  85.5849050  25.8245590  53.6608270
  86.1054710  25.1094610  53.2949420  86.2317450  26.4631460  53.9608780
  90.1326890  27.2473990  68.9843340  90.5467910  27.4019070  69.8333760
  89.1977890  27.3729210  69.1469120  90.6049060  24.5870150  70.9882490
  91.1869830  23.8322470  70.9002970  90.7810830  25.1177590  70.2113970
  81.7221130  19.7466900  69.2999440  81.6278000  19.1287650  68.5750310
  81.1418520  20.4733190  69.0729350  84.4882570  18.3040140  66.3326830
  84.0399870  18.3264400  65.4872380  83.8547770  17.9059160  66.9297130
  84.8942120  27.1994470  66.9539270  85.3130230  28.0427200  66.7815510
  83.9750750  27.3366510  66.7246050  87.2306020  24.9310650  68.3377110
  87.3502230  24.3351790  69.0771950  88.0900020  24.9680340  67.9178410
  89.5693920  25.4847840  66.9139620  89.0429140  26.0090460  66.3104760
  89.9125260  26.1175230  67.5449350  81.9680310  22.8741210  53.3589330
  81.7669370  22.0108570  53.7202670  81.7972360  22.7874570  52.4210930
  82.7449540  33.5047480  68.0697000  82.2070630  34.2293540  67.7505700
  82.9983500  33.0277820  67.2794340  83.9974790  21.4732000  69.5952930
  84.5874480  21.1647850  70.2830750  83.1795030  21.0011750  69.7512830
  88.8168220  21.0897810  69.8285950  88.1283740  20.4279350  69.7635940
  89.5374240  20.6436080  70.2734410  89.4468620  17.6849440  55.8876210
  89.7270910  16.8417340  56.2435630  88.6734350  17.9172550  56.4014960
  80.7663110  19.9741830  53.3467210  81.0689010  19.9809260  52.4386360
  81.5057700  19.6239690  53.8434870  85.6011750  34.7398690  68.3283650
  85.5270450  35.6433830  68.6356020  84.6990590  34.4210590  68.3005720
  83.9848040  18.9176450  54.3323410  83.6370040  18.2400440  53.7525860
  84.1860810  18.4565960  55.1466800  86.1497080  33.9057200  55.9510010
  87.0447870  34.2442170  55.9728770  86.1814710  33.1836610  55.3234290
  79.7893240  29.2784250  54.1797010  80.2268110  29.8213920  54.8354590
  80.2740970  28.4531200  54.1893350  77.0039040  32.0673280  61.6317270
  77.3342050  31.1994340  61.3995910  77.4330040  32.2731800  62.4622230
  81.6000960  30.3982290  59.2919240  81.2996500  30.2747260  60.1923150
  81.4938450  29.5390880  58.8834970  77.4929250  32.9343870  64.3698900
  77.0560240  33.1144670  65.2023050  78.0606930  33.6918490  64.2280620
  93.1291430  32.4360870  68.6576210  92.5293420  32.4953430  67.9140130
  93.2585330  31.4965850  68.7873060  94.3692880  30.1778690  53.9945920
  93.5385840  30.2455340  54.4653150  94.5464710  31.0682810  53.6912780
  93.8249340  26.9226170  56.4980120  94.5868250  27.4922820  56.6039810
  93.8403710  26.3553370  57.2688430  77.3253680  25.4464100  60.7287780
  76.6702520  25.1775740  60.0847480  78.1631630  25.3368580  60.2789760
  94.8309310  27.7776270  61.3422050  95.2018140  26.9943590  60.9358020
  95.4711240  28.4665370  61.1639350  91.8143070  29.1612850  66.7552370
  91.0002910  29.5910010  67.0178160  92.2217270  29.7731260  66.1421420
  93.8768510  27.2160540  53.6552640  94.1517350  28.1239420  53.5271860
  93.6879250  27.1523070  54.5914630  90.2744120  20.2405390  54.9506270
  90.6929000  20.0536370  54.1102930  89.9680180  19.3884440  55.2609200
  93.7733850  25.1529530  58.6482070  93.3977450  24.3857460  58.2163360
  93.0436970  25.5352230  59.1357000  78.3629610  25.8316670  65.2691120
  78.7302650  25.7444070  66.1487140  77.7940430  25.0683220  65.1697980
  93.1633470  24.3001050  68.2821590  92.9319560  24.0713800  67.3819540
  93.4238020  25.2200600  68.2366480  77.9145610  22.7425760  69.1749540
  77.0201660  22.7092520  69.5143250  78.4543160  22.9412550  69.9400790
  91.6021540  19.5257480  71.0601290  92.4791720  19.5340880  71.4435290
  91.6142380  18.7888320  70.4493640  76.5391760  22.6563030  56.6713110
  75.6355840  22.9193230  56.4964770  77.0232380  22.9274200  55.8913070
  93.0484810  23.3787020  61.9489310  93.5722290  22.8849670  61.3179480
  93.6344230  23.5137380  62.6936880  93.2274530  23.4626890  65.4708860
  92.2777240  23.4290430  65.5853850  93.4087540  24.3727000  65.2358630
  79.0818970  21.7128570  54.5807490  79.7910670  21.2911790  54.0954770
  78.3658910  21.7803800  53.9490840  78.7293130  17.7667900  53.6210140
  79.4521260  18.3076840  53.9391360  79.0017650  17.4931320  52.7451680
  92.5384780  22.6360370  57.8881720  93.0343900  22.4031240  58.6730600
  92.3400850  21.7972210  57.4719360  78.4185320  17.0174090  63.5232760
  79.0661510  16.4671470  63.0827920  78.8387160  17.2717240  64.3448570
  93.9671940  21.2721320  60.4219400  93.8571220  21.1177360  61.3601670
  94.7279530  20.7442260  60.1794810  92.3137660  17.2115450  66.8802400
  92.9509880  17.8249590  67.2461590  92.4612550  17.2476110  65.9351630
  94.8562210  19.1029240  53.6625540  95.7811520  18.9710420  53.4543830
  94.8338000  19.1822060  54.6161990  94.9300700  19.8739900  56.2882250
  94.1352200  19.8085020  56.8175160  95.1343980  20.8090540  56.2767600
  91.8719120  33.9131450  60.2820640  92.4678190  33.5916020  59.6055060
  92.1297270  33.4403270  61.0733910  78.1717320  17.1729760  66.2658080
  77.8232140  17.6293580  67.0316260  77.8405020  16.2786890  66.3480510
  79.7781690  30.3449360  70.4311270  79.7351320  29.9742270  71.3125730
  79.9092700  31.2826930  70.5713090  83.4787720  31.9008950  66.0320990
  83.2379080  32.1683510  65.1451510  84.4190360  32.0714680  66.0871850
  85.6842140  18.3641640  69.7877500  85.6231030  18.9563470  70.5372910
  86.6242520  18.2567600  69.6427760  88.3216700  18.0211700  69.4269790
  88.9357110  18.3390990  68.7650870  88.8666260  17.5360290  70.0465650
  94.7391880  33.9203330  66.8331630  94.2450160  34.3172200  66.1158760
  94.1305170  33.2952540  67.2268910  78.8437960  16.7005960  69.5408850
  79.3920950  16.5194010  68.7774960  78.9093270  15.9100070  70.0765160
  79.6169720  33.2911610  67.5509050  79.0230040  33.1596310  68.2899090
  79.6093560  32.4549750  67.0851150  89.0624740  16.5843840  65.7539080
  88.1884580  16.9178950  65.5512010  88.9535490  16.1117020  66.5790950
  89.9696720  18.7914710  67.1380800  89.6410080  17.9766470  66.7582530
  90.9179020  18.7484520  67.0146490  92.4231330  34.5626750  64.1118370
  91.9634300  35.3142560  63.7376390  91.7943790  33.8433220  64.0533170
  79.2481950  30.6569990  66.5017090  78.5216010  30.0375280  66.4343040
  79.3091100  31.0510600  65.6315170  82.8527050  32.8714990  63.2866500
  83.3692070  32.2602350  62.7614760  83.5024430  33.3743770  63.7777510
  85.5922550  33.7623480  64.1135480  85.8800360  33.5077780  63.2368490
  86.1045770  33.2100840  64.7041050  86.8099560  17.5013680  64.6931990
  86.0271350  17.9759180  64.9728750  86.5162490  16.5968510  64.5845170
  91.3620630  18.2036780  62.7381080  91.8028720  18.1481880  61.8902680
  91.0928220  19.1194790  62.8091260  93.2259200  17.8352020  60.7489900
  93.1647600  16.8913240  60.6020920  94.0051230  17.9432110  61.2943360
  77.5311950  33.9744380  59.7113850  77.3633990  33.3415060  60.4095740
  76.6646460  34.1803780  59.3608040  78.1539970  17.8061160  57.2145710
  78.9119330  17.9190040  56.6409740  77.6917140  18.6430360  57.1689140
  84.6953780  19.9200430  60.2048020  83.8828290  19.5457320  59.8643900
  85.1995420  19.1645510  60.5069210  89.1978760  16.5842880  61.4431090
  89.8008130  17.1563090  61.9179610  88.4571750  17.1482320  61.2204990
  92.3413360  16.9864440  56.7171370  92.5363990  17.8847890  56.9838800
  91.5543230  16.7551520  57.2104320  79.1374650  32.6677610  57.1563990
  78.6122270  33.0485640  56.4525950  79.0619230  33.2928380  57.8773700
  80.5265120  18.3325210  55.7547680  81.0557880  17.5455010  55.6255630
  81.1593440  19.0116400  55.9883210  82.7202960  18.0700350  58.8093070
  82.0905700  17.3687660  58.9763200  82.1808100  18.8304480  58.5926230
  85.6594910  34.6839580  71.4803680  86.5862220  34.4483850  71.5239640
  85.6445340  35.5111580  70.9989710  93.8939970  34.2265150  58.4777930
  94.0692160  33.5402890  57.8338850  93.1961540  34.7512200  58.0854600
  82.8458520  17.3484330  71.2445560  82.5642790  17.8517930  70.4806380
  83.2278220  16.5506080  70.8787690  81.7367620  34.6159990  56.0313240
  82.4686440  34.3319270  55.4837130  81.9961290  34.3773270  56.9212620
  80.8982410  30.7324720  56.0359570  80.2691290  31.2009820  56.5845400
  81.0130240  29.8873940  56.4705760  89.4473980  16.7637910  71.8226030
  89.3339430  17.0832520  72.7177550  90.2643720  17.1650420  71.5263310
  92.2272470  33.9109440  71.3044720  93.0197790  33.4158670  71.0970680
  92.5205620  34.5899580  71.9120330  88.3532130  24.7830380  42.1860770
  88.2726180  23.8684990  41.9152480  87.9396550  25.2797450  41.4800480
  86.4850170  26.5609400  44.0670040  85.7092270  26.0809840  44.3568610
  87.1363100  25.8815050  43.8926200  80.5016000  26.8729210  44.9445800
  79.6700880  26.6177920  45.3442310  81.1096980  26.9439980  45.6803720
  90.5057600  30.9669590  42.8469170  90.0439130  30.1956830  43.1756340
  91.3183150  30.9935660  43.3521620  80.4817260  30.9069300  45.1403820
  80.7845300  30.0167040  44.9614040  81.2260850  31.4639520  44.9126070
  78.9107950  21.8331100  38.7288190  78.0224650  22.1747070  38.6268070
  79.1949140  21.6331420  37.8369020  76.8740960  24.4336750  44.6127890
  77.4457070  23.6658950  44.6131530  76.8742500  24.7325510  43.7034500
  86.7320910  33.2527600  42.4673160  86.1132350  33.7085100  41.8967600
  87.5872690  33.4079060  42.0662860  85.9259160  29.2366590  44.0740200
  85.8567440  28.2956530  43.9129330  86.6879020  29.3268000  44.6462770
  78.1165830  19.8421110  46.3996820  77.9368670  18.9446860  46.6799580
  77.7145910  20.3892980  47.0743770  86.9564330  22.0436970  44.3009130
  87.3329150  21.1708850  44.1882800  86.8583840  22.3795670  43.4099570
  81.0869340  20.4162600  39.7626570  81.1936090  21.3166330  40.0695330
  80.1761700  20.3680570  39.4721220  90.7388450  19.5387410  41.2337470
  91.5598070  19.0483980  41.2762950  90.7722530  20.1285070  41.9869310
  78.7352500  22.3381610  45.0079160  79.4162610  22.6019980  45.6266560
  78.4200550  21.4982480  45.3417170  82.9277070  23.3848970  44.0951750
  83.4355290  23.8829940  44.7356770  83.4590310  22.6084170  43.9191110
  95.0288000  21.5554160  47.7981100  94.3240170  21.9435870  47.2796210
  95.2945920  22.2504450  48.4002030  81.2113170  18.0247530  48.3615170
  81.2131610  18.5419920  47.5561070  80.3817480  17.5477710  48.3385100
  87.5984260  28.1366840  39.8605070  86.9801530  28.6016290  39.2967790
  88.1107510  28.8294320  40.2774580  82.4616020  27.6642710  46.5388670
  82.1285400  28.2911630  47.1809740  82.6382700  28.1904590  45.7590340
  90.9749930  21.4787790  44.0065010  90.2705500  21.7672680  44.5868120
  91.3362090  22.2887900  43.6464570  80.8928500  19.7357490  46.3685620
  81.2345310  20.5799540  46.0739490  79.9544310  19.8841230  46.4850960
  81.6735120  29.6323510  48.3537850  82.2909120  30.3074590  48.0722300
  80.8128240  30.0411490  48.2625350  76.9667460  28.8223370  37.2344700
  76.5895440  29.3110470  36.5029600  77.2240530  29.4948650  37.8651230
  92.5912710  31.0962920  46.2692490  91.9076230  31.7662030  46.2609160
  93.1307000  31.2943570  45.5037350  94.0436850  20.9242580  44.3974220
  93.0961760  20.9581560  44.5289650  94.3686840  21.7381530  44.7823580
  84.5756390  17.2239760  42.6930210  84.8831370  16.6686650  41.9765710
  83.6457090  17.3584220  42.5103200  90.1271450  32.9407050  44.9837670
  90.1398610  32.5369340  44.1159930  89.5746670  33.7154340  44.8799100
  91.4216870  29.6623270  40.0727840  91.3113200  28.7197600  40.1977260
  91.4185120  30.0238910  40.9590600  89.5256890  27.8436890  46.3120280
  89.9425680  27.6297000  45.4773740  90.2496710  28.1009680  46.8828900
  86.9637150  25.2888590  39.4290330  86.0366430  25.2225970  39.6578800
  87.1161970  26.2268720  39.3145570  86.9506230  21.5605590  36.4257490
  86.0109900  21.7219550  36.5109950  87.2689490  22.2791270  35.8793480
  93.4718990  26.2424110  46.4036520  92.6437620  26.3117200  45.9286650
  94.0669470  26.8278420  45.9352350  90.9934440  26.8508890  39.9325580
  90.3746860  26.5128440  39.2851880  90.9758890  26.2068650  40.6404770
  90.4361000  23.0293430  47.3491390  90.0232180  23.8547140  47.6031380
  89.7036950  22.4438470  47.1567750  82.5693790  25.8153330  42.2110060
  82.1650790  25.1030580  41.7155960  82.6556910  25.4706570  43.0998100
  83.0375490  29.5020890  44.3749270  82.7403780  28.8966360  43.6957050
  83.9875310  29.5398200  44.2638630  81.2822410  22.5896540  45.9909100
  81.8337000  22.6991880  45.2162350  81.7965920  22.9634140  46.7064330
  91.1261100  33.0752760  48.0372370  90.6491660  33.8824950  47.8444980
  90.4422890  32.4231090  48.1898580  82.1293920  29.2402580  51.0257070
  81.2322450  29.4642550  51.2730470  82.1546790  29.3637520  50.0768470
  89.1699140  26.0895700  36.9398330  89.6092420  25.2518130  36.7936150
  89.8827560  26.7225100  37.0262470  80.9565140  26.1115900  49.6014440
  80.8172910  26.9838700  49.9701840  80.0746500  25.7688710  49.4562380
  87.2794520  31.0291770  40.9079570  87.7190430  31.7716100  40.4934960
  87.2181410  31.2718340  41.8318530  82.7545490  32.0537600  51.8099590
  82.7260920  32.4580550  50.9428020  82.5910460  31.1247960  51.6471190
  92.7516280  17.3438510  35.2539370  92.4388940  17.4365340  36.1538440
  93.5128750  17.9219540  35.2036800  79.2698420  24.7098310  39.7116710
  79.1496020  25.4360400  39.0997980  78.9599310  23.9401220  39.2344620
  94.7060310  32.8364700  53.1063760  95.1820030  33.3147590  53.7852840
  95.3267470  32.7682190  52.3809260  76.9083790  27.8813450  45.5185350
  76.9864210  28.0162220  44.5741070  77.5225470  27.1729340  45.7113470
  78.1531420  29.5813640  41.9291530  77.7459500  29.7228230  41.0745130
  79.0444430  29.2973800  41.7262740  94.1093560  30.0277550  50.2663770
  94.2356620  29.7889430  49.3480950  94.1514940  29.1962090  50.7385850
  87.9710300  33.7305550  48.8358580  88.4854970  33.6413560  49.6381010
  87.1279380  34.0765250  49.1286490  89.9464700  34.0160890  38.2642580
  89.7865840  33.7263830  39.1624410  89.7811410  33.2401020  37.7287810
  82.4253080  33.7959420  40.0414200  82.2495560  32.8794960  39.8282000
  81.5708820  34.1546710  40.2812000  89.6490830  31.5248450  36.8240580
  88.9555990  31.5225740  36.1642860  90.3913690  31.1007770  36.3934750
  89.2140760  33.1511160  40.8989070  89.6697710  32.3700540  41.2127690
  89.5533280  33.8617980  41.4430250  93.9617570  22.0810010  51.2313510
  93.3461840  22.5889680  50.7028970  93.6413990  21.1808340  51.1739450
  76.9643310  28.9227620  48.0579810  77.1274350  28.4532980  47.2399180
  77.4295760  28.4151180  48.7228650  81.7362080  18.0533380  43.0940380
  81.2930230  18.8342920  42.7624900  82.2947070  18.3763270  43.8011320
  86.0231890  20.9201900  48.6975700  85.5611260  21.1284920  49.5095640
  85.6210000  20.1061250  48.3946370  91.0236400  22.1410850  49.8272360
  90.1729990  21.8416600  50.1481430  90.8638190  22.3852860  48.9156180
  88.1186110  23.6412600  51.9271150  88.4439520  22.8076350  51.5873380
  88.9066440  24.1641120  52.0749480  84.8520900  17.6744080  37.9746210
  84.2275080  17.6703950  38.6999520  84.7651020  16.8075040  37.5782180
  83.7737980  18.5980710  44.9529980  84.0710310  19.5043540  44.8722000
  84.3223540  18.1099490  44.3389550  81.5276300  23.1766950  40.8221630
  81.3017220  22.9604120  41.7268250  80.7468830  23.6095410  40.4767600
  88.7574060  23.1830320  39.4212280  88.1582950  23.9066120  39.2375900
  89.3053670  23.1207100  38.6388730  83.9675510  24.0752530  51.4881900
  83.8719110  23.1347260  51.3382300  84.8107490  24.2967600  51.0929970
  87.3638930  21.8193860  41.4515560  87.7568500  22.1366060  40.6384250
  87.7255780  20.9405740  41.5660080  79.0986050  20.4866200  49.6415680
  78.7049440  21.3341410  49.8488460  78.4104450  19.8492570  49.8324320
  85.6731100  20.5701170  52.7112420  84.9829420  20.3773370  53.3458510
  86.4163400  20.8535810  53.2436720  76.4003100  18.4094660  43.6745760
  76.1116150  18.9797520  44.3870740  77.1448860  17.9299110  44.0376990
  76.5873330  22.3514780  34.8848480  76.5048000  23.2945540  35.0263470
  76.2356390  22.2089690  34.0060830  87.9494070  24.4099610  45.5466340
  87.2175190  24.9186420  45.8956440  87.5518410  23.5929590  45.2455120
  84.3871460  21.0853810  43.9518830  84.3907520  20.6443760  43.1023370
  85.2822580  21.4071140  44.0590650  80.2373840  20.9680300  42.9113040
  79.8973890  21.4455530  43.6680090  79.4751160  20.5145420  42.5514140
  84.4491610  22.0865890  36.9425590  84.5704430  22.0452370  37.8911410
  84.0640120  22.9490040  36.7872320  88.4119980  19.8633290  44.9589280
  88.4292720  20.3141940  45.8031130  88.1635560  18.9638930  45.1722720
  83.4613110  24.3967030  36.3408890  82.8930010  23.9485280  35.7144800
  84.1702110  24.7559810  35.8074040  91.8390730  17.2765470  50.7975660
  92.1636500  16.5455130  51.3233640  91.8747240  16.9579110  49.8956650
  78.5382290  28.2979050  50.2175620  78.1537080  27.6572720  50.8158580
  78.8494480  29.0015170  50.7870350  84.6879430  25.1455590  45.6984240
  85.0549560  24.6714160  46.4445580  84.4984490  26.0197160  46.0392580
  77.5519920  19.8899280  41.8277710  77.2666840  19.5254950  42.6656330
  77.4898780  19.1579740  41.2140850  82.4778800  24.1864230  48.0168450
  82.1735870  25.0656210  48.2418810  83.4325260  24.2464020  48.0525890
  81.0060590  28.3925220  38.6135300  80.2322850  27.8522840  38.4534020
  81.7355220  27.8731830  38.2753060  91.7648570  27.3890580  44.4061690
  92.4847690  27.8845870  44.0157800  91.5630390  26.7108470  43.7615560
  87.2258510  18.7828540  38.5491080  86.4123120  18.2841710  38.4736390
  87.0320460  19.6226790  38.1327430  87.1467370  27.4599640  50.2930690
  87.0804680  26.5395310  50.0388280  86.5172510  27.5575080  51.0075330
  89.9406900  23.1548190  36.8453240  90.8286520  23.4665420  36.6704580
  89.9111990  22.2820440  36.4533820  81.0497990  28.0605600  42.2514110
  81.5676660  27.2573860  42.1971000  80.5982010  27.9984740  43.0930940
  85.9367490  29.3271880  37.5241410  86.2783190  30.0714110  37.0284730
  85.1080200  29.6403000  37.8866240  78.5342530  25.0266970  49.1639810
  78.1757470  25.6920820  49.7513150  78.2397090  24.1950520  49.5352430
  81.7355650  25.4851210  52.0479360  81.4355790  25.6308390  51.1507180
  82.5066890  24.9256500  51.9552750  87.0784100  30.2820210  50.0434490
  87.0928640  29.3501170  49.8253400  86.3709200  30.3679970  50.6824260
  92.2121170  24.4660030  36.3133100  92.1284890  24.8974250  35.4629540
  92.9315360  24.9258380  36.7459920  93.2895310  26.9227550  49.3903070
  92.5643500  27.5156330  49.1932460  93.8170770  26.9151090  48.5916440
  93.2408420  31.3202290  39.0415230  92.5984580  30.6657910  39.3158950
  92.8539080  31.7257380  38.2655900  88.8194900  28.6487720  42.8886920
  89.1718720  28.0515850  42.2288290  87.9357230  28.3231950  43.0595170
  84.9058180  29.4085410  40.2957330  85.5929310  29.9554620  40.6764920
  84.1190600  29.9526140  40.3306940  77.0450580  25.0258230  35.7874410
  77.9145430  25.3083030  36.0710330  76.5540900  25.8394100  35.6723220
  84.2085390  26.4131440  39.9082690  84.6648170  27.2236690  40.1342880
  83.8573600  26.0954580  40.7401180  86.5118000  31.9237780  47.1374990
  87.1560220  32.1297160  47.8148410  86.8747440  31.1626180  46.6845840
  80.1097170  16.7569090  40.3805210  79.9811800  16.7486990  41.3290130
  79.2859190  17.0952180  40.0296220  87.7850080  29.9270130  45.8552440
  88.4272310  29.2263290  45.9684610  88.3099430  30.7068570  45.6749330
  91.6305800  30.2118750  35.5791580  91.4043380  29.4949190  36.1716220
  91.2402000  29.9631190  34.7413330  89.5587700  30.7265030  49.0588500
  89.8943940  31.3131720  49.7366420  88.6388040  30.5957740  49.2886290
  77.4121830  34.2385610  36.3536040  77.7719470  34.8374950  35.6993310
  77.2714170  34.7845500  37.1271070  77.1091100  18.5160210  49.8411910
  76.3949620  18.7157130  50.4464520  77.5286140  17.7399780  50.2126710
  91.2122050  28.1290690  37.2405740  90.9243750  28.5903380  38.0283620
  92.0074220  27.6688460  37.5089960  77.3963690  32.5040470  50.8278440
  77.5054810  31.5635210  50.6873830  76.7444250  32.7695220  50.1792170
  85.3876280  30.7756360  52.2276560  85.0673150  30.0565600  52.7722250
  84.7134640  31.4511430  52.3012620  83.4290450  31.6216810  37.1709710
  83.4200550  32.3546500  36.5554220  82.5088810  31.3748390  37.2636670
  79.0297090  26.8431700  37.9156470  78.4225040  27.5830600  37.9251770
  79.5046440  26.9331060  37.0894670  88.6029880  21.0082520  47.5913360
  88.9710700  20.1877730  47.9192930  87.7428080  21.0684410  48.0069010
  91.9691910  19.9639460  38.4000920  91.3405070  20.0685130  37.6859150
  91.4743830  20.1836240  39.1894800  86.4150050  31.6845050  35.8334900
  86.5162030  31.4809040  34.9036880  85.5151790  31.4303330  36.0382680
  83.9375940  22.2425410  39.8158800  83.2292090  22.7111750  40.2572410
  84.2220420  21.5847420  40.4503990  85.5631870  23.6622110  47.8151330
  86.0617120  24.1367930  48.4803180  85.7054820  22.7385630  48.0221360
  87.9691370  18.9676070  41.2554590  87.8459150  18.9862200  40.3064100
  88.9175930  19.0155010  41.3752990  85.0568160  34.2031370  40.5282570
  85.3109660  34.1652760  39.6061940  84.1080640  34.0764700  40.5210820
  82.1410960  20.5510490  37.1909510  82.9901490  20.9880640  37.1249700
  81.7742230  20.8630750  38.0181570  92.7698730  19.8790070  48.6579720
  92.2672330  20.6195470  48.9973530  93.5855390  20.2674070  48.3416510
  91.0620740  25.1223250  42.1041080  90.1210880  25.1373480  42.2788770
  91.3764810  24.3359210  42.5501380  81.0402380  26.8042850  35.6645040
  81.8065650  26.6924210  36.2270470  81.1177070  26.1080820  35.0121810
  79.7349140  24.2367920  36.3477930  79.8152730  23.2895430  36.4595330
  80.6268890  24.5674800  36.4538590  93.0646320  32.2932100  43.7795340
  93.1893740  33.1163270  44.2519150  93.9311880  32.0822830  43.4319490
  80.5363850  34.3863310  43.4512470  81.2726330  33.8378770  43.7221040
  80.9204770  35.2519320  43.3118460  77.4209330  30.4536880  39.3253980
  76.4949110  30.6958020  39.3159390  77.8865760  31.2811140  39.2038730
  79.5422130  33.5709380  52.6398050  80.3434860  33.8921430  53.0533450
  79.0273950  33.2104960  53.3617960  83.6466160  33.5593620  35.2738040
  84.4394770  33.8482450  34.8219830  83.1270510  33.1285790  34.5950520
  88.3786760  29.6789250  52.5873460  87.7724920  29.7020850  51.8469210
  88.0740870  28.9472290  53.1240710  89.8087130  33.4069540  51.1982870
  90.7608880  33.3227560  51.1483110  89.6615350  34.0711250  51.8716660
  92.6996330  32.7863750  36.6974780  92.4137840  32.3728890  35.8828960
  92.5015880  33.7151460  36.5775300  77.2619940  26.0582840  51.5834100
  77.7658960  25.4790120  52.1550330  76.5227360  26.3423070  52.1210470
  84.1643560  28.7797030  35.1380390  84.0594200  28.1649380  35.8641770
  83.9967780  28.2562920  34.3543400  84.3157880  27.4653830  51.1169620
  83.5503550  28.0338830  51.0324290  84.4973840  27.1730040  50.2237850
  87.4046290  27.8417060  35.7422380  86.8556390  28.2886360  36.3865120
  88.0265550  27.3366310  36.2660050  91.4581230  29.1959160  51.6744640
  92.1990700  29.5334920  51.1712100  90.6953910  29.3651220  51.1214410
  79.2943020  24.2012430  52.4784170  79.3348360  23.9026300  53.3869400
  80.1488520  24.6020040  52.3191690  83.0721410  26.8007980  37.6387680
  83.4937830  26.6347850  38.4819070  83.1972250  25.9908210  37.1442820
  81.2348830  22.7804530  50.4458660  80.7045290  22.2895480  49.8182000
  81.9036900  23.2088730  49.9116590  85.5849050  25.8245590  34.8864780
  86.1054710  25.1094610  34.5205930  86.2317450  26.4631460  35.1865290
  90.1326890  27.2473990  50.2099850  90.5467910  27.4019070  51.0590270
  89.1977890  27.3729210  50.3725630  90.6049060  24.5870150  52.2139000
  91.1869830  23.8322470  52.1259480  90.7810830  25.1177590  51.4370480
  81.7221130  19.7466900  50.5255950  81.6278000  19.1287650  49.8006820
  81.1418520  20.4733190  50.2985860  84.4882570  18.3040140  47.5583340
  84.0399870  18.3264400  46.7128890  83.8547770  17.9059160  48.1553640
  84.8942120  27.1994470  48.1795780  85.3130230  28.0427200  48.0072020
  83.9750750  27.3366510  47.9502560  87.2306020  24.9310650  49.5633620
  87.3502230  24.3351790  50.3028460  88.0900020  24.9680340  49.1434920
  89.5693920  25.4847840  48.1396130  89.0429140  26.0090460  47.5361270
  89.9125260  26.1175230  48.7705860  81.9680310  22.8741210  34.5845840
  81.7669370  22.0108570  34.9459180  81.7972360  22.7874570  33.6467440
  82.7449540  33.5047480  49.2953510  82.2070630  34.2293540  48.9762210
  82.9983500  33.0277820  48.5050850  83.9974790  21.4732000  50.8209440
  84.5874480  21.1647850  51.5087260  83.1795030  21.0011750  50.9769340
  88.8168220  21.0897810  51.0542460  88.1283740  20.4279350  50.9892450
  89.5374240  20.6436080  51.4990920  89.4468620  17.6849440  37.1132720
  89.7270910  16.8417340  37.4692140  88.6734350  17.9172550  37.6271470
  80.7663110  19.9741830  34.5723720  81.0689010  19.9809260  33.6642870
  81.5057700  19.6239690  35.0691380  85.6011750  34.7398690  49.5540160
  85.5270450  35.6433830  49.8612530  84.6990590  34.4210590  49.5262230
  83.9848040  18.9176450  35.5579920  83.6370040  18.2400440  34.9782370
  84.1860810  18.4565960  36.3723310  86.1497080  33.9057200  37.1766520
  87.0447870  34.2442170  37.1985280  86.1814710  33.1836610  36.5490800
  79.7893240  29.2784250  35.4053520  80.2268110  29.8213920  36.0611100
  80.2740970  28.4531200  35.4149860  77.0039040  32.0673280  42.8573780
  77.3342050  31.1994340  42.6252420  77.4330040  32.2731800  43.6878740
  81.6000960  30.3982290  40.5175750  81.2996500  30.2747260  41.4179660
  81.4938450  29.5390880  40.1091480  77.4929250  32.9343870  45.5955410
  77.0560240  33.1144670  46.4279560  78.0606930  33.6918490  45.4537130
  93.1291430  32.4360870  49.8832720  92.5293420  32.4953430  49.1396640
  93.2585330  31.4965850  50.0129570  94.3692880  30.1778690  35.2202430
  93.5385840  30.2455340  35.6909660  94.5464710  31.0682810  34.9169290
  93.8249340  26.9226170  37.7236630  94.5868250  27.4922820  37.8296320
  93.8403710  26.3553370  38.4944940  77.3253680  25.4464100  41.9544290
  76.6702520  25.1775740  41.3103990  78.1631630  25.3368580  41.5046270
  94.8309310  27.7776270  42.5678560  95.2018140  26.9943590  42.1614530
  95.4711240  28.4665370  42.3895860  91.8143070  29.1612850  47.9808880
  91.0002910  29.5910010  48.2434670  92.2217270  29.7731260  47.3677930
  93.8768510  27.2160540  34.8809150  94.1517350  28.1239420  34.7528370
  93.6879250  27.1523070  35.8171140  90.2744120  20.2405390  36.1762780
  90.6929000  20.0536370  35.3359440  89.9680180  19.3884440  36.4865710
  93.7733850  25.1529530  39.8738580  93.3977450  24.3857460  39.4419870
  93.0436970  25.5352230  40.3613510  78.3629610  25.8316670  46.4947630
  78.7302650  25.7444070  47.3743650  77.7940430  25.0683220  46.3954490
  93.1633470  24.3001050  49.5078100  92.9319560  24.0713800  48.6076050
  93.4238020  25.2200600  49.4622990  77.9145610  22.7425760  50.4006050
  77.0201660  22.7092520  50.7399760  78.4543160  22.9412550  51.1657300
  91.6021540  19.5257480  52.2857800  92.4791720  19.5340880  52.6691800
  91.6142380  18.7888320  51.6750150  76.5391760  22.6563030  37.8969620
  75.6355840  22.9193230  37.7221280  77.0232380  22.9274200  37.1169580
  93.0484810  23.3787020  43.1745820  93.5722290  22.8849670  42.5435990
  93.6344230  23.5137380  43.9193390  93.2274530  23.4626890  46.6965370
  92.2777240  23.4290430  46.8110360  93.4087540  24.3727000  46.4615140
  79.0818970  21.7128570  35.8064000  79.7910670  21.2911790  35.3211280
  78.3658910  21.7803800  35.1747350  78.7293130  17.7667900  34.8466650
  79.4521260  18.3076840  35.1647870  79.0017650  17.4931320  33.9708190
  92.5384780  22.6360370  39.1138230  93.0343900  22.4031240  39.8987110
  92.3400850  21.7972210  38.6975870  78.4185320  17.0174090  44.7489270
  79.0661510  16.4671470  44.3084430  78.8387160  17.2717240  45.5705080
  93.9671940  21.2721320  41.6475910  93.8571220  21.1177360  42.5858180
  94.7279530  20.7442260  41.4051320  92.3137660  17.2115450  48.1058910
  92.9509880  17.8249590  48.4718100  92.4612550  17.2476110  47.1608140
  94.8562210  19.1029240  34.8882050  95.7811520  18.9710420  34.6800340
  94.8338000  19.1822060  35.8418500  94.9300700  19.8739900  37.5138760
  94.1352200  19.8085020  38.0431670  95.1343980  20.8090540  37.5024110
  91.8719120  33.9131450  41.5077150  92.4678190  33.5916020  40.8311570
  92.1297270  33.4403270  42.2990420  78.1717320  17.1729760  47.4914590
  77.8232140  17.6293580  48.2572770  77.8405020  16.2786890  47.5737020
  79.7781690  30.3449360  51.6567780  79.7351320  29.9742270  52.5382240
  79.9092700  31.2826930  51.7969600  83.4787720  31.9008950  47.2577500
  83.2379080  32.1683510  46.3708020  84.4190360  32.0714680  47.3128360
  85.6842140  18.3641640  51.0134010  85.6231030  18.9563470  51.7629420
  86.6242520  18.2567600  50.8684270  88.3216700  18.0211700  50.6526300
  88.9357110  18.3390990  49.9907380  88.8666260  17.5360290  51.2722160
  94.7391880  33.9203330  48.0588140  94.2450160  34.3172200  47.3415270
  94.1305170  33.2952540  48.4525420  78.8437960  16.7005960  50.7665360
  79.3920950  16.5194010  50.0031470  78.9093270  15.9100070  51.3021670
  79.6169720  33.2911610  48.7765560  79.0230040  33.1596310  49.5155600
  79.6093560  32.4549750  48.3107660  89.0624740  16.5843840  46.9795590
  88.1884580  16.9178950  46.7768520  88.9535490  16.1117020  47.8047460
  89.9696720  18.7914710  48.3637310  89.6410080  17.9766470  47.9839040
  90.9179020  18.7484520  48.2403000  92.4231330  34.5626750  45.3374880
  91.9634300  35.3142560  44.9632900  91.7943790  33.8433220  45.2789680
  79.2481950  30.6569990  47.7273600  78.5216010  30.0375280  47.6599550
  79.3091100  31.0510600  46.8571680  82.8527050  32.8714990  44.5123010
  83.3692070  32.2602350  43.9871270  83.5024430  33.3743770  45.0034020
  85.5922550  33.7623480  45.3391990  85.8800360  33.5077780  44.4625000
  86.1045770  33.2100840  45.9297560  86.8099560  17.5013680  45.9188500
  86.0271350  17.9759180  46.1985260  86.5162490  16.5968510  45.8101680
  91.3620630  18.2036780  43.9637590  91.8028720  18.1481880  43.1159190
  91.0928220  19.1194790  44.0347770  93.2259200  17.8352020  41.9746410
  93.1647600  16.8913240  41.8277430  94.0051230  17.9432110  42.5199870
  77.5311950  33.9744380  40.9370360  77.3633990  33.3415060  41.6352250
  76.6646460  34.1803780  40.5864550  78.1539970  17.8061160  38.4402220
  78.9119330  17.9190040  37.8666250  77.6917140  18.6430360  38.3945650
  84.6953780  19.9200430  41.4304530  83.8828290  19.5457320  41.0900410
  85.1995420  19.1645510  41.7325720  89.1978760  16.5842880  42.6687600
  89.8008130  17.1563090  43.1436120  88.4571750  17.1482320  42.4461500
  92.3413360  16.9864440  37.9427880  92.5363990  17.8847890  38.2095310
  91.5543230  16.7551520  38.4360830  79.1374650  32.6677610  38.3820500
  78.6122270  33.0485640  37.6782460  79.0619230  33.2928380  39.1030210
  80.5265120  18.3325210  36.9804190  81.0557880  17.5455010  36.8512140
  81.1593440  19.0116400  37.2139720  82.7202960  18.0700350  40.0349580
  82.0905700  17.3687660  40.2019710  82.1808100  18.8304480  39.8182740
  85.6594910  34.6839580  52.7060190  86.5862220  34.4483850  52.7496150
  85.6445340  35.5111580  52.2246220  93.8939970  34.2265150  39.7034440
  94.0692160  33.5402890  39.0595360  93.1961540  34.7512200  39.3111110
  82.8458520  17.3484330  52.4702070  82.5642790  17.8517930  51.7062890
  83.2278220  16.5506080  52.1044200  81.7367620  34.6159990  37.2569750
  82.4686440  34.3319270  36.7093640  81.9961290  34.3773270  38.1469130
  80.8982410  30.7324720  37.2616080  80.2691290  31.2009820  37.8101910
  81.0130240  29.8873940  37.6962270  89.4473980  16.7637910  53.0482540
  89.3339430  17.0832520  53.9434060  90.2643720  17.1650420  52.7519820
  92.2272470  33.9109440  52.5301230  93.0197790  33.4158670  52.3227190
  92.5205620  34.5899580  53.1376840  88.3532130  24.7830380  23.4117280
  88.2726180  23.8684990  23.1408990  87.9396550  25.2797450  22.7056990
  86.4850170  26.5609400  25.2926550  85.7092270  26.0809840  25.5825120
  87.1363100  25.8815050  25.1182710  80.5016000  26.8729210  26.1702310
  79.6700880  26.6177920  26.5698820  81.1096980  26.9439980  26.9060230
  90.5057600  30.9669590  24.0725680  90.0439130  30.1956830  24.4012850
  91.3183150  30.9935660  24.5778130  80.4817260  30.9069300  26.3660330
  80.7845300  30.0167040  26.1870550  81.2260850  31.4639520  26.1382580
  78.9107950  21.8331100  19.9544700  78.0224650  22.1747070  19.8524580
  79.1949140  21.6331420  19.0625530  76.8740960  24.4336750  25.8384400
  77.4457070  23.6658950  25.8388040  76.8742500  24.7325510  24.9291010
  86.7320910  33.2527600  23.6929670  86.1132350  33.7085100  23.1224110
  87.5872690  33.4079060  23.2919370  85.9259160  29.2366590  25.2996710
  85.8567440  28.2956530  25.1385840  86.6879020  29.3268000  25.8719280
  78.1165830  19.8421110  27.6253330  77.9368670  18.9446860  27.9056090
  77.7145910  20.3892980  28.3000280  86.9564330  22.0436970  25.5265640
  87.3329150  21.1708850  25.4139310  86.8583840  22.3795670  24.6356080
  81.0869340  20.4162600  20.9883080  81.1936090  21.3166330  21.2951840
  80.1761700  20.3680570  20.6977730  90.7388450  19.5387410  22.4593980
  91.5598070  19.0483980  22.5019460  90.7722530  20.1285070  23.2125820
  78.7352500  22.3381610  26.2335670  79.4162610  22.6019980  26.8523070
  78.4200550  21.4982480  26.5673680  82.9277070  23.3848970  25.3208260
  83.4355290  23.8829940  25.9613280  83.4590310  22.6084170  25.1447620
  95.0288000  21.5554160  29.0237610  94.3240170  21.9435870  28.5052720
  95.2945920  22.2504450  29.6258540  81.2113170  18.0247530  29.5871680
  81.2131610  18.5419920  28.7817580  80.3817480  17.5477710  29.5641610
  87.5984260  28.1366840  21.0861580  86.9801530  28.6016290  20.5224300
  88.1107510  28.8294320  21.5031090  82.4616020  27.6642710  27.7645180
  82.1285400  28.2911630  28.4066250  82.6382700  28.1904590  26.9846850
  90.9749930  21.4787790  25.2321520  90.2705500  21.7672680  25.8124630
  91.3362090  22.2887900  24.8721080  80.8928500  19.7357490  27.5942130
  81.2345310  20.5799540  27.2996000  79.9544310  19.8841230  27.7107470
  81.6735120  29.6323510  29.5794360  82.2909120  30.3074590  29.2978810
  80.8128240  30.0411490  29.4881860  76.9667460  28.8223370  18.4601210
  76.5895440  29.3110470  17.7286110  77.2240530  29.4948650  19.0907740
  92.5912710  31.0962920  27.4949000  91.9076230  31.7662030  27.4865670
  93.1307000  31.2943570  26.7293860  94.0436850  20.9242580  25.6230730
  93.0961760  20.9581560  25.7546160  94.3686840  21.7381530  26.0080090
  84.5756390  17.2239760  23.9186720  84.8831370  16.6686650  23.2022220
  83.6457090  17.3584220  23.7359710  90.1271450  32.9407050  26.2094180
  90.1398610  32.5369340  25.3416440  89.5746670  33.7154340  26.1055610
  91.4216870  29.6623270  21.2984350  91.3113200  28.7197600  21.4233770
  91.4185120  30.0238910  22.1847110  89.5256890  27.8436890  27.5376790
  89.9425680  27.6297000  26.7030250  90.2496710  28.1009680  28.1085410
  86.9637150  25.2888590  20.6546840  86.0366430  25.2225970  20.8835310
  87.1161970  26.2268720  20.5402080  86.9506230  21.5605590  17.6514000
  86.0109900  21.7219550  17.7366460  87.2689490  22.2791270  17.1049990
  93.4718990  26.2424110  27.6293030  92.6437620  26.3117200  27.1543160
  94.0669470  26.8278420  27.1608860  90.9934440  26.8508890  21.1582090
  90.3746860  26.5128440  20.5108390  90.9758890  26.2068650  21.8661280
  90.4361000  23.0293430  28.5747900  90.0232180  23.8547140  28.8287890
  89.7036950  22.4438470  28.3824260  82.5693790  25.8153330  23.4366570
  82.1650790  25.1030580  22.9412470  82.6556910  25.4706570  24.3254610
  83.0375490  29.5020890  25.6005780  82.7403780  28.8966360  24.9213560
  83.9875310  29.5398200  25.4895140  81.2822410  22.5896540  27.2165610
  81.8337000  22.6991880  26.4418860  81.7965920  22.9634140  27.9320840
  91.1261100  33.0752760  29.2628880  90.6491660  33.8824950  29.0701490
  90.4422890  32.4231090  29.4155090  82.1293920  29.2402580  32.2513580
  81.2322450  29.4642550  32.4986980  82.1546790  29.3637520  31.3024980
  89.1699140  26.0895700  18.1654840  89.6092420  25.2518130  18.0192660
  89.8827560  26.7225100  18.2518980  80.9565140  26.1115900  30.8270950
  80.8172910  26.9838700  31.1958350  80.0746500  25.7688710  30.6818890
  87.2794520  31.0291770  22.1336080  87.7190430  31.7716100  21.7191470
  87.2181410  31.2718340  23.0575040  82.7545490  32.0537600  33.0356100
  82.7260920  32.4580550  32.1684530  82.5910460  31.1247960  32.8727700
  92.7516280  17.3438510  16.4795880  92.4388940  17.4365340  17.3794950
  93.5128750  17.9219540  16.4293310  79.2698420  24.7098310  20.9373220
  79.1496020  25.4360400  20.3254490  78.9599310  23.9401220  20.4601130
  94.7060310  32.8364700  34.3320270  95.1820030  33.3147590  35.0109350
  95.3267470  32.7682190  33.6065770  76.9083790  27.8813450  26.7441860
  76.9864210  28.0162220  25.7997580  77.5225470  27.1729340  26.9369980
  78.1531420  29.5813640  23.1548040  77.7459500  29.7228230  22.3001640
  79.0444430  29.2973800  22.9519250  94.1093560  30.0277550  31.4920280
  94.2356620  29.7889430  30.5737460  94.1514940  29.1962090  31.9642360
  87.9710300  33.7305550  30.0615090  88.4854970  33.6413560  30.8637520
  87.1279380  34.0765250  30.3543000  89.9464700  34.0160890  19.4899090
  89.7865840  33.7263830  20.3880920  89.7811410  33.2401020  18.9544320
  82.4253080  33.7959420  21.2670710  82.2495560  32.8794960  21.0538510
  81.5708820  34.1546710  21.5068510  89.6490830  31.5248450  18.0497090
  88.9555990  31.5225740  17.3899370  90.3913690  31.1007770  17.6191260
  89.2140760  33.1511160  22.1245580  89.6697710  32.3700540  22.4384200
  89.5533280  33.8617980  22.6686760  93.9617570  22.0810010  32.4570020
  93.3461840  22.5889680  31.9285480  93.6413990  21.1808340  32.3995960
  76.9643310  28.9227620  29.2836320  77.1274350  28.4532980  28.4655690
  77.4295760  28.4151180  29.9485160  81.7362080  18.0533380  24.3196890
  81.2930230  18.8342920  23.9881410  82.2947070  18.3763270  25.0267830
  86.0231890  20.9201900  29.9232210  85.5611260  21.1284920  30.7352150
  85.6210000  20.1061250  29.6202880  91.0236400  22.1410850  31.0528870
  90.1729990  21.8416600  31.3737940  90.8638190  22.3852860  30.1412690
  88.1186110  23.6412600  33.1527660  88.4439520  22.8076350  32.8129890
  88.9066440  24.1641120  33.3005990  84.8520900  17.6744080  19.2002720
  84.2275080  17.6703950  19.9256030  84.7651020  16.8075040  18.8038690
  83.7737980  18.5980710  26.1786490  84.0710310  19.5043540  26.0978510
  84.3223540  18.1099490  25.5646060  81.5276300  23.1766950  22.0478140
  81.3017220  22.9604120  22.9524760  80.7468830  23.6095410  21.7024110
  88.7574060  23.1830320  20.6468790  88.1582950  23.9066120  20.4632410
  89.3053670  23.1207100  19.8645240  83.9675510  24.0752530  32.7138410
  83.8719110  23.1347260  32.5638810  84.8107490  24.2967600  32.3186480
  87.3638930  21.8193860  22.6772070  87.7568500  22.1366060  21.8640760
  87.7255780  20.9405740  22.7916590  79.0986050  20.4866200  30.8672190
  78.7049440  21.3341410  31.0744970  78.4104450  19.8492570  31.0580830
  85.6731100  20.5701170  33.9368930  84.9829420  20.3773370  34.5715020
  86.4163400  20.8535810  34.4693230  76.4003100  18.4094660  24.9002270
  76.1116150  18.9797520  25.6127250  77.1448860  17.9299110  25.2633500
  76.5873330  22.3514780  16.1104990  76.5048000  23.2945540  16.2519980
  76.2356390  22.2089690  15.2317340  87.9494070  24.4099610  26.7722850
  87.2175190  24.9186420  27.1212950  87.5518410  23.5929590  26.4711630
  84.3871460  21.0853810  25.1775340  84.3907520  20.6443760  24.3279880
  85.2822580  21.4071140  25.2847160  80.2373840  20.9680300  24.1369550
  79.8973890  21.4455530  24.8936600  79.4751160  20.5145420  23.7770650
  84.4491610  22.0865890  18.1682100  84.5704430  22.0452370  19.1167920
  84.0640120  22.9490040  18.0128830  88.4119980  19.8633290  26.1845790
  88.4292720  20.3141940  27.0287640  88.1635560  18.9638930  26.3979230
  83.4613110  24.3967030  17.5665400  82.8930010  23.9485280  16.9401310
  84.1702110  24.7559810  17.0330550  91.8390730  17.2765470  32.0232170
  92.1636500  16.5455130  32.5490150  91.8747240  16.9579110  31.1213160
  78.5382290  28.2979050  31.4432130  78.1537080  27.6572720  32.0415090
  78.8494480  29.0015170  32.0126860  84.6879430  25.1455590  26.9240750
  85.0549560  24.6714160  27.6702090  84.4984490  26.0197160  27.2649090
  77.5519920  19.8899280  23.0534220  77.2666840  19.5254950  23.8912840
  77.4898780  19.1579740  22.4397360  82.4778800  24.1864230  29.2424960
  82.1735870  25.0656210  29.4675320  83.4325260  24.2464020  29.2782400
  81.0060590  28.3925220  19.8391810  80.2322850  27.8522840  19.6790530
  81.7355220  27.8731830  19.5009570  91.7648570  27.3890580  25.6318200
  92.4847690  27.8845870  25.2414310  91.5630390  26.7108470  24.9872070
  87.2258510  18.7828540  19.7747590  86.4123120  18.2841710  19.6992900
  87.0320460  19.6226790  19.3583940  87.1467370  27.4599640  31.5187200
  87.0804680  26.5395310  31.2644790  86.5172510  27.5575080  32.2331840
  89.9406900  23.1548190  18.0709750  90.8286520  23.4665420  17.8961090
  89.9111990  22.2820440  17.6790330  81.0497990  28.0605600  23.4770620
  81.5676660  27.2573860  23.4227510  80.5982010  27.9984740  24.3187450
  85.9367490  29.3271880  18.7497920  86.2783190  30.0714110  18.2541240
  85.1080200  29.6403000  19.1122750  78.5342530  25.0266970  30.3896320
  78.1757470  25.6920820  30.9769660  78.2397090  24.1950520  30.7608940
  81.7355650  25.4851210  33.2735870  81.4355790  25.6308390  32.3763690
  82.5066890  24.9256500  33.1809260  87.0784100  30.2820210  31.2691000
  87.0928640  29.3501170  31.0509910  86.3709200  30.3679970  31.9080770
  92.2121170  24.4660030  17.5389610  92.1284890  24.8974250  16.6886050
  92.9315360  24.9258380  17.9716430  93.2895310  26.9227550  30.6159580
  92.5643500  27.5156330  30.4188970  93.8170770  26.9151090  29.8172950
  93.2408420  31.3202290  20.2671740  92.5984580  30.6657910  20.5415460
  92.8539080  31.7257380  19.4912410  88.8194900  28.6487720  24.1143430
  89.1718720  28.0515850  23.4544800  87.9357230  28.3231950  24.2851680
  84.9058180  29.4085410  21.5213840  85.5929310  29.9554620  21.9021430
  84.1190600  29.9526140  21.5563450  77.0450580  25.0258230  17.0130920
  77.9145430  25.3083030  17.2966840  76.5540900  25.8394100  16.8979730
  84.2085390  26.4131440  21.1339200  84.6648170  27.2236690  21.3599390
  83.8573600  26.0954580  21.9657690  86.5118000  31.9237780  28.3631500
  87.1560220  32.1297160  29.0404920  86.8747440  31.1626180  27.9102350
  80.1097170  16.7569090  21.6061720  79.9811800  16.7486990  22.5546640
  79.2859190  17.0952180  21.2552730  87.7850080  29.9270130  27.0808950
  88.4272310  29.2263290  27.1941120  88.3099430  30.7068570  26.9005840
  91.6305800  30.2118750  16.8048090  91.4043380  29.4949190  17.3972730
  91.2402000  29.9631190  15.9669840  89.5587700  30.7265030  30.2845010
  89.8943940  31.3131720  30.9622930  88.6388040  30.5957740  30.5142800
  77.4121830  34.2385610  17.5792550  77.7719470  34.8374950  16.9249820
  77.2714170  34.7845500  18.3527580  77.1091100  18.5160210  31.0668420
  76.3949620  18.7157130  31.6721030  77.5286140  17.7399780  31.4383220
  91.2122050  28.1290690  18.4662250  90.9243750  28.5903380  19.2540130
  92.0074220  27.6688460  18.7346470  77.3963690  32.5040470  32.0534950
  77.5054810  31.5635210  31.9130340  76.7444250  32.7695220  31.4048680
  85.3876280  30.7756360  33.4533070  85.0673150  30.0565600  33.9978760
  84.7134640  31.4511430  33.5269130  83.4290450  31.6216810  18.3966220
  83.4200550  32.3546500  17.7810730  82.5088810  31.3748390  18.4893180
  79.0297090  26.8431700  19.1412980  78.4225040  27.5830600  19.1508280
  79.5046440  26.9331060  18.3151180  88.6029880  21.0082520  28.8169870
  88.9710700  20.1877730  29.1449440  87.7428080  21.0684410  29.2325520
  91.9691910  19.9639460  19.6257430  91.3405070  20.0685130  18.9115660
  91.4743830  20.1836240  20.4151310  86.4150050  31.6845050  17.0591410
  86.5162030  31.4809040  16.1293390  85.5151790  31.4303330  17.2639190
  83.9375940  22.2425410  21.0415310  83.2292090  22.7111750  21.4828920
  84.2220420  21.5847420  21.6760500  85.5631870  23.6622110  29.0407840
  86.0617120  24.1367930  29.7059690  85.7054820  22.7385630  29.2477870
  87.9691370  18.9676070  22.4811100  87.8459150  18.9862200  21.5320610
  88.9175930  19.0155010  22.6009500  85.0568160  34.2031370  21.7539080
  85.3109660  34.1652760  20.8318450  84.1080640  34.0764700  21.7467330
  82.1410960  20.5510490  18.4166020  82.9901490  20.9880640  18.3506210
  81.7742230  20.8630750  19.2438080  92.7698730  19.8790070  29.8836230
  92.2672330  20.6195470  30.2230040  93.5855390  20.2674070  29.5673020
  91.0620740  25.1223250  23.3297590  90.1210880  25.1373480  23.5045280
  91.3764810  24.3359210  23.7757890  81.0402380  26.8042850  16.8901550
  81.8065650  26.6924210  17.4526980  81.1177070  26.1080820  16.2378320
  79.7349140  24.2367920  17.5734440  79.8152730  23.2895430  17.6851840
  80.6268890  24.5674800  17.6795100  93.0646320  32.2932100  25.0051850
  93.1893740  33.1163270  25.4775660  93.9311880  32.0822830  24.6576000
  80.5363850  34.3863310  24.6768980  81.2726330  33.8378770  24.9477550
  80.9204770  35.2519320  24.5374970  77.4209330  30.4536880  20.5510490
  76.4949110  30.6958020  20.5415900  77.8865760  31.2811140  20.4295240
  79.5422130  33.5709380  33.8654560  80.3434860  33.8921430  34.2789960
  79.0273950  33.2104960  34.5874470  83.6466160  33.5593620  16.4994550
  84.4394770  33.8482450  16.0476340  83.1270510  33.1285790  15.8207030
  88.3786760  29.6789250  33.8129970  87.7724920  29.7020850  33.0725720
  88.0740870  28.9472290  34.3497220  89.8087130  33.4069540  32.4239380
  90.7608880  33.3227560  32.3739620  89.6615350  34.0711250  33.0973170
  92.6996330  32.7863750  17.9231290  92.4137840  32.3728890  17.1085470
  92.5015880  33.7151460  17.8031810  77.2619940  26.0582840  32.8090610
  77.7658960  25.4790120  33.3806840  76.5227360  26.3423070  33.3466980
  84.1643560  28.7797030  16.3636900  84.0594200  28.1649380  17.0898280
  83.9967780  28.2562920  15.5799910  84.3157880  27.4653830  32.3426130
  83.5503550  28.0338830  32.2580800  84.4973840  27.1730040  31.4494360
  87.4046290  27.8417060  16.9678890  86.8556390  28.2886360  17.6121630
  88.0265550  27.3366310  17.4916560  91.4581230  29.1959160  32.9001150
  92.1990700  29.5334920  32.3968610  90.6953910  29.3651220  32.3470920
  79.2943020  24.2012430  33.7040680  79.3348360  23.9026300  34.6125910
  80.1488520  24.6020040  33.5448200  83.0721410  26.8007980  18.8644190
  83.4937830  26.6347850  19.7075580  83.1972250  25.9908210  18.3699330
  81.2348830  22.7804530  31.6715170  80.7045290  22.2895480  31.0438510
  81.9036900  23.2088730  31.1373100  85.5849050  25.8245590  16.1121290
  86.1054710  25.1094610  15.7462440  86.2317450  26.4631460  16.4121800
  90.1326890  27.2473990  31.4356360  90.5467910  27.4019070  32.2846780
  89.1977890  27.3729210  31.5982140  90.6049060  24.5870150  33.4395510
  91.1869830  23.8322470  33.3515990  90.7810830  25.1177590  32.6626990
  81.7221130  19.7466900  31.7512460  81.6278000  19.1287650  31.0263330
  81.1418520  20.4733190  31.5242370  84.4882570  18.3040140  28.7839850
  84.0399870  18.3264400  27.9385400  83.8547770  17.9059160  29.3810150
  84.8942120  27.1994470  29.4052290  85.3130230  28.0427200  29.2328530
  83.9750750  27.3366510  29.1759070  87.2306020  24.9310650  30.7890130
  87.3502230  24.3351790  31.5284970  88.0900020  24.9680340  30.3691430
  89.5693920  25.4847840  29.3652640  89.0429140  26.0090460  28.7617780
  89.9125260  26.1175230  29.9962370  81.9680310  22.8741210  15.8102350
  81.7669370  22.0108570  16.1715690  81.7972360  22.7874570  14.8723950
  82.7449540  33.5047480  30.5210020  82.2070630  34.2293540  30.2018720
  82.9983500  33.0277820  29.7307360  83.9974790  21.4732000  32.0465950
  84.5874480  21.1647850  32.7343770  83.1795030  21.0011750  32.2025850
  88.8168220  21.0897810  32.2798970  88.1283740  20.4279350  32.2148960
  89.5374240  20.6436080  32.7247430  89.4468620  17.6849440  18.3389230
  89.7270910  16.8417340  18.6948650  88.6734350  17.9172550  18.8527980
  80.7663110  19.9741830  15.7980230  81.0689010  19.9809260  14.8899380
  81.5057700  19.6239690  16.2947890  85.6011750  34.7398690  30.7796670
  85.5270450  35.6433830  31.0869040  84.6990590  34.4210590  30.7518740
  83.9848040  18.9176450  16.7836430  83.6370040  18.2400440  16.2038880
  84.1860810  18.4565960  17.5979820  86.1497080  33.9057200  18.4023030
  87.0447870  34.2442170  18.4241790  86.1814710  33.1836610  17.7747310
  79.7893240  29.2784250  16.6310030  80.2268110  29.8213920  17.2867610
  80.2740970  28.4531200  16.6406370  77.0039040  32.0673280  24.0830290
  77.3342050  31.1994340  23.8508930  77.4330040  32.2731800  24.9135250
  81.6000960  30.3982290  21.7432260  81.2996500  30.2747260  22.6436170
  81.4938450  29.5390880  21.3347990  77.4929250  32.9343870  26.8211920
  77.0560240  33.1144670  27.6536070  78.0606930  33.6918490  26.6793640
  93.1291430  32.4360870  31.1089230  92.5293420  32.4953430  30.3653150
  93.2585330  31.4965850  31.2386080  94.3692880  30.1778690  16.4458940
  93.5385840  30.2455340  16.9166170  94.5464710  31.0682810  16.1425800
  93.8249340  26.9226170  18.9493140  94.5868250  27.4922820  19.0552830
  93.8403710  26.3553370  19.7201450  77.3253680  25.4464100  23.1800800
  76.6702520  25.1775740  22.5360500  78.1631630  25.3368580  22.7302780
  94.8309310  27.7776270  23.7935070  95.2018140  26.9943590  23.3871040
  95.4711240  28.4665370  23.6152370  91.8143070  29.1612850  29.2065390
  91.0002910  29.5910010  29.4691180  92.2217270  29.7731260  28.5934440
  93.8768510  27.2160540  16.1065660  94.1517350  28.1239420  15.9784880
  93.6879250  27.1523070  17.0427650  90.2744120  20.2405390  17.4019290
  90.6929000  20.0536370  16.5615950  89.9680180  19.3884440  17.7122220
  93.7733850  25.1529530  21.0995090  93.3977450  24.3857460  20.6676380
  93.0436970  25.5352230  21.5870020  78.3629610  25.8316670  27.7204140
  78.7302650  25.7444070  28.6000160  77.7940430  25.0683220  27.6211000
  93.1633470  24.3001050  30.7334610  92.9319560  24.0713800  29.8332560
  93.4238020  25.2200600  30.6879500  77.9145610  22.7425760  31.6262560
  77.0201660  22.7092520  31.9656270  78.4543160  22.9412550  32.3913810
  91.6021540  19.5257480  33.5114310  92.4791720  19.5340880  33.8948310
  91.6142380  18.7888320  32.9006660  76.5391760  22.6563030  19.1226130
  75.6355840  22.9193230  18.9477790  77.0232380  22.9274200  18.3426090
  93.0484810  23.3787020  24.4002330  93.5722290  22.8849670  23.7692500
  93.6344230  23.5137380  25.1449900  93.2274530  23.4626890  27.9221880
  92.2777240  23.4290430  28.0366870  93.4087540  24.3727000  27.6871650
  79.0818970  21.7128570  17.0320510  79.7910670  21.2911790  16.5467790
  78.3658910  21.7803800  16.4003860  78.7293130  17.7667900  16.0723160
  79.4521260  18.3076840  16.3904380  79.0017650  17.4931320  15.1964700
  92.5384780  22.6360370  20.3394740  93.0343900  22.4031240  21.1243620
  92.3400850  21.7972210  19.9232380  78.4185320  17.0174090  25.9745780
  79.0661510  16.4671470  25.5340940  78.8387160  17.2717240  26.7961590
  93.9671940  21.2721320  22.8732420  93.8571220  21.1177360  23.8114690
  94.7279530  20.7442260  22.6307830  92.3137660  17.2115450  29.3315420
  92.9509880  17.8249590  29.6974610  92.4612550  17.2476110  28.3864650
  94.8562210  19.1029240  16.1138560  95.7811520  18.9710420  15.9056850
  94.8338000  19.1822060  17.0675010  94.9300700  19.8739900  18.7395270
  94.1352200  19.8085020  19.2688180  95.1343980  20.8090540  18.7280620
  91.8719120  33.9131450  22.7333660  92.4678190  33.5916020  22.0568080
  92.1297270  33.4403270  23.5246930  78.1717320  17.1729760  28.7171100
  77.8232140  17.6293580  29.4829280  77.8405020  16.2786890  28.7993530
  79.7781690  30.3449360  32.8824290  79.7351320  29.9742270  33.7638750
  79.9092700  31.2826930  33.0226110  83.4787720  31.9008950  28.4834010
  83.2379080  32.1683510  27.5964530  84.4190360  32.0714680  28.5384870
  85.6842140  18.3641640  32.2390520  85.6231030  18.9563470  32.9885930
  86.6242520  18.2567600  32.0940780  88.3216700  18.0211700  31.8782810
  88.9357110  18.3390990  31.2163890  88.8666260  17.5360290  32.4978670
  94.7391880  33.9203330  29.2844650  94.2450160  34.3172200  28.5671780
  94.1305170  33.2952540  29.6781930  78.8437960  16.7005960  31.9921870
  79.3920950  16.5194010  31.2287980  78.9093270  15.9100070  32.5278180
  79.6169720  33.2911610  30.0022070  79.0230040  33.1596310  30.7412110
  79.6093560  32.4549750  29.5364170  89.0624740  16.5843840  28.2052100
  88.1884580  16.9178950  28.0025030  88.9535490  16.1117020  29.0303970
  89.9696720  18.7914710  29.5893820  89.6410080  17.9766470  29.2095550
  90.9179020  18.7484520  29.4659510  92.4231330  34.5626750  26.5631390
  91.9634300  35.3142560  26.1889410  91.7943790  33.8433220  26.5046190
  79.2481950  30.6569990  28.9530110  78.5216010  30.0375280  28.8856060
  79.3091100  31.0510600  28.0828190  82.8527050  32.8714990  25.7379520
  83.3692070  32.2602350  25.2127780  83.5024430  33.3743770  26.2290530
  85.5922550  33.7623480  26.5648500  85.8800360  33.5077780  25.6881510
  86.1045770  33.2100840  27.1554070  86.8099560  17.5013680  27.1445010
  86.0271350  17.9759180  27.4241770  86.5162490  16.5968510  27.0358190
  91.3620630  18.2036780  25.1894100  91.8028720  18.1481880  24.3415700
  91.0928220  19.1194790  25.2604280  93.2259200  17.8352020  23.2002920
  93.1647600  16.8913240  23.0533940  94.0051230  17.9432110  23.7456380
  77.5311950  33.9744380  22.1626870  77.3633990  33.3415060  22.8608760
  76.6646460  34.1803780  21.8121060  78.1539970  17.8061160  19.6658730
  78.9119330  17.9190040  19.0922760  77.6917140  18.6430360  19.6202160
  84.6953780  19.9200430  22.6561040  83.8828290  19.5457320  22.3156920
  85.1995420  19.1645510  22.9582230  89.1978760  16.5842880  23.8944110
  89.8008130  17.1563090  24.3692630  88.4571750  17.1482320  23.6718010
  92.3413360  16.9864440  19.1684390  92.5363990  17.8847890  19.4351820
  91.5543230  16.7551520  19.6617340  79.1374650  32.6677610  19.6077010
  78.6122270  33.0485640  18.9038970  79.0619230  33.2928380  20.3286720
  80.5265120  18.3325210  18.2060700  81.0557880  17.5455010  18.0768650
  81.1593440  19.0116400  18.4396230  82.7202960  18.0700350  21.2606090
  82.0905700  17.3687660  21.4276220  82.1808100  18.8304480  21.0439250
  85.6594910  34.6839580  33.9316700  86.5862220  34.4483850  33.9752660
  85.6445340  35.5111580  33.4502730  93.8939970  34.2265150  20.9290950
  94.0692160  33.5402890  20.2851870  93.1961540  34.7512200  20.5367620
  82.8458520  17.3484330  33.6958580  82.5642790  17.8517930  32.9319400
  83.2278220  16.5506080  33.3300710  81.7367620  34.6159990  18.4826260
  82.4686440  34.3319270  17.9350150  81.9961290  34.3773270  19.3725640
  80.8982410  30.7324720  18.4872590  80.2691290  31.2009820  19.0358420
  81.0130240  29.8873940  18.9218780  89.4473980  16.7637910  34.2739050
  89.3339430  17.0832520  35.1690570  90.2643720  17.1650420  33.9776330
  92.2272470  33.9109440  33.7557740  93.0197790  33.4158670  33.5483700
  92.5205620  34.5899580  34.3633350  88.3532130  24.7830380   4.6373790
  88.2726180  23.8684990   4.3665500  87.9396550  25.2797450   3.9313500
  86.4850170  26.5609400   6.5183060  85.7092270  26.0809840   6.8081630
  87.1363100  25.8815050   6.3439220  80.5016000  26.8729210   7.3958820
  79.6700880  26.6177920   7.7955330  81.1096980  26.9439980   8.1316740
  90.5057600  30.9669590   5.2982190  90.0439130  30.1956830   5.6269360
  91.3183150  30.9935660   5.8034640  80.4817260  30.9069300   7.5916840
  80.7845300  30.0167040   7.4127060  81.2260850  31.4639520   7.3639090
  76.8740960  24.4336750   7.0640910  77.4457070  23.6658950   7.0644550
  76.8742500  24.7325510   6.1547520  86.7320910  33.2527600   4.9186180
  86.1132350  33.7085100   4.3480620  87.5872690  33.4079060   4.5175880
  85.9259160  29.2366590   6.5253220  85.8567440  28.2956530   6.3642350
  86.6879020  29.3268000   7.0975790  78.1165830  19.8421110   8.8509840
  77.9368670  18.9446860   9.1312600  77.7145910  20.3892980   9.5256790
  86.9564330  22.0436970   6.7522150  87.3329150  21.1708850   6.6395820
  86.8583840  22.3795670   5.8612590  81.0869340  20.4162600   2.2139590
  81.1936090  21.3166330   2.5208350  80.1761700  20.3680570   1.9234240
  90.7388450  19.5387410   3.6850490  91.5598070  19.0483980   3.7275970
  90.7722530  20.1285070   4.4382330  78.7352500  22.3381610   7.4592180
  79.4162610  22.6019980   8.0779580  78.4200550  21.4982480   7.7930190
  82.9277070  23.3848970   6.5464770  83.4355290  23.8829940   7.1869790
  83.4590310  22.6084170   6.3704130  95.0288000  21.5554160  10.2494120
  94.3240170  21.9435870   9.7309230  95.2945920  22.2504450  10.8515050
  81.2113170  18.0247530  10.8128190  81.2131610  18.5419920  10.0074090
  80.3817480  17.5477710  10.7898120  87.5984260  28.1366840   2.3118090
  86.9801530  28.6016290   1.7480810  88.1107510  28.8294320   2.7287600
  82.4616020  27.6642710   8.9901690  82.1285400  28.2911630   9.6322760
  82.6382700  28.1904590   8.2103360  90.9749930  21.4787790   6.4578030
  90.2705500  21.7672680   7.0381140  91.3362090  22.2887900   6.0977590
  80.8928500  19.7357490   8.8198640  81.2345310  20.5799540   8.5252510
  79.9544310  19.8841230   8.9363980  81.6735120  29.6323510  10.8050870
  82.2909120  30.3074590  10.5235320  80.8128240  30.0411490  10.7138370
  92.5912710  31.0962920   8.7205510  91.9076230  31.7662030   8.7122180
  93.1307000  31.2943570   7.9550370  94.0436850  20.9242580   6.8487240
  93.0961760  20.9581560   6.9802670  94.3686840  21.7381530   7.2336600
  84.5756390  17.2239760   5.1443230  84.8831370  16.6686650   4.4278730
  83.6457090  17.3584220   4.9616220  90.1271450  32.9407050   7.4350690
  90.1398610  32.5369340   6.5672950  89.5746670  33.7154340   7.3312120
  91.4216870  29.6623270   2.5240860  91.3113200  28.7197600   2.6490280
  91.4185120  30.0238910   3.4103620  89.5256890  27.8436890   8.7633300
  89.9425680  27.6297000   7.9286760  90.2496710  28.1009680   9.3341920
  86.9637150  25.2888590   1.8803350  86.0366430  25.2225970   2.1091820
  87.1161970  26.2268720   1.7658590  93.4718990  26.2424110   8.8549540
  92.6437620  26.3117200   8.3799670  94.0669470  26.8278420   8.3865370
  90.9934440  26.8508890   2.3838600  90.3746860  26.5128440   1.7364900
  90.9758890  26.2068650   3.0917790  90.4361000  23.0293430   9.8004410
  90.0232180  23.8547140  10.0544400  89.7036950  22.4438470   9.6080770
  82.5693790  25.8153330   4.6623080  82.1650790  25.1030580   4.1668980
  82.6556910  25.4706570   5.5511120  83.0375490  29.5020890   6.8262290
  82.7403780  28.8966360   6.1470070  83.9875310  29.5398200   6.7151650
  81.2822410  22.5896540   8.4422120  81.8337000  22.6991880   7.6675370
  81.7965920  22.9634140   9.1577350  91.1261100  33.0752760  10.4885390
  90.6491660  33.8824950  10.2958000  90.4422890  32.4231090  10.6411600
  82.1293920  29.2402580  13.4770090  81.2322450  29.4642550  13.7243490
  82.1546790  29.3637520  12.5281490  80.9565140  26.1115900  12.0527460
  80.8172910  26.9838700  12.4214860  80.0746500  25.7688710  11.9075400
  87.2794520  31.0291770   3.3592590  87.7190430  31.7716100   2.9447980
  87.2181410  31.2718340   4.2831550  82.7545490  32.0537600  14.2612610
  82.7260920  32.4580550  13.3941040  82.5910460  31.1247960  14.0984210
  94.7060310  32.8364700  15.5576780  95.1820030  33.3147590  16.2365860
  95.3267470  32.7682190  14.8322280  76.9083790  27.8813450   7.9698370
  76.9864210  28.0162220   7.0254090  77.5225470  27.1729340   8.1626490
  78.1531420  29.5813640   4.3804550  77.7459500  29.7228230   3.5258150
  79.0444430  29.2973800   4.1775760  94.1093560  30.0277550  12.7176790
  94.2356620  29.7889430  11.7993970  94.1514940  29.1962090  13.1898870
  87.9710300  33.7305550  11.2871600  88.4854970  33.6413560  12.0894030
  87.1279380  34.0765250  11.5799510  82.4253080  33.7959420   2.4927220
  82.2495560  32.8794960   2.2795020  81.5708820  34.1546710   2.7325020
  89.2140760  33.1511160   3.3502090  89.6697710  32.3700540   3.6640710
  89.5533280  33.8617980   3.8943270  93.9617570  22.0810010  13.6826530
  93.3461840  22.5889680  13.1541990  93.6413990  21.1808340  13.6252470
  76.9643310  28.9227620  10.5092830  77.1274350  28.4532980   9.6912200
  77.4295760  28.4151180  11.1741670  81.7362080  18.0533380   5.5453400
  81.2930230  18.8342920   5.2137920  82.2947070  18.3763270   6.2524340
  86.0231890  20.9201900  11.1488720  85.5611260  21.1284920  11.9608660
  85.6210000  20.1061250  10.8459390  91.0236400  22.1410850  12.2785380
  90.1729990  21.8416600  12.5994450  90.8638190  22.3852860  11.3669200
  88.1186110  23.6412600  14.3784170  88.4439520  22.8076350  14.0386400
  88.9066440  24.1641120  14.5262500  83.7737980  18.5980710   7.4043000
  84.0710310  19.5043540   7.3235020  84.3223540  18.1099490   6.7902570
  81.5276300  23.1766950   3.2734650  81.3017220  22.9604120   4.1781270
  80.7468830  23.6095410   2.9280620  83.9675510  24.0752530  13.9394920
  83.8719110  23.1347260  13.7895320  84.8107490  24.2967600  13.5442990
  87.3638930  21.8193860   3.9028580  87.7568500  22.1366060   3.0897270
  87.7255780  20.9405740   4.0173100  79.0986050  20.4866200  12.0928700
  78.7049440  21.3341410  12.3001480  78.4104450  19.8492570  12.2837340
  85.6731100  20.5701170  15.1625440  84.9829420  20.3773370  15.7971530
  86.4163400  20.8535810  15.6949740  76.4003100  18.4094660   6.1258780
  76.1116150  18.9797520   6.8383760  77.1448860  17.9299110   6.4890010
  87.9494070  24.4099610   7.9979360  87.2175190  24.9186420   8.3469460
  87.5518410  23.5929590   7.6968140  84.3871460  21.0853810   6.4031850
  84.3907520  20.6443760   5.5536390  85.2822580  21.4071140   6.5103670
  80.2373840  20.9680300   5.3626060  79.8973890  21.4455530   6.1193110
  79.4751160  20.5145420   5.0027160  88.4119980  19.8633290   7.4102300
  88.4292720  20.3141940   8.2544150  88.1635560  18.9638930   7.6235740
  91.8390730  17.2765470  13.2488680  92.1636500  16.5455130  13.7746660
  91.8747240  16.9579110  12.3469670  78.5382290  28.2979050  12.6688640
  78.1537080  27.6572720  13.2671600  78.8494480  29.0015170  13.2383370
  84.6879430  25.1455590   8.1497260  85.0549560  24.6714160   8.8958600
  84.4984490  26.0197160   8.4905600  77.5519920  19.8899280   4.2790730
  77.2666840  19.5254950   5.1169350  77.4898780  19.1579740   3.6653870
  82.4778800  24.1864230  10.4681470  82.1735870  25.0656210  10.6931830
  83.4325260  24.2464020  10.5038910  91.7648570  27.3890580   6.8574710
  92.4847690  27.8845870   6.4670820  91.5630390  26.7108470   6.2128580
  87.1467370  27.4599640  12.7443710  87.0804680  26.5395310  12.4901300
  86.5172510  27.5575080  13.4588350  81.0497990  28.0605600   4.7027130
  81.5676660  27.2573860   4.6484020  80.5982010  27.9984740   5.5443960
  78.5342530  25.0266970  11.6152830  78.1757470  25.6920820  12.2026170
  78.2397090  24.1950520  11.9865450  81.7355650  25.4851210  14.4992380
  81.4355790  25.6308390  13.6020200  82.5066890  24.9256500  14.4065770
  87.0784100  30.2820210  12.4947510  87.0928640  29.3501170  12.2766420
  86.3709200  30.3679970  13.1337280  93.2895310  26.9227550  11.8416090
  92.5643500  27.5156330  11.6445480  93.8170770  26.9151090  11.0429460
  88.8194900  28.6487720   5.3399940  89.1718720  28.0515850   4.6801310
  87.9357230  28.3231950   5.5108190  84.9058180  29.4085410   2.7470350
  85.5929310  29.9554620   3.1277940  84.1190600  29.9526140   2.7819960
  84.2085390  26.4131440   2.3595710  84.6648170  27.2236690   2.5855900
  83.8573600  26.0954580   3.1914200  86.5118000  31.9237780   9.5888010
  87.1560220  32.1297160  10.2661430  86.8747440  31.1626180   9.1358860
  80.1097170  16.7569090   2.8318230  79.9811800  16.7486990   3.7803150
  79.2859190  17.0952180   2.4809240  87.7850080  29.9270130   8.3065460
  88.4272310  29.2263290   8.4197630  88.3099430  30.7068570   8.1262350
  89.5587700  30.7265030  11.5101520  89.8943940  31.3131720  12.1879440
  88.6388040  30.5957740  11.7399310  77.1091100  18.5160210  12.2924930
  76.3949620  18.7157130  12.8977540  77.5286140  17.7399780  12.6639730
  77.3963690  32.5040470  13.2791460  77.5054810  31.5635210  13.1386850
  76.7444250  32.7695220  12.6305190  85.3876280  30.7756360  14.6789580
  85.0673150  30.0565600  15.2235270  84.7134640  31.4511430  14.7525640
  88.6029880  21.0082520  10.0426380  88.9710700  20.1877730  10.3705950
  87.7428080  21.0684410  10.4582030  83.9375940  22.2425410   2.2671820
  83.2292090  22.7111750   2.7085430  84.2220420  21.5847420   2.9017010
  85.5631870  23.6622110  10.2664350  86.0617120  24.1367930  10.9316200
  85.7054820  22.7385630  10.4734380  87.9691370  18.9676070   3.7067610
  87.8459150  18.9862200   2.7577120  88.9175930  19.0155010   3.8266010
  85.0568160  34.2031370   2.9795590  85.3109660  34.1652760   2.0574960
  84.1080640  34.0764700   2.9723840  92.7698730  19.8790070  11.1092740
  92.2672330  20.6195470  11.4486550  93.5855390  20.2674070  10.7929530
  91.0620740  25.1223250   4.5554100  90.1210880  25.1373480   4.7301790
  91.3764810  24.3359210   5.0014400  93.0646320  32.2932100   6.2308360
  93.1893740  33.1163270   6.7032170  93.9311880  32.0822830   5.8832510
  80.5363850  34.3863310   5.9025490  81.2726330  33.8378770   6.1734060
  80.9204770  35.2519320   5.7631480  77.4209330  30.4536880   1.7767000
  76.4949110  30.6958020   1.7672410  77.8865760  31.2811140   1.6551750
  79.5422130  33.5709380  15.0911070  80.3434860  33.8921430  15.5046470
  79.0273950  33.2104960  15.8130980  88.3786760  29.6789250  15.0386480
  87.7724920  29.7020850  14.2982230  88.0740870  28.9472290  15.5753730
  89.8087130  33.4069540  13.6495890  90.7608880  33.3227560  13.5996130
  89.6615350  34.0711250  14.3229680  77.2619940  26.0582840  14.0347120
  77.7658960  25.4790120  14.6063350  76.5227360  26.3423070  14.5723490
  84.3157880  27.4653830  13.5682640  83.5503550  28.0338830  13.4837310
  84.4973840  27.1730040  12.6750870  91.4581230  29.1959160  14.1257660
  92.1990700  29.5334920  13.6225120  90.6953910  29.3651220  13.5727430
  79.2943020  24.2012430  14.9297190  79.3348360  23.9026300  15.8382420
  80.1488520  24.6020040  14.7704710  81.2348830  22.7804530  12.8971680
  80.7045290  22.2895480  12.2695020  81.9036900  23.2088730  12.3629610
  90.1326890  27.2473990  12.6612870  90.5467910  27.4019070  13.5103290
  89.1977890  27.3729210  12.8238650  90.6049060  24.5870150  14.6652020
  91.1869830  23.8322470  14.5772500  90.7810830  25.1177590  13.8883500
  81.7221130  19.7466900  12.9768970  81.6278000  19.1287650  12.2519840
  81.1418520  20.4733190  12.7498880  84.4882570  18.3040140  10.0096360
  84.0399870  18.3264400   9.1641910  83.8547770  17.9059160  10.6066660
  84.8942120  27.1994470  10.6308800  85.3130230  28.0427200  10.4585040
  83.9750750  27.3366510  10.4015580  87.2306020  24.9310650  12.0146640
  87.3502230  24.3351790  12.7541480  88.0900020  24.9680340  11.5947940
  89.5693920  25.4847840  10.5909150  89.0429140  26.0090460   9.9874290
  89.9125260  26.1175230  11.2218880  82.7449540  33.5047480  11.7466530
  82.2070630  34.2293540  11.4275230  82.9983500  33.0277820  10.9563870
  83.9974790  21.4732000  13.2722460  84.5874480  21.1647850  13.9600280
  83.1795030  21.0011750  13.4282360  88.8168220  21.0897810  13.5055480
  88.1283740  20.4279350  13.4405470  89.5374240  20.6436080  13.9503940
  85.6011750  34.7398690  12.0053180  85.5270450  35.6433830  12.3125550
  84.6990590  34.4210590  11.9775250  77.0039040  32.0673280   5.3086800
  77.3342050  31.1994340   5.0765440  77.4330040  32.2731800   6.1391760
  81.6000960  30.3982290   2.9688770  81.2996500  30.2747260   3.8692680
  81.4938450  29.5390880   2.5604500  77.4929250  32.9343870   8.0468430
  77.0560240  33.1144670   8.8792580  78.0606930  33.6918490   7.9050150
  93.1291430  32.4360870  12.3345740  92.5293420  32.4953430  11.5909660
  93.2585330  31.4965850  12.4642590  77.3253680  25.4464100   4.4057310
  76.6702520  25.1775740   3.7617010  78.1631630  25.3368580   3.9559290
  94.8309310  27.7776270   5.0191580  95.2018140  26.9943590   4.6127550
  95.4711240  28.4665370   4.8408880  91.8143070  29.1612850  10.4321900
  91.0002910  29.5910010  10.6947690  92.2217270  29.7731260   9.8190950
  93.7733850  25.1529530   2.3251600  93.3977450  24.3857460   1.8932890
  93.0436970  25.5352230   2.8126530  78.3629610  25.8316670   8.9460650
  78.7302650  25.7444070   9.8256670  77.7940430  25.0683220   8.8467510
  93.1633470  24.3001050  11.9591120  92.9319560  24.0713800  11.0589070
  93.4238020  25.2200600  11.9136010  77.9145610  22.7425760  12.8519070
  77.0201660  22.7092520  13.1912780  78.4543160  22.9412550  13.6170320
  91.6021540  19.5257480  14.7370820  92.4791720  19.5340880  15.1204820
  91.6142380  18.7888320  14.1263170  93.0484810  23.3787020   5.6258840
  93.5722290  22.8849670   4.9949010  93.6344230  23.5137380   6.3706410
  93.2274530  23.4626890   9.1478390  92.2777240  23.4290430   9.2623380
  93.4087540  24.3727000   8.9128160  78.4185320  17.0174090   7.2002290
  79.0661510  16.4671470   6.7597450  78.8387160  17.2717240   8.0218100
  93.9671940  21.2721320   4.0988930  93.8571220  21.1177360   5.0371200
  94.7279530  20.7442260   3.8564340  92.3137660  17.2115450  10.5571930
  92.9509880  17.8249590  10.9231120  92.4612550  17.2476110   9.6121160
  91.8719120  33.9131450   3.9590170  92.4678190  33.5916020   3.2824590
  92.1297270  33.4403270   4.7503440  78.1717320  17.1729760   9.9427610
  77.8232140  17.6293580  10.7085790  77.8405020  16.2786890  10.0250040
  79.7781690  30.3449360  14.1080800  79.7351320  29.9742270  14.9895260
  79.9092700  31.2826930  14.2482620  83.4787720  31.9008950   9.7090520
  83.2379080  32.1683510   8.8221040  84.4190360  32.0714680   9.7641380
  85.6842140  18.3641640  13.4647030  85.6231030  18.9563470  14.2142440
  86.6242520  18.2567600  13.3197290  88.3216700  18.0211700  13.1039320
  88.9357110  18.3390990  12.4420400  88.8666260  17.5360290  13.7235180
  94.7391880  33.9203330  10.5101160  94.2450160  34.3172200   9.7928290
  94.1305170  33.2952540  10.9038440  78.8437960  16.7005960  13.2178380
  79.3920950  16.5194010  12.4544490  78.9093270  15.9100070  13.7534690
  79.6169720  33.2911610  11.2278580  79.0230040  33.1596310  11.9668620
  79.6093560  32.4549750  10.7620680  89.0624740  16.5843840   9.4308610
  88.1884580  16.9178950   9.2281540  88.9535490  16.1117020  10.2560480
  89.9696720  18.7914710  10.8150330  89.6410080  17.9766470  10.4352060
  90.9179020  18.7484520  10.6916020  92.4231330  34.5626750   7.7887900
  91.9634300  35.3142560   7.4145920  91.7943790  33.8433220   7.7302700
  79.2481950  30.6569990  10.1786620  78.5216010  30.0375280  10.1112570
  79.3091100  31.0510600   9.3084700  82.8527050  32.8714990   6.9636030
  83.3692070  32.2602350   6.4384290  83.5024430  33.3743770   7.4547040
  85.5922550  33.7623480   7.7905010  85.8800360  33.5077780   6.9138020
  86.1045770  33.2100840   8.3810580  86.8099560  17.5013680   8.3701520
  86.0271350  17.9759180   8.6498280  86.5162490  16.5968510   8.2614700
  91.3620630  18.2036780   6.4150610  91.8028720  18.1481880   5.5672210
  91.0928220  19.1194790   6.4860790  93.2259200  17.8352020   4.4259430
  93.1647600  16.8913240   4.2790450  94.0051230  17.9432110   4.9712890
  77.5311950  33.9744380   3.3883380  77.3633990  33.3415060   4.0865270
  76.6646460  34.1803780   3.0377570  84.6953780  19.9200430   3.8817550
  83.8828290  19.5457320   3.5413430  85.1995420  19.1645510   4.1838740
  89.1978760  16.5842880   5.1200620  89.8008130  17.1563090   5.5949140
  88.4571750  17.1482320   4.8974520  82.7202960  18.0700350   2.4862600
  82.0905700  17.3687660   2.6532730  82.1808100  18.8304480   2.2695760
  85.6594910  34.6839580  15.1573210  86.5862220  34.4483850  15.2009170
  85.6445340  35.5111580  14.6759240  82.8458520  17.3484330  14.9215090
  82.5642790  17.8517930  14.1575910  83.2278220  16.5506080  14.5557220
  89.4473980  16.7637910  15.4995560  89.3339430  17.0832520  16.3947080
  90.2643720  17.1650420  15.2032840  92.2272470  33.9109440  14.9814250
  93.0197790  33.4158670  14.7740210  92.5205620  34.5899580  15.5889860
  88.3532130   6.0086890  79.7347750  88.2726180   5.0941500  79.4639460
  87.9396550   6.5053960  79.0287460  86.4850170   7.7865910  81.6157020
  85.7092270   7.3066350  81.9055590  87.1363100   7.1071560  81.4413180
  80.5016000   8.0985720  82.4932780  79.6700880   7.8434430  82.8929290
  81.1096980   8.1696490  83.2290700  90.5057600  12.1926100  80.3956150
  90.0439130  11.4213340  80.7243320  91.3183150  12.2192170  80.9008600
  80.4817260  12.1325810  82.6890800  80.7845300  11.2423550  82.5101020
  81.2260850  12.6896030  82.4613050  78.9107950   3.0587610  76.2775170
  78.0224650   3.4003580  76.1755050  79.1949140   2.8587930  75.3856000
  76.8740960   5.6593260  82.1614870  77.4457070   4.8915460  82.1618510
  76.8742500   5.9582020  81.2521480  86.7320910  14.4784110  80.0160140
  86.1132350  14.9341610  79.4454580  87.5872690  14.6335570  79.6149840
  85.9259160  10.4623100  81.6227180  85.8567440   9.5213040  81.4616310
  86.6879020  10.5524510  82.1949750  86.9564330   3.2693480  81.8496110
  87.3329150   2.3965360  81.7369780  86.8583840   3.6052180  80.9586550
  78.7352500   3.5638120  82.5566140  79.4162610   3.8276490  83.1753540
  78.4200550   2.7238990  82.8904150  82.9277070   4.6105480  81.6438730
  83.4355290   5.1086450  82.2843750  83.4590310   3.8340680  81.4678090
  95.0288000   2.7810670  85.3468080  94.3240170   3.1692380  84.8283190
  95.2945920   3.4760960  85.9489010  87.5984260   9.3623350  77.4092050
  86.9801530   9.8272800  76.8454770  88.1107510  10.0550830  77.8261560
  82.4616020   8.8899220  84.0875650  82.1285400   9.5168140  84.7296720
  82.6382700   9.4161100  83.3077320  90.9749930   2.7044300  81.5551990
  90.2705500   2.9929190  82.1355100  91.3362090   3.5144410  81.1951550
  81.6735120  10.8580020  85.9024830  82.2909120  11.5331100  85.6209280
  80.8128240  11.2668000  85.8112330  76.9667460  10.0479880  74.7831680
  76.5895440  10.5366980  74.0516580  77.2240530  10.7205160  75.4138210
  92.5912710  12.3219430  83.8179470  91.9076230  12.9918540  83.8096140
  93.1307000  12.5200080  83.0524330  94.0436850   2.1499090  81.9461200
  93.0961760   2.1838070  82.0776630  94.3686840   2.9638040  82.3310560
  90.1271450  14.1663560  82.5324650  90.1398610  13.7625850  81.6646910
  89.5746670  14.9410850  82.4286080  91.4216870  10.8879780  77.6214820
  91.3113200   9.9454110  77.7464240  91.4185120  11.2495420  78.5077580
  89.5256890   9.0693400  83.8607260  89.9425680   8.8553510  83.0260720
  90.2496710   9.3266190  84.4315880  86.9637150   6.5145100  76.9777310
  86.0366430   6.4482480  77.2065780  87.1161970   7.4525230  76.8632550
  86.9506230   2.7862100  73.9744470  86.0109900   2.9476060  74.0596930
  87.2689490   3.5047780  73.4280460  93.4718990   7.4680620  83.9523500
  92.6437620   7.5373710  83.4773630  94.0669470   8.0534930  83.4839330
  90.9934440   8.0765400  77.4812560  90.3746860   7.7384950  76.8338860
  90.9758890   7.4325160  78.1891750  90.4361000   4.2549940  84.8978370
  90.0232180   5.0803650  85.1518360  89.7036950   3.6694980  84.7054730
  82.5693790   7.0409840  79.7597040  82.1650790   6.3287090  79.2642940
  82.6556910   6.6963080  80.6485080  83.0375490  10.7277400  81.9236250
  82.7403780  10.1222870  81.2444030  83.9875310  10.7654710  81.8125610
  81.2822410   3.8153050  83.5396080  81.8337000   3.9248390  82.7649330
  81.7965920   4.1890650  84.2551310  91.1261100  14.3009270  85.5859350
  90.6491660  15.1081460  85.3931960  90.4422890  13.6487600  85.7385560
  89.1699140   7.3152210  74.4885310  89.6092420   6.4774640  74.3423130
  89.8827560   7.9481610  74.5749450  87.2794520  12.2548280  78.4566550
  87.7190430  12.9972610  78.0421940  87.2181410  12.4974850  79.3805510
  79.2698420   5.9354820  77.2603690  79.1496020   6.6616910  76.6484960
  78.9599310   5.1657730  76.7831600  76.9083790   9.1069960  83.0672330
  76.9864210   9.2418730  82.1228050  77.5225470   8.3985850  83.2600450
  78.1531420  10.8070150  79.4778510  77.7459500  10.9484740  78.6232110
  79.0444430  10.5230310  79.2749720  89.9464700  15.2417400  75.8129560
  89.7865840  14.9520340  76.7111390  89.7811410  14.4657530  75.2774790
  82.4253080  15.0215930  77.5901180  82.2495560  14.1051470  77.3768980
  81.5708820  15.3803220  77.8298980  89.6490830  12.7504960  74.3727560
  88.9555990  12.7482250  73.7129840  90.3913690  12.3264280  73.9421730
  89.2140760  14.3767670  78.4476050  89.6697710  13.5957050  78.7614670
  89.5533280  15.0874490  78.9917230  81.5276300   4.4023460  78.3708610
  81.3017220   4.1860630  79.2755230  80.7468830   4.8351920  78.0254580
  88.7574060   4.4086830  76.9699260  88.1582950   5.1322630  76.7862880
  89.3053670   4.3463610  76.1875710  87.3638930   3.0450370  79.0002540
  87.7568500   3.3622570  78.1871230  87.7255780   2.1662250  79.1147060
  76.5873330   3.5771290  72.4335460  76.5048000   4.5202050  72.5750450
  76.2356390   3.4346200  71.5547810  87.9494070   5.6356120  83.0953320
  87.2175190   6.1442930  83.4443420  87.5518410   4.8186100  82.7942100
  84.3871460   2.3110320  81.5005810  84.3907520   1.8700270  80.6510350
  85.2822580   2.6327650  81.6077630  80.2373840   2.1936810  80.4600020
  79.8973890   2.6712040  81.2167070  79.4751160   1.7401930  80.1001120
  84.4491610   3.3122400  74.4912570  84.5704430   3.2708880  75.4398390
  84.0640120   4.1746550  74.3359300  83.4613110   5.6223540  73.8895870
  82.8930010   5.1741790  73.2631780  84.1702110   5.9816320  73.3561020
  84.6879430   6.3712100  83.2471220  85.0549560   5.8970670  83.9932560
  84.4984490   7.2453670  83.5879560  82.4778800   5.4120740  85.5655430
  82.1735870   6.2912720  85.7905790  83.4325260   5.4720530  85.6012870
  81.0060590   9.6181730  76.1622280  80.2322850   9.0779350  76.0021000
  81.7355220   9.0988340  75.8240040  91.7648570   8.6147090  81.9548670
  92.4847690   9.1102380  81.5644780  91.5630390   7.9364980  81.3102540
  89.9406900   4.3804700  74.3940220  90.8286520   4.6921930  74.2191560
  89.9111990   3.5076950  74.0020800  81.0497990   9.2862110  79.8001090
  81.5676660   8.4830370  79.7457980  80.5982010   9.2241250  80.6417920
  85.9367490  10.5528390  75.0728390  86.2783190  11.2970620  74.5771710
  85.1080200  10.8659510  75.4353220  92.2121170   5.6916540  73.8620080
  92.1284890   6.1230760  73.0116520  92.9315360   6.1514890  74.2946900
  93.2408420  12.5458800  76.5902210  92.5984580  11.8914420  76.8645930
  92.8539080  12.9513890  75.8142880  88.8194900   9.8744230  80.4373900
  89.1718720   9.2772360  79.7775270  87.9357230   9.5488460  80.6082150
  84.9058180  10.6341920  77.8444310  85.5929310  11.1811130  78.2251900
  84.1190600  11.1782650  77.8793920  77.0450580   6.2514740  73.3361390
  77.9145430   6.5339540  73.6197310  76.5540900   7.0650610  73.2210200
  84.2085390   7.6387950  77.4569670  84.6648170   8.4493200  77.6829860
  83.8573600   7.3211090  78.2888160  86.5118000  13.1494290  84.6861970
  87.1560220  13.3553670  85.3635390  86.8747440  12.3882690  84.2332820
  87.7850080  11.1526640  83.4039420  88.4272310  10.4519800  83.5171590
  88.3099430  11.9325080  83.2236310  91.6305800  11.4375260  73.1278560
  91.4043380  10.7205700  73.7203200  91.2402000  11.1887700  72.2900310
  77.4121830  15.4642120  73.9023020  77.7719470  16.0631460  73.2480290
  77.2714170  16.0102010  74.6758050  91.2122050   9.3547200  74.7892720
  90.9243750   9.8159890  75.5770600  92.0074220   8.8944970  75.0576940
  83.4290450  12.8473320  74.7196690  83.4200550  13.5803010  74.1041200
  82.5088810  12.6004900  74.8123650  79.0297090   8.0688210  75.4643450
  78.4225040   8.8087110  75.4738750  79.5046440   8.1587570  74.6381650
  86.4150050  12.9101560  73.3821880  86.5162030  12.7065550  72.4523860
  85.5151790  12.6559840  73.5869660  83.9375940   3.4681920  77.3645780
  83.2292090   3.9368260  77.8059390  84.2220420   2.8103930  77.9990970
  85.0568160  15.4287880  78.0769550  85.3109660  15.3909270  77.1548920
  84.1080640  15.3021210  78.0697800  82.1410960   1.7767000  74.7396490
  82.9901490   2.2137150  74.6736680  81.7742230   2.0887260  75.5668550
  91.0620740   6.3479760  79.6528060  90.1210880   6.3629990  79.8275750
  91.3764810   5.5615720  80.0988360  81.0402380   8.0299360  73.2132020
  81.8065650   7.9180720  73.7757450  81.1177070   7.3337330  72.5608790
  79.7349140   5.4624430  73.8964910  79.8152730   4.5151940  74.0082310
  80.6268890   5.7931310  74.0025570  93.0646320  13.5188610  81.3282320
  93.1893740  14.3419780  81.8006130  93.9311880  13.3079340  80.9806470
  80.5363850  15.6119820  80.9999450  81.2726330  15.0635280  81.2708020
  80.9204770  16.4775830  80.8605440  77.4209330  11.6793390  76.8740960
  76.4949110  11.9214530  76.8646370  77.8865760  12.5067650  76.7525710
  83.6466160  14.7850130  72.8225020  84.4394770  15.0738960  72.3706810
  83.1270510  14.3542300  72.1437500  92.6996330  14.0120260  74.2461760
  92.4137840  13.5985400  73.4315940  92.5015880  14.9407970  74.1262280
  84.1643560  10.0053540  72.6867370  84.0594200   9.3905890  73.4128750
  83.9967780   9.4819430  71.9030380  87.4046290   9.0673570  73.2909360
  86.8556390   9.5142870  73.9352100  88.0265550   8.5622820  73.8147030
  83.0721410   8.0264490  75.1874660  83.4937830   7.8604360  76.0306050
  83.1972250   7.2164720  74.6929800  85.5849050   7.0502100  72.4351760
  86.1054710   6.3351120  72.0692910  86.2317450   7.6887970  72.7352270
  84.8942120   8.4250980  85.7282760  85.3130230   9.2683710  85.5559000
  83.9750750   8.5623020  85.4989540  81.9680310   4.0997720  72.1332820
  81.7669370   3.2365080  72.4946160  81.7972360   4.0131080  71.1954420
  86.1497080  15.1313710  74.7253500  87.0447870  15.4698680  74.7472260
  86.1814710  14.4093120  74.0977780  79.7893240  10.5040760  72.9540500
  80.2268110  11.0470430  73.6098080  80.2740970   9.6787710  72.9636840
  77.0039040  13.2929790  80.4060760  77.3342050  12.4250850  80.1739400
  77.4330040  13.4988310  81.2365720  81.6000960  11.6238800  78.0662730
  81.2996500  11.5003770  78.9666640  81.4938450  10.7647390  77.6578460
  77.4929250  14.1600380  83.1442390  77.0560240  14.3401180  83.9766540
  78.0606930  14.9175000  83.0024110  94.3692880  11.4035200  72.7689410
  93.5385840  11.4711850  73.2396640  94.5464710  12.2939320  72.4656270
  93.8249340   8.1482680  75.2723610  94.5868250   8.7179330  75.3783300
  93.8403710   7.5809880  76.0431920  77.3253680   6.6720610  79.5031270
  76.6702520   6.4032250  78.8590970  78.1631630   6.5625090  79.0533250
  94.8309310   9.0032780  80.1165540  95.2018140   8.2200100  79.7101510
  95.4711240   9.6921880  79.9382840  91.8143070  10.3869360  85.5295860
  91.0002910  10.8166520  85.7921650  92.2217270  10.9987770  84.9164910
  93.8768510   8.4417050  72.4296130  94.1517350   9.3495930  72.3015350
  93.6879250   8.3779580  73.3658120  93.7733850   6.3786040  77.4225560
  93.3977450   5.6113970  76.9906850  93.0436970   6.7608740  77.9100490
  78.3629610   7.0573180  84.0434610  78.7302650   6.9700580  84.9230630
  77.7940430   6.2939730  83.9441470  76.5391760   3.8819540  75.4456600
  75.6355840   4.1449740  75.2708260  77.0232380   4.1530710  74.6656560
  93.0484810   4.6043530  80.7232800  93.5722290   4.1106180  80.0922970
  93.6344230   4.7393890  81.4680370  93.2274530   4.6883400  84.2452350
  92.2777240   4.6546940  84.3597340  93.4087540   5.5983510  84.0102120
  79.0818970   2.9385080  73.3550980  79.7910670   2.5168300  72.8698260
  78.3658910   3.0060310  72.7234330  92.5384780   3.8616880  76.6625210
  93.0343900   3.6287750  77.4474090  92.3400850   3.0228720  76.2462850
  93.9671940   2.4977830  79.1962890  93.8571220   2.3433870  80.1345160
  94.7279530   1.9698770  78.9538300  91.8719120  15.1387960  79.0564130
  92.4678190  14.8172530  78.3798550  92.1297270  14.6659780  79.8477400
  83.4787720  13.1265460  84.8064480  83.2379080  13.3940020  83.9195000
  84.4190360  13.2971190  84.8615340  92.4231330  15.7883260  82.8861860
  91.9634300  16.5399070  82.5119880  91.7943790  15.0689730  82.8276660
  79.2481950  11.8826500  85.2760580  78.5216010  11.2631790  85.2086530
  79.3091100  12.2767110  84.4058660  82.8527050  14.0971500  82.0609990
  83.3692070  13.4858860  81.5358250  83.5024430  14.6000280  82.5521000
  85.5922550  14.9879990  82.8878970  85.8800360  14.7334290  82.0111980
  86.1045770  14.4357350  83.4784540  77.5311950  15.2000890  78.4857340
  77.3633990  14.5671570  79.1839230  76.6646460  15.4060290  78.1351530
  79.1374650  13.8934120  75.9307480  78.6122270  14.2742150  75.2269440
  79.0619230  14.5184890  76.6517190  93.8939970  15.4521660  77.2521420
  94.0692160  14.7659400  76.6082340  93.1961540  15.9768710  76.8598090
  81.7367620  15.8416500  74.8056730  82.4686440  15.5575780  74.2580620
  81.9961290  15.6029780  75.6956110  80.8982410  11.9581230  74.8103060
  80.2691290  12.4266330  75.3588890  81.0130240  11.1130450  75.2449250
  88.3532130   6.0086890  60.9604260  88.2726180   5.0941500  60.6895970
  87.9396550   6.5053960  60.2543970  86.4850170   7.7865910  62.8413530
  85.7092270   7.3066350  63.1312100  87.1363100   7.1071560  62.6669690
  80.5016000   8.0985720  63.7189290  79.6700880   7.8434430  64.1185800
  81.1096980   8.1696490  64.4547210  90.5057600  12.1926100  61.6212660
  90.0439130  11.4213340  61.9499830  91.3183150  12.2192170  62.1265110
  80.4817260  12.1325810  63.9147310  80.7845300  11.2423550  63.7357530
  81.2260850  12.6896030  63.6869560  78.9107950   3.0587610  57.5031680
  78.0224650   3.4003580  57.4011560  79.1949140   2.8587930  56.6112510
  76.8740960   5.6593260  63.3871380  77.4457070   4.8915460  63.3875020
  76.8742500   5.9582020  62.4777990  86.7320910  14.4784110  61.2416650
  86.1132350  14.9341610  60.6711090  87.5872690  14.6335570  60.8406350
  85.9259160  10.4623100  62.8483690  85.8567440   9.5213040  62.6872820
  86.6879020  10.5524510  63.4206260  86.9564330   3.2693480  63.0752620
  87.3329150   2.3965360  62.9626290  86.8583840   3.6052180  62.1843060
  78.7352500   3.5638120  63.7822650  79.4162610   3.8276490  64.4010050
  78.4200550   2.7238990  64.1160660  82.9277070   4.6105480  62.8695240
  83.4355290   5.1086450  63.5100260  83.4590310   3.8340680  62.6934600
  95.0288000   2.7810670  66.5724590  94.3240170   3.1692380  66.0539700
  95.2945920   3.4760960  67.1745520  87.5984260   9.3623350  58.6348560
  86.9801530   9.8272800  58.0711280  88.1107510  10.0550830  59.0518070
  82.4616020   8.8899220  65.3132160  82.1285400   9.5168140  65.9553230
  82.6382700   9.4161100  64.5333830  90.9749930   2.7044300  62.7808500
  90.2705500   2.9929190  63.3611610  91.3362090   3.5144410  62.4208060
  81.6735120  10.8580020  67.1281340  82.2909120  11.5331100  66.8465790
  80.8128240  11.2668000  67.0368840  76.9667460  10.0479880  56.0088190
  76.5895440  10.5366980  55.2773090  77.2240530  10.7205160  56.6394720
  92.5912710  12.3219430  65.0435980  91.9076230  12.9918540  65.0352650
  93.1307000  12.5200080  64.2780840  94.0436850   2.1499090  63.1717710
  93.0961760   2.1838070  63.3033140  94.3686840   2.9638040  63.5567070
  90.1271450  14.1663560  63.7581160  90.1398610  13.7625850  62.8903420
  89.5746670  14.9410850  63.6542590  91.4216870  10.8879780  58.8471330
  91.3113200   9.9454110  58.9720750  91.4185120  11.2495420  59.7334090
  89.5256890   9.0693400  65.0863770  89.9425680   8.8553510  64.2517230
  90.2496710   9.3266190  65.6572390  86.9637150   6.5145100  58.2033820
  86.0366430   6.4482480  58.4322290  87.1161970   7.4525230  58.0889060
  86.9506230   2.7862100  55.2000980  86.0109900   2.9476060  55.2853440
  87.2689490   3.5047780  54.6536970  93.4718990   7.4680620  65.1780010
  92.6437620   7.5373710  64.7030140  94.0669470   8.0534930  64.7095840
  90.9934440   8.0765400  58.7069070  90.3746860   7.7384950  58.0595370
  90.9758890   7.4325160  59.4148260  90.4361000   4.2549940  66.1234880
  90.0232180   5.0803650  66.3774870  89.7036950   3.6694980  65.9311240
  82.5693790   7.0409840  60.9853550  82.1650790   6.3287090  60.4899450
  82.6556910   6.6963080  61.8741590  83.0375490  10.7277400  63.1492760
  82.7403780  10.1222870  62.4700540  83.9875310  10.7654710  63.0382120
  81.2822410   3.8153050  64.7652590  81.8337000   3.9248390  63.9905840
  81.7965920   4.1890650  65.4807820  91.1261100  14.3009270  66.8115860
  90.6491660  15.1081460  66.6188470  90.4422890  13.6487600  66.9642070
  82.1293920  10.4659090  69.8000560  81.2322450  10.6899060  70.0473960
  82.1546790  10.5894030  68.8511960  89.1699140   7.3152210  55.7141820
  89.6092420   6.4774640  55.5679640  89.8827560   7.9481610  55.8005960
  80.9565140   7.3372410  68.3757930  80.8172910   8.2095210  68.7445330
  80.0746500   6.9945220  68.2305870  87.2794520  12.2548280  59.6823060
  87.7190430  12.9972610  59.2678450  87.2181410  12.4974850  60.6062020
  82.7545490  13.2794110  70.5843080  82.7260920  13.6837060  69.7171510
  82.5910460  12.3504470  70.4214680  79.2698420   5.9354820  58.4860200
  79.1496020   6.6616910  57.8741470  78.9599310   5.1657730  58.0088110
  94.7060310  14.0621210  71.8807250  95.1820030  14.5404100  72.5596330
  95.3267470  13.9938700  71.1552750  76.9083790   9.1069960  64.2928840
  76.9864210   9.2418730  63.3484560  77.5225470   8.3985850  64.4856960
  78.1531420  10.8070150  60.7035020  77.7459500  10.9484740  59.8488620
  79.0444430  10.5230310  60.5006230  94.1093560  11.2534060  69.0407260
  94.2356620  11.0145940  68.1224440  94.1514940  10.4218600  69.5129340
  87.9710300  14.9562060  67.6102070  88.4854970  14.8670070  68.4124500
  87.1279380  15.3021760  67.9029980  89.9464700  15.2417400  57.0386070
  89.7865840  14.9520340  57.9367900  89.7811410  14.4657530  56.5031300
  82.4253080  15.0215930  58.8157690  82.2495560  14.1051470  58.6025490
  81.5708820  15.3803220  59.0555490  89.6490830  12.7504960  55.5984070
  88.9555990  12.7482250  54.9386350  90.3913690  12.3264280  55.1678240
  89.2140760  14.3767670  59.6732560  89.6697710  13.5957050  59.9871180
  89.5533280  15.0874490  60.2173740  93.9617570   3.3066520  70.0057000
  93.3461840   3.8146190  69.4772460  93.6413990   2.4064850  69.9482940
  76.9643310  10.1484130  66.8323300  77.1274350   9.6789490  66.0142670
  77.4295760   9.6407690  67.4972140  91.0236400   3.3667360  68.6015850
  90.1729990   3.0673110  68.9224920  90.8638190   3.6109370  67.6899670
  88.1186110   4.8669110  70.7014640  88.4439520   4.0332860  70.3616870
  88.9066440   5.3897630  70.8492970  81.5276300   4.4023460  59.5965120
  81.3017220   4.1860630  60.5011740  80.7468830   4.8351920  59.2511090
  88.7574060   4.4086830  58.1955770  88.1582950   5.1322630  58.0119390
  89.3053670   4.3463610  57.4132220  83.9675510   5.3009040  70.2625390
  83.8719110   4.3603770  70.1125790  84.8107490   5.5224110  69.8673460
  87.3638930   3.0450370  60.2259050  87.7568500   3.3622570  59.4127740
  87.7255780   2.1662250  60.3403570  76.5873330   3.5771290  53.6591970
  76.5048000   4.5202050  53.8006960  76.2356390   3.4346200  52.7804320
  87.9494070   5.6356120  64.3209830  87.2175190   6.1442930  64.6699930
  87.5518410   4.8186100  64.0198610  84.3871460   2.3110320  62.7262320
  84.3907520   1.8700270  61.8766860  85.2822580   2.6327650  62.8334140
  80.2373840   2.1936810  61.6856530  79.8973890   2.6712040  62.4423580
  79.4751160   1.7401930  61.3257630  84.4491610   3.3122400  55.7169080
  84.5704430   3.2708880  56.6654900  84.0640120   4.1746550  55.5615810
  83.4613110   5.6223540  55.1152380  82.8930010   5.1741790  54.4888290
  84.1702110   5.9816320  54.5817530  78.5382290   9.5235560  68.9919110
  78.1537080   8.8829230  69.5902070  78.8494480  10.2271680  69.5613840
  84.6879430   6.3712100  64.4727730  85.0549560   5.8970670  65.2189070
  84.4984490   7.2453670  64.8136070  82.4778800   5.4120740  66.7911940
  82.1735870   6.2912720  67.0162300  83.4325260   5.4720530  66.8269380
  81.0060590   9.6181730  57.3878790  80.2322850   9.0779350  57.2277510
  81.7355220   9.0988340  57.0496550  91.7648570   8.6147090  63.1805180
  92.4847690   9.1102380  62.7901290  91.5630390   7.9364980  62.5359050
  87.1467370   8.6856150  69.0674180  87.0804680   7.7651820  68.8131770
  86.5172510   8.7831590  69.7818820  89.9406900   4.3804700  55.6196730
  90.8286520   4.6921930  55.4448070  89.9111990   3.5076950  55.2277310
  81.0497990   9.2862110  61.0257600  81.5676660   8.4830370  60.9714490
  80.5982010   9.2241250  61.8674430  85.9367490  10.5528390  56.2984900
  86.2783190  11.2970620  55.8028220  85.1080200  10.8659510  56.6609730
  78.5342530   6.2523480  67.9383300  78.1757470   6.9177330  68.5256640
  78.2397090   5.4207030  68.3095920  81.7355650   6.7107720  70.8222850
  81.4355790   6.8564900  69.9250670  82.5066890   6.1513010  70.7296240
  87.0784100  11.5076720  68.8177980  87.0928640  10.5757680  68.5996890
  86.3709200  11.5936480  69.4567750  92.2121170   5.6916540  55.0876590
  92.1284890   6.1230760  54.2373030  92.9315360   6.1514890  55.5203410
  93.2895310   8.1484060  68.1646560  92.5643500   8.7412840  67.9675950
  93.8170770   8.1407600  67.3659930  93.2408420  12.5458800  57.8158720
  92.5984580  11.8914420  58.0902440  92.8539080  12.9513890  57.0399390
  88.8194900   9.8744230  61.6630410  89.1718720   9.2772360  61.0031780
  87.9357230   9.5488460  61.8338660  84.9058180  10.6341920  59.0700820
  85.5929310  11.1811130  59.4508410  84.1190600  11.1782650  59.1050430
  77.0450580   6.2514740  54.5617900  77.9145430   6.5339540  54.8453820
  76.5540900   7.0650610  54.4466710  84.2085390   7.6387950  58.6826180
  84.6648170   8.4493200  58.9086370  83.8573600   7.3211090  59.5144670
  86.5118000  13.1494290  65.9118480  87.1560220  13.3553670  66.5891900
  86.8747440  12.3882690  65.4589330  87.7850080  11.1526640  64.6295930
  88.4272310  10.4519800  64.7428100  88.3099430  11.9325080  64.4492820
  91.6305800  11.4375260  54.3535070  91.4043380  10.7205700  54.9459710
  91.2402000  11.1887700  53.5156820  89.5587700  11.9521540  67.8331990
  89.8943940  12.5388230  68.5109910  88.6388040  11.8214250  68.0629780
  77.4121830  15.4642120  55.1279530  77.7719470  16.0631460  54.4736800
  77.2714170  16.0102010  55.9014560  91.2122050   9.3547200  56.0149230
  90.9243750   9.8159890  56.8027110  92.0074220   8.8944970  56.2833450
  77.3963690  13.7296980  69.6021930  77.5054810  12.7891720  69.4617320
  76.7444250  13.9951730  68.9535660  85.3876280  12.0012870  71.0020050
  85.0673150  11.2822110  71.5465740  84.7134640  12.6767940  71.0756110
  83.4290450  12.8473320  55.9453200  83.4200550  13.5803010  55.3297710
  82.5088810  12.6004900  56.0380160  79.0297090   8.0688210  56.6899960
  78.4225040   8.8087110  56.6995260  79.5046440   8.1587570  55.8638160
  86.4150050  12.9101560  54.6078390  86.5162030  12.7065550  53.6780370
  85.5151790  12.6559840  54.8126170  83.9375940   3.4681920  58.5902290
  83.2292090   3.9368260  59.0315900  84.2220420   2.8103930  59.2247480
  85.5631870   4.8878620  66.5894820  86.0617120   5.3624440  67.2546670
  85.7054820   3.9642140  66.7964850  85.0568160  15.4287880  59.3026060
  85.3109660  15.3909270  58.3805430  84.1080640  15.3021210  59.2954310
  82.1410960   1.7767000  55.9653000  82.9901490   2.2137150  55.8993190
  81.7742230   2.0887260  56.7925060  91.0620740   6.3479760  60.8784570
  90.1210880   6.3629990  61.0532260  91.3764810   5.5615720  61.3244870
  81.0402380   8.0299360  54.4388530  81.8065650   7.9180720  55.0013960
  81.1177070   7.3337330  53.7865300  79.7349140   5.4624430  55.1221420
  79.8152730   4.5151940  55.2338820  80.6268890   5.7931310  55.2282080
  93.0646320  13.5188610  62.5538830  93.1893740  14.3419780  63.0262640
  93.9311880  13.3079340  62.2062980  80.5363850  15.6119820  62.2255960
  81.2726330  15.0635280  62.4964530  80.9204770  16.4775830  62.0861950
  77.4209330  11.6793390  58.0997470  76.4949110  11.9214530  58.0902880
  77.8865760  12.5067650  57.9782220  79.5422130  14.7965890  71.4141540
  80.3434860  15.1177940  71.8276940  79.0273950  14.4361470  72.1361450
  83.6466160  14.7850130  54.0481530  84.4394770  15.0738960  53.5963320
  83.1270510  14.3542300  53.3694010  88.3786760  10.9045760  71.3616950
  87.7724920  10.9277360  70.6212700  88.0740870  10.1728800  71.8984200
  89.8087130  14.6326050  69.9726360  90.7608880  14.5484070  69.9226600
  89.6615350  15.2967760  70.6460150  92.6996330  14.0120260  55.4718270
  92.4137840  13.5985400  54.6572450  92.5015880  14.9407970  55.3518790
  77.2619940   7.2839350  70.3577590  77.7658960   6.7046630  70.9293820
  76.5227360   7.5679580  70.8953960  84.1643560  10.0053540  53.9123880
  84.0594200   9.3905890  54.6385260  83.9967780   9.4819430  53.1286890
  84.3157880   8.6910340  69.8913110  83.5503550   9.2595340  69.8067780
  84.4973840   8.3986550  68.9981340  87.4046290   9.0673570  54.5165870
  86.8556390   9.5142870  55.1608610  88.0265550   8.5622820  55.0403540
  91.4581230  10.4215670  70.4488130  92.1990700  10.7591430  69.9455590
  90.6953910  10.5907730  69.8957900  79.2943020   5.4268940  71.2527660
  79.3348360   5.1282810  72.1612890  80.1488520   5.8276550  71.0935180
  83.0721410   8.0264490  56.4131170  83.4937830   7.8604360  57.2562560
  83.1972250   7.2164720  55.9186310  81.2348830   4.0061040  69.2202150
  80.7045290   3.5151990  68.5925490  81.9036900   4.4345240  68.6860080
  85.5849050   7.0502100  53.6608270  86.1054710   6.3351120  53.2949420
  86.2317450   7.6887970  53.9608780  90.1326890   8.4730500  68.9843340
  90.5467910   8.6275580  69.8333760  89.1977890   8.5985720  69.1469120
  90.6049060   5.8126660  70.9882490  91.1869830   5.0578980  70.9002970
  90.7810830   6.3434100  70.2113970  84.8942120   8.4250980  66.9539270
  85.3130230   9.2683710  66.7815510  83.9750750   8.5623020  66.7246050
  87.2306020   6.1567160  68.3377110  87.3502230   5.5608300  69.0771950
  88.0900020   6.1936850  67.9178410  89.5693920   6.7104350  66.9139620
  89.0429140   7.2346970  66.3104760  89.9125260   7.3431740  67.5449350
  81.9680310   4.0997720  53.3589330  81.7669370   3.2365080  53.7202670
  81.7972360   4.0131080  52.4210930  82.7449540  14.7303990  68.0697000
  82.2070630  15.4550050  67.7505700  82.9983500  14.2534330  67.2794340
  83.9974790   2.6988510  69.5952930  84.5874480   2.3904360  70.2830750
  83.1795030   2.2268260  69.7512830  88.8168220   2.3154320  69.8285950
  88.1283740   1.6535860  69.7635940  89.5374240   1.8692590  70.2734410
  85.6011750  15.9655200  68.3283650  85.5270450  16.8690340  68.6356020
  84.6990590  15.6467100  68.3005720  86.1497080  15.1313710  55.9510010
  87.0447870  15.4698680  55.9728770  86.1814710  14.4093120  55.3234290
  79.7893240  10.5040760  54.1797010  80.2268110  11.0470430  54.8354590
  80.2740970   9.6787710  54.1893350  77.0039040  13.2929790  61.6317270
  77.3342050  12.4250850  61.3995910  77.4330040  13.4988310  62.4622230
  81.6000960  11.6238800  59.2919240  81.2996500  11.5003770  60.1923150
  81.4938450  10.7647390  58.8834970  77.4929250  14.1600380  64.3698900
  77.0560240  14.3401180  65.2023050  78.0606930  14.9175000  64.2280620
  93.1291430  13.6617380  68.6576210  92.5293420  13.7209940  67.9140130
  93.2585330  12.7222360  68.7873060  94.3692880  11.4035200  53.9945920
  93.5385840  11.4711850  54.4653150  94.5464710  12.2939320  53.6912780
  93.8249340   8.1482680  56.4980120  94.5868250   8.7179330  56.6039810
  93.8403710   7.5809880  57.2688430  77.3253680   6.6720610  60.7287780
  76.6702520   6.4032250  60.0847480  78.1631630   6.5625090  60.2789760
  94.8309310   9.0032780  61.3422050  95.2018140   8.2200100  60.9358020
  95.4711240   9.6921880  61.1639350  91.8143070  10.3869360  66.7552370
  91.0002910  10.8166520  67.0178160  92.2217270  10.9987770  66.1421420
  93.8768510   8.4417050  53.6552640  94.1517350   9.3495930  53.5271860
  93.6879250   8.3779580  54.5914630  93.7733850   6.3786040  58.6482070
  93.3977450   5.6113970  58.2163360  93.0436970   6.7608740  59.1357000
  78.3629610   7.0573180  65.2691120  78.7302650   6.9700580  66.1487140
  77.7940430   6.2939730  65.1697980  93.1633470   5.5257560  68.2821590
  92.9319560   5.2970310  67.3819540  93.4238020   6.4457110  68.2366480
  77.9145610   3.9682270  69.1749540  77.0201660   3.9349030  69.5143250
  78.4543160   4.1669060  69.9400790  76.5391760   3.8819540  56.6713110
  75.6355840   4.1449740  56.4964770  77.0232380   4.1530710  55.8913070
  93.0484810   4.6043530  61.9489310  93.5722290   4.1106180  61.3179480
  93.6344230   4.7393890  62.6936880  93.2274530   4.6883400  65.4708860
  92.2777240   4.6546940  65.5853850  93.4087540   5.5983510  65.2358630
  79.0818970   2.9385080  54.5807490  79.7910670   2.5168300  54.0954770
  78.3658910   3.0060310  53.9490840  92.5384780   3.8616880  57.8881720
  93.0343900   3.6287750  58.6730600  92.3400850   3.0228720  57.4719360
  93.9671940   2.4977830  60.4219400  93.8571220   2.3433870  61.3601670
  94.7279530   1.9698770  60.1794810  91.8719120  15.1387960  60.2820640
  92.4678190  14.8172530  59.6055060  92.1297270  14.6659780  61.0733910
  79.7781690  11.5705870  70.4311270  79.7351320  11.1998780  71.3125730
  79.9092700  12.5083440  70.5713090  83.4787720  13.1265460  66.0320990
  83.2379080  13.3940020  65.1451510  84.4190360  13.2971190  66.0871850
  94.7391880  15.1459840  66.8331630  94.2450160  15.5428710  66.1158760
  94.1305170  14.5209050  67.2268910  79.6169720  14.5168120  67.5509050
  79.0230040  14.3852820  68.2899090  79.6093560  13.6806260  67.0851150
  92.4231330  15.7883260  64.1118370  91.9634300  16.5399070  63.7376390
  91.7943790  15.0689730  64.0533170  79.2481950  11.8826500  66.5017090
  78.5216010  11.2631790  66.4343040  79.3091100  12.2767110  65.6315170
  82.8527050  14.0971500  63.2866500  83.3692070  13.4858860  62.7614760
  83.5024430  14.6000280  63.7777510  85.5922550  14.9879990  64.1135480
  85.8800360  14.7334290  63.2368490  86.1045770  14.4357350  64.7041050
  77.5311950  15.2000890  59.7113850  77.3633990  14.5671570  60.4095740
  76.6646460  15.4060290  59.3608040  79.1374650  13.8934120  57.1563990
  78.6122270  14.2742150  56.4525950  79.0619230  14.5184890  57.8773700
  85.6594910  15.9096090  71.4803680  86.5862220  15.6740360  71.5239640
  85.6445340  16.7368090  70.9989710  93.8939970  15.4521660  58.4777930
  94.0692160  14.7659400  57.8338850  93.1961540  15.9768710  58.0854600
  81.7367620  15.8416500  56.0313240  82.4686440  15.5575780  55.4837130
  81.9961290  15.6029780  56.9212620  80.8982410  11.9581230  56.0359570
  80.2691290  12.4266330  56.5845400  81.0130240  11.1130450  56.4705760
  92.2272470  15.1365950  71.3044720  93.0197790  14.6415180  71.0970680
  92.5205620  15.8156090  71.9120330  88.3532130   6.0086890  42.1860770
  88.2726180   5.0941500  41.9152480  87.9396550   6.5053960  41.4800480
  86.4850170   7.7865910  44.0670040  85.7092270   7.3066350  44.3568610
  87.1363100   7.1071560  43.8926200  80.5016000   8.0985720  44.9445800
  79.6700880   7.8434430  45.3442310  81.1096980   8.1696490  45.6803720
  90.5057600  12.1926100  42.8469170  90.0439130  11.4213340  43.1756340
  91.3183150  12.2192170  43.3521620  80.4817260  12.1325810  45.1403820
  80.7845300  11.2423550  44.9614040  81.2260850  12.6896030  44.9126070
  78.9107950   3.0587610  38.7288190  78.0224650   3.4003580  38.6268070
  79.1949140   2.8587930  37.8369020  76.8740960   5.6593260  44.6127890
  77.4457070   4.8915460  44.6131530  76.8742500   5.9582020  43.7034500
  86.7320910  14.4784110  42.4673160  86.1132350  14.9341610  41.8967600
  87.5872690  14.6335570  42.0662860  85.9259160  10.4623100  44.0740200
  85.8567440   9.5213040  43.9129330  86.6879020  10.5524510  44.6462770
  86.9564330   3.2693480  44.3009130  87.3329150   2.3965360  44.1882800
  86.8583840   3.6052180  43.4099570  78.7352500   3.5638120  45.0079160
  79.4162610   3.8276490  45.6266560  78.4200550   2.7238990  45.3417170
  82.9277070   4.6105480  44.0951750  83.4355290   5.1086450  44.7356770
  83.4590310   3.8340680  43.9191110  95.0288000   2.7810670  47.7981100
  94.3240170   3.1692380  47.2796210  95.2945920   3.4760960  48.4002030
  87.5984260   9.3623350  39.8605070  86.9801530   9.8272800  39.2967790
  88.1107510  10.0550830  40.2774580  82.4616020   8.8899220  46.5388670
  82.1285400   9.5168140  47.1809740  82.6382700   9.4161100  45.7590340
  90.9749930   2.7044300  44.0065010  90.2705500   2.9929190  44.5868120
  91.3362090   3.5144410  43.6464570  81.6735120  10.8580020  48.3537850
  82.2909120  11.5331100  48.0722300  80.8128240  11.2668000  48.2625350
  76.9667460  10.0479880  37.2344700  76.5895440  10.5366980  36.5029600
  77.2240530  10.7205160  37.8651230  92.5912710  12.3219430  46.2692490
  91.9076230  12.9918540  46.2609160  93.1307000  12.5200080  45.5037350
  94.0436850   2.1499090  44.3974220  93.0961760   2.1838070  44.5289650
  94.3686840   2.9638040  44.7823580  90.1271450  14.1663560  44.9837670
  90.1398610  13.7625850  44.1159930  89.5746670  14.9410850  44.8799100
  91.4216870  10.8879780  40.0727840  91.3113200   9.9454110  40.1977260
  91.4185120  11.2495420  40.9590600  89.5256890   9.0693400  46.3120280
  89.9425680   8.8553510  45.4773740  90.2496710   9.3266190  46.8828900
  86.9637150   6.5145100  39.4290330  86.0366430   6.4482480  39.6578800
  87.1161970   7.4525230  39.3145570  86.9506230   2.7862100  36.4257490
  86.0109900   2.9476060  36.5109950  87.2689490   3.5047780  35.8793480
  93.4718990   7.4680620  46.4036520  92.6437620   7.5373710  45.9286650
  94.0669470   8.0534930  45.9352350  90.9934440   8.0765400  39.9325580
  90.3746860   7.7384950  39.2851880  90.9758890   7.4325160  40.6404770
  90.4361000   4.2549940  47.3491390  90.0232180   5.0803650  47.6031380
  89.7036950   3.6694980  47.1567750  82.5693790   7.0409840  42.2110060
  82.1650790   6.3287090  41.7155960  82.6556910   6.6963080  43.0998100
  83.0375490  10.7277400  44.3749270  82.7403780  10.1222870  43.6957050
  83.9875310  10.7654710  44.2638630  81.2822410   3.8153050  45.9909100
  81.8337000   3.9248390  45.2162350  81.7965920   4.1890650  46.7064330
  91.1261100  14.3009270  48.0372370  90.6491660  15.1081460  47.8444980
  90.4422890  13.6487600  48.1898580  82.1293920  10.4659090  51.0257070
  81.2322450  10.6899060  51.2730470  82.1546790  10.5894030  50.0768470
  89.1699140   7.3152210  36.9398330  89.6092420   6.4774640  36.7936150
  89.8827560   7.9481610  37.0262470  80.9565140   7.3372410  49.6014440
  80.8172910   8.2095210  49.9701840  80.0746500   6.9945220  49.4562380
  87.2794520  12.2548280  40.9079570  87.7190430  12.9972610  40.4934960
  87.2181410  12.4974850  41.8318530  82.7545490  13.2794110  51.8099590
  82.7260920  13.6837060  50.9428020  82.5910460  12.3504470  51.6471190
  79.2698420   5.9354820  39.7116710  79.1496020   6.6616910  39.0997980
  78.9599310   5.1657730  39.2344620  94.7060310  14.0621210  53.1063760
  95.1820030  14.5404100  53.7852840  95.3267470  13.9938700  52.3809260
  76.9083790   9.1069960  45.5185350  76.9864210   9.2418730  44.5741070
  77.5225470   8.3985850  45.7113470  78.1531420  10.8070150  41.9291530
  77.7459500  10.9484740  41.0745130  79.0444430  10.5230310  41.7262740
  94.1093560  11.2534060  50.2663770  94.2356620  11.0145940  49.3480950
  94.1514940  10.4218600  50.7385850  87.9710300  14.9562060  48.8358580
  88.4854970  14.8670070  49.6381010  87.1279380  15.3021760  49.1286490
  89.9464700  15.2417400  38.2642580  89.7865840  14.9520340  39.1624410
  89.7811410  14.4657530  37.7287810  82.4253080  15.0215930  40.0414200
  82.2495560  14.1051470  39.8282000  81.5708820  15.3803220  40.2812000
  89.6490830  12.7504960  36.8240580  88.9555990  12.7482250  36.1642860
  90.3913690  12.3264280  36.3934750  89.2140760  14.3767670  40.8989070
  89.6697710  13.5957050  41.2127690  89.5533280  15.0874490  41.4430250
  93.9617570   3.3066520  51.2313510  93.3461840   3.8146190  50.7028970
  93.6413990   2.4064850  51.1739450  76.9643310  10.1484130  48.0579810
  77.1274350   9.6789490  47.2399180  77.4295760   9.6407690  48.7228650
  91.0236400   3.3667360  49.8272360  90.1729990   3.0673110  50.1481430
  90.8638190   3.6109370  48.9156180  88.1186110   4.8669110  51.9271150
  88.4439520   4.0332860  51.5873380  88.9066440   5.3897630  52.0749480
  81.5276300   4.4023460  40.8221630  81.3017220   4.1860630  41.7268250
  80.7468830   4.8351920  40.4767600  88.7574060   4.4086830  39.4212280
  88.1582950   5.1322630  39.2375900  89.3053670   4.3463610  38.6388730
  83.9675510   5.3009040  51.4881900  83.8719110   4.3603770  51.3382300
  84.8107490   5.5224110  51.0929970  87.3638930   3.0450370  41.4515560
  87.7568500   3.3622570  40.6384250  87.7255780   2.1662250  41.5660080
  76.5873330   3.5771290  34.8848480  76.5048000   4.5202050  35.0263470
  76.2356390   3.4346200  34.0060830  87.9494070   5.6356120  45.5466340
  87.2175190   6.1442930  45.8956440  87.5518410   4.8186100  45.2455120
  84.3871460   2.3110320  43.9518830  84.3907520   1.8700270  43.1023370
  85.2822580   2.6327650  44.0590650  80.2373840   2.1936810  42.9113040
  79.8973890   2.6712040  43.6680090  79.4751160   1.7401930  42.5514140
  84.4491610   3.3122400  36.9425590  84.5704430   3.2708880  37.8911410
  84.0640120   4.1746550  36.7872320  83.4613110   5.6223540  36.3408890
  82.8930010   5.1741790  35.7144800  84.1702110   5.9816320  35.8074040
  78.5382290   9.5235560  50.2175620  78.1537080   8.8829230  50.8158580
  78.8494480  10.2271680  50.7870350  84.6879430   6.3712100  45.6984240
  85.0549560   5.8970670  46.4445580  84.4984490   7.2453670  46.0392580
  82.4778800   5.4120740  48.0168450  82.1735870   6.2912720  48.2418810
  83.4325260   5.4720530  48.0525890  81.0060590   9.6181730  38.6135300
  80.2322850   9.0779350  38.4534020  81.7355220   9.0988340  38.2753060
  91.7648570   8.6147090  44.4061690  92.4847690   9.1102380  44.0157800
  91.5630390   7.9364980  43.7615560  87.1467370   8.6856150  50.2930690
  87.0804680   7.7651820  50.0388280  86.5172510   8.7831590  51.0075330
  89.9406900   4.3804700  36.8453240  90.8286520   4.6921930  36.6704580
  89.9111990   3.5076950  36.4533820  81.0497990   9.2862110  42.2514110
  81.5676660   8.4830370  42.1971000  80.5982010   9.2241250  43.0930940
  85.9367490  10.5528390  37.5241410  86.2783190  11.2970620  37.0284730
  85.1080200  10.8659510  37.8866240  78.5342530   6.2523480  49.1639810
  78.1757470   6.9177330  49.7513150  78.2397090   5.4207030  49.5352430
  81.7355650   6.7107720  52.0479360  81.4355790   6.8564900  51.1507180
  82.5066890   6.1513010  51.9552750  87.0784100  11.5076720  50.0434490
  87.0928640  10.5757680  49.8253400  86.3709200  11.5936480  50.6824260
  92.2121170   5.6916540  36.3133100  92.1284890   6.1230760  35.4629540
  92.9315360   6.1514890  36.7459920  93.2895310   8.1484060  49.3903070
  92.5643500   8.7412840  49.1932460  93.8170770   8.1407600  48.5916440
  93.2408420  12.5458800  39.0415230  92.5984580  11.8914420  39.3158950
  92.8539080  12.9513890  38.2655900  88.8194900   9.8744230  42.8886920
  89.1718720   9.2772360  42.2288290  87.9357230   9.5488460  43.0595170
  84.9058180  10.6341920  40.2957330  85.5929310  11.1811130  40.6764920
  84.1190600  11.1782650  40.3306940  77.0450580   6.2514740  35.7874410
  77.9145430   6.5339540  36.0710330  76.5540900   7.0650610  35.6723220
  84.2085390   7.6387950  39.9082690  84.6648170   8.4493200  40.1342880
  83.8573600   7.3211090  40.7401180  86.5118000  13.1494290  47.1374990
  87.1560220  13.3553670  47.8148410  86.8747440  12.3882690  46.6845840
  87.7850080  11.1526640  45.8552440  88.4272310  10.4519800  45.9684610
  88.3099430  11.9325080  45.6749330  91.6305800  11.4375260  35.5791580
  91.4043380  10.7205700  36.1716220  91.2402000  11.1887700  34.7413330
  89.5587700  11.9521540  49.0588500  89.8943940  12.5388230  49.7366420
  88.6388040  11.8214250  49.2886290  77.4121830  15.4642120  36.3536040
  77.7719470  16.0631460  35.6993310  77.2714170  16.0102010  37.1271070
  91.2122050   9.3547200  37.2405740  90.9243750   9.8159890  38.0283620
  92.0074220   8.8944970  37.5089960  77.3963690  13.7296980  50.8278440
  77.5054810  12.7891720  50.6873830  76.7444250  13.9951730  50.1792170
  85.3876280  12.0012870  52.2276560  85.0673150  11.2822110  52.7722250
  84.7134640  12.6767940  52.3012620  83.4290450  12.8473320  37.1709710
  83.4200550  13.5803010  36.5554220  82.5088810  12.6004900  37.2636670
  79.0297090   8.0688210  37.9156470  78.4225040   8.8087110  37.9251770
  79.5046440   8.1587570  37.0894670  86.4150050  12.9101560  35.8334900
  86.5162030  12.7065550  34.9036880  85.5151790  12.6559840  36.0382680
  83.9375940   3.4681920  39.8158800  83.2292090   3.9368260  40.2572410
  84.2220420   2.8103930  40.4503990  85.5631870   4.8878620  47.8151330
  86.0617120   5.3624440  48.4803180  85.7054820   3.9642140  48.0221360
  85.0568160  15.4287880  40.5282570  85.3109660  15.3909270  39.6061940
  84.1080640  15.3021210  40.5210820  82.1410960   1.7767000  37.1909510
  82.9901490   2.2137150  37.1249700  81.7742230   2.0887260  38.0181570
  91.0620740   6.3479760  42.1041080  90.1210880   6.3629990  42.2788770
  91.3764810   5.5615720  42.5501380  81.0402380   8.0299360  35.6645040
  81.8065650   7.9180720  36.2270470  81.1177070   7.3337330  35.0121810
  79.7349140   5.4624430  36.3477930  79.8152730   4.5151940  36.4595330
  80.6268890   5.7931310  36.4538590  93.0646320  13.5188610  43.7795340
  93.1893740  14.3419780  44.2519150  93.9311880  13.3079340  43.4319490
  80.5363850  15.6119820  43.4512470  81.2726330  15.0635280  43.7221040
  80.9204770  16.4775830  43.3118460  77.4209330  11.6793390  39.3253980
  76.4949110  11.9214530  39.3159390  77.8865760  12.5067650  39.2038730
  79.5422130  14.7965890  52.6398050  80.3434860  15.1177940  53.0533450
  79.0273950  14.4361470  53.3617960  83.6466160  14.7850130  35.2738040
  84.4394770  15.0738960  34.8219830  83.1270510  14.3542300  34.5950520
  88.3786760  10.9045760  52.5873460  87.7724920  10.9277360  51.8469210
  88.0740870  10.1728800  53.1240710  89.8087130  14.6326050  51.1982870
  90.7608880  14.5484070  51.1483110  89.6615350  15.2967760  51.8716660
  92.6996330  14.0120260  36.6974780  92.4137840  13.5985400  35.8828960
  92.5015880  14.9407970  36.5775300  77.2619940   7.2839350  51.5834100
  77.7658960   6.7046630  52.1550330  76.5227360   7.5679580  52.1210470
  84.1643560  10.0053540  35.1380390  84.0594200   9.3905890  35.8641770
  83.9967780   9.4819430  34.3543400  84.3157880   8.6910340  51.1169620
  83.5503550   9.2595340  51.0324290  84.4973840   8.3986550  50.2237850
  87.4046290   9.0673570  35.7422380  86.8556390   9.5142870  36.3865120
  88.0265550   8.5622820  36.2660050  91.4581230  10.4215670  51.6744640
  92.1990700  10.7591430  51.1712100  90.6953910  10.5907730  51.1214410
  79.2943020   5.4268940  52.4784170  79.3348360   5.1282810  53.3869400
  80.1488520   5.8276550  52.3191690  83.0721410   8.0264490  37.6387680
  83.4937830   7.8604360  38.4819070  83.1972250   7.2164720  37.1442820
  81.2348830   4.0061040  50.4458660  80.7045290   3.5151990  49.8182000
  81.9036900   4.4345240  49.9116590  85.5849050   7.0502100  34.8864780
  86.1054710   6.3351120  34.5205930  86.2317450   7.6887970  35.1865290
  90.1326890   8.4730500  50.2099850  90.5467910   8.6275580  51.0590270
  89.1977890   8.5985720  50.3725630  90.6049060   5.8126660  52.2139000
  91.1869830   5.0578980  52.1259480  90.7810830   6.3434100  51.4370480
  84.8942120   8.4250980  48.1795780  85.3130230   9.2683710  48.0072020
  83.9750750   8.5623020  47.9502560  87.2306020   6.1567160  49.5633620
  87.3502230   5.5608300  50.3028460  88.0900020   6.1936850  49.1434920
  89.5693920   6.7104350  48.1396130  89.0429140   7.2346970  47.5361270
  89.9125260   7.3431740  48.7705860  81.9680310   4.0997720  34.5845840
  81.7669370   3.2365080  34.9459180  81.7972360   4.0131080  33.6467440
  82.7449540  14.7303990  49.2953510  82.2070630  15.4550050  48.9762210
  82.9983500  14.2534330  48.5050850  83.9974790   2.6988510  50.8209440
  84.5874480   2.3904360  51.5087260  83.1795030   2.2268260  50.9769340
  88.8168220   2.3154320  51.0542460  88.1283740   1.6535860  50.9892450
  89.5374240   1.8692590  51.4990920  85.6011750  15.9655200  49.5540160
  85.5270450  16.8690340  49.8612530  84.6990590  15.6467100  49.5262230
  86.1497080  15.1313710  37.1766520  87.0447870  15.4698680  37.1985280
  86.1814710  14.4093120  36.5490800  79.7893240  10.5040760  35.4053520
  80.2268110  11.0470430  36.0611100  80.2740970   9.6787710  35.4149860
  77.0039040  13.2929790  42.8573780  77.3342050  12.4250850  42.6252420
  77.4330040  13.4988310  43.6878740  81.6000960  11.6238800  40.5175750
  81.2996500  11.5003770  41.4179660  81.4938450  10.7647390  40.1091480
  77.4929250  14.1600380  45.5955410  77.0560240  14.3401180  46.4279560
  78.0606930  14.9175000  45.4537130  93.1291430  13.6617380  49.8832720
  92.5293420  13.7209940  49.1396640  93.2585330  12.7222360  50.0129570
  94.3692880  11.4035200  35.2202430  93.5385840  11.4711850  35.6909660
  94.5464710  12.2939320  34.9169290  93.8249340   8.1482680  37.7236630
  94.5868250   8.7179330  37.8296320  93.8403710   7.5809880  38.4944940
  77.3253680   6.6720610  41.9544290  76.6702520   6.4032250  41.3103990
  78.1631630   6.5625090  41.5046270  94.8309310   9.0032780  42.5678560
  95.2018140   8.2200100  42.1614530  95.4711240   9.6921880  42.3895860
  91.8143070  10.3869360  47.9808880  91.0002910  10.8166520  48.2434670
  92.2217270  10.9987770  47.3677930  93.8768510   8.4417050  34.8809150
  94.1517350   9.3495930  34.7528370  93.6879250   8.3779580  35.8171140
  93.7733850   6.3786040  39.8738580  93.3977450   5.6113970  39.4419870
  93.0436970   6.7608740  40.3613510  78.3629610   7.0573180  46.4947630
  78.7302650   6.9700580  47.3743650  77.7940430   6.2939730  46.3954490
  93.1633470   5.5257560  49.5078100  92.9319560   5.2970310  48.6076050
  93.4238020   6.4457110  49.4622990  77.9145610   3.9682270  50.4006050
  77.0201660   3.9349030  50.7399760  78.4543160   4.1669060  51.1657300
  76.5391760   3.8819540  37.8969620  75.6355840   4.1449740  37.7221280
  77.0232380   4.1530710  37.1169580  93.0484810   4.6043530  43.1745820
  93.5722290   4.1106180  42.5435990  93.6344230   4.7393890  43.9193390
  93.2274530   4.6883400  46.6965370  92.2777240   4.6546940  46.8110360
  93.4087540   5.5983510  46.4615140  79.0818970   2.9385080  35.8064000
  79.7910670   2.5168300  35.3211280  78.3658910   3.0060310  35.1747350
  92.5384780   3.8616880  39.1138230  93.0343900   3.6287750  39.8987110
  92.3400850   3.0228720  38.6975870  93.9671940   2.4977830  41.6475910
  93.8571220   2.3433870  42.5858180  94.7279530   1.9698770  41.4051320
  91.8719120  15.1387960  41.5077150  92.4678190  14.8172530  40.8311570
  92.1297270  14.6659780  42.2990420  79.7781690  11.5705870  51.6567780
  79.7351320  11.1998780  52.5382240  79.9092700  12.5083440  51.7969600
  83.4787720  13.1265460  47.2577500  83.2379080  13.3940020  46.3708020
  84.4190360  13.2971190  47.3128360  94.7391880  15.1459840  48.0588140
  94.2450160  15.5428710  47.3415270  94.1305170  14.5209050  48.4525420
  79.6169720  14.5168120  48.7765560  79.0230040  14.3852820  49.5155600
  79.6093560  13.6806260  48.3107660  92.4231330  15.7883260  45.3374880
  91.9634300  16.5399070  44.9632900  91.7943790  15.0689730  45.2789680
  79.2481950  11.8826500  47.7273600  78.5216010  11.2631790  47.6599550
  79.3091100  12.2767110  46.8571680  82.8527050  14.0971500  44.5123010
  83.3692070  13.4858860  43.9871270  83.5024430  14.6000280  45.0034020
  85.5922550  14.9879990  45.3391990  85.8800360  14.7334290  44.4625000
  86.1045770  14.4357350  45.9297560  77.5311950  15.2000890  40.9370360
  77.3633990  14.5671570  41.6352250  76.6646460  15.4060290  40.5864550
  79.1374650  13.8934120  38.3820500  78.6122270  14.2742150  37.6782460
  79.0619230  14.5184890  39.1030210  85.6594910  15.9096090  52.7060190
  86.5862220  15.6740360  52.7496150  85.6445340  16.7368090  52.2246220
  93.8939970  15.4521660  39.7034440  94.0692160  14.7659400  39.0595360
  93.1961540  15.9768710  39.3111110  81.7367620  15.8416500  37.2569750
  82.4686440  15.5575780  36.7093640  81.9961290  15.6029780  38.1469130
  80.8982410  11.9581230  37.2616080  80.2691290  12.4266330  37.8101910
  81.0130240  11.1130450  37.6962270  92.2272470  15.1365950  52.5301230
  93.0197790  14.6415180  52.3227190  92.5205620  15.8156090  53.1376840
  88.3532130   6.0086890  23.4117280  88.2726180   5.0941500  23.1408990
  87.9396550   6.5053960  22.7056990  86.4850170   7.7865910  25.2926550
  85.7092270   7.3066350  25.5825120  87.1363100   7.1071560  25.1182710
  80.5016000   8.0985720  26.1702310  79.6700880   7.8434430  26.5698820
  81.1096980   8.1696490  26.9060230  90.5057600  12.1926100  24.0725680
  90.0439130  11.4213340  24.4012850  91.3183150  12.2192170  24.5778130
  80.4817260  12.1325810  26.3660330  80.7845300  11.2423550  26.1870550
  81.2260850  12.6896030  26.1382580  78.9107950   3.0587610  19.9544700
  78.0224650   3.4003580  19.8524580  79.1949140   2.8587930  19.0625530
  76.8740960   5.6593260  25.8384400  77.4457070   4.8915460  25.8388040
  76.8742500   5.9582020  24.9291010  86.7320910  14.4784110  23.6929670
  86.1132350  14.9341610  23.1224110  87.5872690  14.6335570  23.2919370
  85.9259160  10.4623100  25.2996710  85.8567440   9.5213040  25.1385840
  86.6879020  10.5524510  25.8719280  86.9564330   3.2693480  25.5265640
  87.3329150   2.3965360  25.4139310  86.8583840   3.6052180  24.6356080
  78.7352500   3.5638120  26.2335670  79.4162610   3.8276490  26.8523070
  78.4200550   2.7238990  26.5673680  82.9277070   4.6105480  25.3208260
  83.4355290   5.1086450  25.9613280  83.4590310   3.8340680  25.1447620
  95.0288000   2.7810670  29.0237610  94.3240170   3.1692380  28.5052720
  95.2945920   3.4760960  29.6258540  87.5984260   9.3623350  21.0861580
  86.9801530   9.8272800  20.5224300  88.1107510  10.0550830  21.5031090
  82.4616020   8.8899220  27.7645180  82.1285400   9.5168140  28.4066250
  82.6382700   9.4161100  26.9846850  90.9749930   2.7044300  25.2321520
  90.2705500   2.9929190  25.8124630  91.3362090   3.5144410  24.8721080
  81.6735120  10.8580020  29.5794360  82.2909120  11.5331100  29.2978810
  80.8128240  11.2668000  29.4881860  76.9667460  10.0479880  18.4601210
  76.5895440  10.5366980  17.7286110  77.2240530  10.7205160  19.0907740
  92.5912710  12.3219430  27.4949000  91.9076230  12.9918540  27.4865670
  93.1307000  12.5200080  26.7293860  94.0436850   2.1499090  25.6230730
  93.0961760   2.1838070  25.7546160  94.3686840   2.9638040  26.0080090
  90.1271450  14.1663560  26.2094180  90.1398610  13.7625850  25.3416440
  89.5746670  14.9410850  26.1055610  91.4216870  10.8879780  21.2984350
  91.3113200   9.9454110  21.4233770  91.4185120  11.2495420  22.1847110
  89.5256890   9.0693400  27.5376790  89.9425680   8.8553510  26.7030250
  90.2496710   9.3266190  28.1085410  86.9637150   6.5145100  20.6546840
  86.0366430   6.4482480  20.8835310  87.1161970   7.4525230  20.5402080
  86.9506230   2.7862100  17.6514000  86.0109900   2.9476060  17.7366460
  87.2689490   3.5047780  17.1049990  93.4718990   7.4680620  27.6293030
  92.6437620   7.5373710  27.1543160  94.0669470   8.0534930  27.1608860
  90.9934440   8.0765400  21.1582090  90.3746860   7.7384950  20.5108390
  90.9758890   7.4325160  21.8661280  90.4361000   4.2549940  28.5747900
  90.0232180   5.0803650  28.8287890  89.7036950   3.6694980  28.3824260
  82.5693790   7.0409840  23.4366570  82.1650790   6.3287090  22.9412470
  82.6556910   6.6963080  24.3254610  83.0375490  10.7277400  25.6005780
  82.7403780  10.1222870  24.9213560  83.9875310  10.7654710  25.4895140
  81.2822410   3.8153050  27.2165610  81.8337000   3.9248390  26.4418860
  81.7965920   4.1890650  27.9320840  91.1261100  14.3009270  29.2628880
  90.6491660  15.1081460  29.0701490  90.4422890  13.6487600  29.4155090
  82.1293920  10.4659090  32.2513580  81.2322450  10.6899060  32.4986980
  82.1546790  10.5894030  31.3024980  89.1699140   7.3152210  18.1654840
  89.6092420   6.4774640  18.0192660  89.8827560   7.9481610  18.2518980
  80.9565140   7.3372410  30.8270950  80.8172910   8.2095210  31.1958350
  80.0746500   6.9945220  30.6818890  87.2794520  12.2548280  22.1336080
  87.7190430  12.9972610  21.7191470  87.2181410  12.4974850  23.0575040
  82.7545490  13.2794110  33.0356100  82.7260920  13.6837060  32.1684530
  82.5910460  12.3504470  32.8727700  79.2698420   5.9354820  20.9373220
  79.1496020   6.6616910  20.3254490  78.9599310   5.1657730  20.4601130
  94.7060310  14.0621210  34.3320270  95.1820030  14.5404100  35.0109350
  95.3267470  13.9938700  33.6065770  76.9083790   9.1069960  26.7441860
  76.9864210   9.2418730  25.7997580  77.5225470   8.3985850  26.9369980
  78.1531420  10.8070150  23.1548040  77.7459500  10.9484740  22.3001640
  79.0444430  10.5230310  22.9519250  94.1093560  11.2534060  31.4920280
  94.2356620  11.0145940  30.5737460  94.1514940  10.4218600  31.9642360
  87.9710300  14.9562060  30.0615090  88.4854970  14.8670070  30.8637520
  87.1279380  15.3021760  30.3543000  89.9464700  15.2417400  19.4899090
  89.7865840  14.9520340  20.3880920  89.7811410  14.4657530  18.9544320
  82.4253080  15.0215930  21.2670710  82.2495560  14.1051470  21.0538510
  81.5708820  15.3803220  21.5068510  89.6490830  12.7504960  18.0497090
  88.9555990  12.7482250  17.3899370  90.3913690  12.3264280  17.6191260
  89.2140760  14.3767670  22.1245580  89.6697710  13.5957050  22.4384200
  89.5533280  15.0874490  22.6686760  93.9617570   3.3066520  32.4570020
  93.3461840   3.8146190  31.9285480  93.6413990   2.4064850  32.3995960
  76.9643310  10.1484130  29.2836320  77.1274350   9.6789490  28.4655690
  77.4295760   9.6407690  29.9485160  91.0236400   3.3667360  31.0528870
  90.1729990   3.0673110  31.3737940  90.8638190   3.6109370  30.1412690
  88.1186110   4.8669110  33.1527660  88.4439520   4.0332860  32.8129890
  88.9066440   5.3897630  33.3005990  81.5276300   4.4023460  22.0478140
  81.3017220   4.1860630  22.9524760  80.7468830   4.8351920  21.7024110
  88.7574060   4.4086830  20.6468790  88.1582950   5.1322630  20.4632410
  89.3053670   4.3463610  19.8645240  83.9675510   5.3009040  32.7138410
  83.8719110   4.3603770  32.5638810  84.8107490   5.5224110  32.3186480
  87.3638930   3.0450370  22.6772070  87.7568500   3.3622570  21.8640760
  87.7255780   2.1662250  22.7916590  76.5873330   3.5771290  16.1104990
  76.5048000   4.5202050  16.2519980  76.2356390   3.4346200  15.2317340
  87.9494070   5.6356120  26.7722850  87.2175190   6.1442930  27.1212950
  87.5518410   4.8186100  26.4711630  84.3871460   2.3110320  25.1775340
  84.3907520   1.8700270  24.3279880  85.2822580   2.6327650  25.2847160
  80.2373840   2.1936810  24.1369550  79.8973890   2.6712040  24.8936600
  79.4751160   1.7401930  23.7770650  84.4491610   3.3122400  18.1682100
  84.5704430   3.2708880  19.1167920  84.0640120   4.1746550  18.0128830
  83.4613110   5.6223540  17.5665400  82.8930010   5.1741790  16.9401310
  84.1702110   5.9816320  17.0330550  78.5382290   9.5235560  31.4432130
  78.1537080   8.8829230  32.0415090  78.8494480  10.2271680  32.0126860
  84.6879430   6.3712100  26.9240750  85.0549560   5.8970670  27.6702090
  84.4984490   7.2453670  27.2649090  82.4778800   5.4120740  29.2424960
  82.1735870   6.2912720  29.4675320  83.4325260   5.4720530  29.2782400
  81.0060590   9.6181730  19.8391810  80.2322850   9.0779350  19.6790530
  81.7355220   9.0988340  19.5009570  91.7648570   8.6147090  25.6318200
  92.4847690   9.1102380  25.2414310  91.5630390   7.9364980  24.9872070
  87.1467370   8.6856150  31.5187200  87.0804680   7.7651820  31.2644790
  86.5172510   8.7831590  32.2331840  89.9406900   4.3804700  18.0709750
  90.8286520   4.6921930  17.8961090  89.9111990   3.5076950  17.6790330
  81.0497990   9.2862110  23.4770620  81.5676660   8.4830370  23.4227510
  80.5982010   9.2241250  24.3187450  85.9367490  10.5528390  18.7497920
  86.2783190  11.2970620  18.2541240  85.1080200  10.8659510  19.1122750
  78.5342530   6.2523480  30.3896320  78.1757470   6.9177330  30.9769660
  78.2397090   5.4207030  30.7608940  81.7355650   6.7107720  33.2735870
  81.4355790   6.8564900  32.3763690  82.5066890   6.1513010  33.1809260
  87.0784100  11.5076720  31.2691000  87.0928640  10.5757680  31.0509910
  86.3709200  11.5936480  31.9080770  92.2121170   5.6916540  17.5389610
  92.1284890   6.1230760  16.6886050  92.9315360   6.1514890  17.9716430
  93.2895310   8.1484060  30.6159580  92.5643500   8.7412840  30.4188970
  93.8170770   8.1407600  29.8172950  93.2408420  12.5458800  20.2671740
  92.5984580  11.8914420  20.5415460  92.8539080  12.9513890  19.4912410
  88.8194900   9.8744230  24.1143430  89.1718720   9.2772360  23.4544800
  87.9357230   9.5488460  24.2851680  84.9058180  10.6341920  21.5213840
  85.5929310  11.1811130  21.9021430  84.1190600  11.1782650  21.5563450
  77.0450580   6.2514740  17.0130920  77.9145430   6.5339540  17.2966840
  76.5540900   7.0650610  16.8979730  84.2085390   7.6387950  21.1339200
  84.6648170   8.4493200  21.3599390  83.8573600   7.3211090  21.9657690
  86.5118000  13.1494290  28.3631500  87.1560220  13.3553670  29.0404920
  86.8747440  12.3882690  27.9102350  87.7850080  11.1526640  27.0808950
  88.4272310  10.4519800  27.1941120  88.3099430  11.9325080  26.9005840
  91.6305800  11.4375260  16.8048090  91.4043380  10.7205700  17.3972730
  91.2402000  11.1887700  15.9669840  89.5587700  11.9521540  30.2845010
  89.8943940  12.5388230  30.9622930  88.6388040  11.8214250  30.5142800
  77.4121830  15.4642120  17.5792550  77.7719470  16.0631460  16.9249820
  77.2714170  16.0102010  18.3527580  91.2122050   9.3547200  18.4662250
  90.9243750   9.8159890  19.2540130  92.0074220   8.8944970  18.7346470
  77.3963690  13.7296980  32.0534950  77.5054810  12.7891720  31.9130340
  76.7444250  13.9951730  31.4048680  85.3876280  12.0012870  33.4533070
  85.0673150  11.2822110  33.9978760  84.7134640  12.6767940  33.5269130
  83.4290450  12.8473320  18.3966220  83.4200550  13.5803010  17.7810730
  82.5088810  12.6004900  18.4893180  79.0297090   8.0688210  19.1412980
  78.4225040   8.8087110  19.1508280  79.5046440   8.1587570  18.3151180
  86.4150050  12.9101560  17.0591410  86.5162030  12.7065550  16.1293390
  85.5151790  12.6559840  17.2639190  83.9375940   3.4681920  21.0415310
  83.2292090   3.9368260  21.4828920  84.2220420   2.8103930  21.6760500
  85.5631870   4.8878620  29.0407840  86.0617120   5.3624440  29.7059690
  85.7054820   3.9642140  29.2477870  85.0568160  15.4287880  21.7539080
  85.3109660  15.3909270  20.8318450  84.1080640  15.3021210  21.7467330
  82.1410960   1.7767000  18.4166020  82.9901490   2.2137150  18.3506210
  81.7742230   2.0887260  19.2438080  91.0620740   6.3479760  23.3297590
  90.1210880   6.3629990  23.5045280  91.3764810   5.5615720  23.7757890
  81.0402380   8.0299360  16.8901550  81.8065650   7.9180720  17.4526980
  81.1177070   7.3337330  16.2378320  79.7349140   5.4624430  17.5734440
  79.8152730   4.5151940  17.6851840  80.6268890   5.7931310  17.6795100
  93.0646320  13.5188610  25.0051850  93.1893740  14.3419780  25.4775660
  93.9311880  13.3079340  24.6576000  80.5363850  15.6119820  24.6768980
  81.2726330  15.0635280  24.9477550  80.9204770  16.4775830  24.5374970
  77.4209330  11.6793390  20.5510490  76.4949110  11.9214530  20.5415900
  77.8865760  12.5067650  20.4295240  79.5422130  14.7965890  33.8654560
  80.3434860  15.1177940  34.2789960  79.0273950  14.4361470  34.5874470
  83.6466160  14.7850130  16.4994550  84.4394770  15.0738960  16.0476340
  83.1270510  14.3542300  15.8207030  88.3786760  10.9045760  33.8129970
  87.7724920  10.9277360  33.0725720  88.0740870  10.1728800  34.3497220
  89.8087130  14.6326050  32.4239380  90.7608880  14.5484070  32.3739620
  89.6615350  15.2967760  33.0973170  92.6996330  14.0120260  17.9231290
  92.4137840  13.5985400  17.1085470  92.5015880  14.9407970  17.8031810
  77.2619940   7.2839350  32.8090610  77.7658960   6.7046630  33.3806840
  76.5227360   7.5679580  33.3466980  84.1643560  10.0053540  16.3636900
  84.0594200   9.3905890  17.0898280  83.9967780   9.4819430  15.5799910
  84.3157880   8.6910340  32.3426130  83.5503550   9.2595340  32.2580800
  84.4973840   8.3986550  31.4494360  87.4046290   9.0673570  16.9678890
  86.8556390   9.5142870  17.6121630  88.0265550   8.5622820  17.4916560
  91.4581230  10.4215670  32.9001150  92.1990700  10.7591430  32.3968610
  90.6953910  10.5907730  32.3470920  79.2943020   5.4268940  33.7040680
  79.3348360   5.1282810  34.6125910  80.1488520   5.8276550  33.5448200
  83.0721410   8.0264490  18.8644190  83.4937830   7.8604360  19.7075580
  83.1972250   7.2164720  18.3699330  81.2348830   4.0061040  31.6715170
  80.7045290   3.5151990  31.0438510  81.9036900   4.4345240  31.1373100
  85.5849050   7.0502100  16.1121290  86.1054710   6.3351120  15.7462440
  86.2317450   7.6887970  16.4121800  90.1326890   8.4730500  31.4356360
  90.5467910   8.6275580  32.2846780  89.1977890   8.5985720  31.5982140
  90.6049060   5.8126660  33.4395510  91.1869830   5.0578980  33.3515990
  90.7810830   6.3434100  32.6626990  84.8942120   8.4250980  29.4052290
  85.3130230   9.2683710  29.2328530  83.9750750   8.5623020  29.1759070
  87.2306020   6.1567160  30.7890130  87.3502230   5.5608300  31.5284970
  88.0900020   6.1936850  30.3691430  89.5693920   6.7104350  29.3652640
  89.0429140   7.2346970  28.7617780  89.9125260   7.3431740  29.9962370
  81.9680310   4.0997720  15.8102350  81.7669370   3.2365080  16.1715690
  81.7972360   4.0131080  14.8723950  82.7449540  14.7303990  30.5210020
  82.2070630  15.4550050  30.2018720  82.9983500  14.2534330  29.7307360
  83.9974790   2.6988510  32.0465950  84.5874480   2.3904360  32.7343770
  83.1795030   2.2268260  32.2025850  88.8168220   2.3154320  32.2798970
  88.1283740   1.6535860  32.2148960  89.5374240   1.8692590  32.7247430
  85.6011750  15.9655200  30.7796670  85.5270450  16.8690340  31.0869040
  84.6990590  15.6467100  30.7518740  86.1497080  15.1313710  18.4023030
  87.0447870  15.4698680  18.4241790  86.1814710  14.4093120  17.7747310
  79.7893240  10.5040760  16.6310030  80.2268110  11.0470430  17.2867610
  80.2740970   9.6787710  16.6406370  77.0039040  13.2929790  24.0830290
  77.3342050  12.4250850  23.8508930  77.4330040  13.4988310  24.9135250
  81.6000960  11.6238800  21.7432260  81.2996500  11.5003770  22.6436170
  81.4938450  10.7647390  21.3347990  77.4929250  14.1600380  26.8211920
  77.0560240  14.3401180  27.6536070  78.0606930  14.9175000  26.6793640
  93.1291430  13.6617380  31.1089230  92.5293420  13.7209940  30.3653150
  93.2585330  12.7222360  31.2386080  94.3692880  11.4035200  16.4458940
  93.5385840  11.4711850  16.9166170  94.5464710  12.2939320  16.1425800
  93.8249340   8.1482680  18.9493140  94.5868250   8.7179330  19.0552830
  93.8403710   7.5809880  19.7201450  77.3253680   6.6720610  23.1800800
  76.6702520   6.4032250  22.5360500  78.1631630   6.5625090  22.7302780
  94.8309310   9.0032780  23.7935070  95.2018140   8.2200100  23.3871040
  95.4711240   9.6921880  23.6152370  91.8143070  10.3869360  29.2065390
  91.0002910  10.8166520  29.4691180  92.2217270  10.9987770  28.5934440
  93.8768510   8.4417050  16.1065660  94.1517350   9.3495930  15.9784880
  93.6879250   8.3779580  17.0427650  93.7733850   6.3786040  21.0995090
  93.3977450   5.6113970  20.6676380  93.0436970   6.7608740  21.5870020
  78.3629610   7.0573180  27.7204140  78.7302650   6.9700580  28.6000160
  77.7940430   6.2939730  27.6211000  93.1633470   5.5257560  30.7334610
  92.9319560   5.2970310  29.8332560  93.4238020   6.4457110  30.6879500
  77.9145610   3.9682270  31.6262560  77.0201660   3.9349030  31.9656270
  78.4543160   4.1669060  32.3913810  76.5391760   3.8819540  19.1226130
  75.6355840   4.1449740  18.9477790  77.0232380   4.1530710  18.3426090
  93.0484810   4.6043530  24.4002330  93.5722290   4.1106180  23.7692500
  93.6344230   4.7393890  25.1449900  93.2274530   4.6883400  27.9221880
  92.2777240   4.6546940  28.0366870  93.4087540   5.5983510  27.6871650
  79.0818970   2.9385080  17.0320510  79.7910670   2.5168300  16.5467790
  78.3658910   3.0060310  16.4003860  92.5384780   3.8616880  20.3394740
  93.0343900   3.6287750  21.1243620  92.3400850   3.0228720  19.9232380
  93.9671940   2.4977830  22.8732420  93.8571220   2.3433870  23.8114690
  94.7279530   1.9698770  22.6307830  91.8719120  15.1387960  22.7333660
  92.4678190  14.8172530  22.0568080  92.1297270  14.6659780  23.5246930
  79.7781690  11.5705870  32.8824290  79.7351320  11.1998780  33.7638750
  79.9092700  12.5083440  33.0226110  83.4787720  13.1265460  28.4834010
  83.2379080  13.3940020  27.5964530  84.4190360  13.2971190  28.5384870
  94.7391880  15.1459840  29.2844650  94.2450160  15.5428710  28.5671780
  94.1305170  14.5209050  29.6781930  79.6169720  14.5168120  30.0022070
  79.0230040  14.3852820  30.7412110  79.6093560  13.6806260  29.5364170
  92.4231330  15.7883260  26.5631390  91.9634300  16.5399070  26.1889410
  91.7943790  15.0689730  26.5046190  79.2481950  11.8826500  28.9530110
  78.5216010  11.2631790  28.8856060  79.3091100  12.2767110  28.0828190
  82.8527050  14.0971500  25.7379520  83.3692070  13.4858860  25.2127780
  83.5024430  14.6000280  26.2290530  85.5922550  14.9879990  26.5648500
  85.8800360  14.7334290  25.6881510  86.1045770  14.4357350  27.1554070
  77.5311950  15.2000890  22.1626870  77.3633990  14.5671570  22.8608760
  76.6646460  15.4060290  21.8121060  79.1374650  13.8934120  19.6077010
  78.6122270  14.2742150  18.9038970  79.0619230  14.5184890  20.3286720
  85.6594910  15.9096090  33.9316700  86.5862220  15.6740360  33.9752660
  85.6445340  16.7368090  33.4502730  93.8939970  15.4521660  20.9290950
  94.0692160  14.7659400  20.2851870  93.1961540  15.9768710  20.5367620
  81.7367620  15.8416500  18.4826260  82.4686440  15.5575780  17.9350150
  81.9961290  15.6029780  19.3725640  80.8982410  11.9581230  18.4872590
  80.2691290  12.4266330  19.0358420  81.0130240  11.1130450  18.9218780
  92.2272470  15.1365950  33.7557740  93.0197790  14.6415180  33.5483700
  92.5205620  15.8156090  34.3633350  88.3532130   6.0086890   4.6373790
  88.2726180   5.0941500   4.3665500  87.9396550   6.5053960   3.9313500
  86.4850170   7.7865910   6.5183060  85.7092270   7.3066350   6.8081630
  87.1363100   7.1071560   6.3439220  80.5016000   8.0985720   7.3958820
  79.6700880   7.8434430   7.7955330  81.1096980   8.1696490   8.1316740
  90.5057600  12.1926100   5.2982190  90.0439130  11.4213340   5.6269360
  91.3183150  12.2192170   5.8034640  80.4817260  12.1325810   7.5916840
  80.7845300  11.2423550   7.4127060  81.2260850  12.6896030   7.3639090
  76.8740960   5.6593260   7.0640910  77.4457070   4.8915460   7.0644550
  76.8742500   5.9582020   6.1547520  86.7320910  14.4784110   4.9186180
  86.1132350  14.9341610   4.3480620  87.5872690  14.6335570   4.5175880
  85.9259160  10.4623100   6.5253220  85.8567440   9.5213040   6.3642350
  86.6879020  10.5524510   7.0975790  86.9564330   3.2693480   6.7522150
  87.3329150   2.3965360   6.6395820  86.8583840   3.6052180   5.8612590
  78.7352500   3.5638120   7.4592180  79.4162610   3.8276490   8.0779580
  78.4200550   2.7238990   7.7930190  82.9277070   4.6105480   6.5464770
  83.4355290   5.1086450   7.1869790  83.4590310   3.8340680   6.3704130
  95.0288000   2.7810670  10.2494120  94.3240170   3.1692380   9.7309230
  95.2945920   3.4760960  10.8515050  87.5984260   9.3623350   2.3118090
  86.9801530   9.8272800   1.7480810  88.1107510  10.0550830   2.7287600
  82.4616020   8.8899220   8.9901690  82.1285400   9.5168140   9.6322760
  82.6382700   9.4161100   8.2103360  90.9749930   2.7044300   6.4578030
  90.2705500   2.9929190   7.0381140  91.3362090   3.5144410   6.0977590
  81.6735120  10.8580020  10.8050870  82.2909120  11.5331100  10.5235320
  80.8128240  11.2668000  10.7138370  92.5912710  12.3219430   8.7205510
  91.9076230  12.9918540   8.7122180  93.1307000  12.5200080   7.9550370
  94.0436850   2.1499090   6.8487240  93.0961760   2.1838070   6.9802670
  94.3686840   2.9638040   7.2336600  90.1271450  14.1663560   7.4350690
  90.1398610  13.7625850   6.5672950  89.5746670  14.9410850   7.3312120
  91.4216870  10.8879780   2.5240860  91.3113200   9.9454110   2.6490280
  91.4185120  11.2495420   3.4103620  89.5256890   9.0693400   8.7633300
  89.9425680   8.8553510   7.9286760  90.2496710   9.3266190   9.3341920
  86.9637150   6.5145100   1.8803350  86.0366430   6.4482480   2.1091820
  87.1161970   7.4525230   1.7658590  93.4718990   7.4680620   8.8549540
  92.6437620   7.5373710   8.3799670  94.0669470   8.0534930   8.3865370
  90.9934440   8.0765400   2.3838600  90.3746860   7.7384950   1.7364900
  90.9758890   7.4325160   3.0917790  90.4361000   4.2549940   9.8004410
  90.0232180   5.0803650  10.0544400  89.7036950   3.6694980   9.6080770
  82.5693790   7.0409840   4.6623080  82.1650790   6.3287090   4.1668980
  82.6556910   6.6963080   5.5511120  83.0375490  10.7277400   6.8262290
  82.7403780  10.1222870   6.1470070  83.9875310  10.7654710   6.7151650
  81.2822410   3.8153050   8.4422120  81.8337000   3.9248390   7.6675370
  81.7965920   4.1890650   9.1577350  91.1261100  14.3009270  10.4885390
  90.6491660  15.1081460  10.2958000  90.4422890  13.6487600  10.6411600
  82.1293920  10.4659090  13.4770090  81.2322450  10.6899060  13.7243490
  82.1546790  10.5894030  12.5281490  80.9565140   7.3372410  12.0527460
  80.8172910   8.2095210  12.4214860  80.0746500   6.9945220  11.9075400
  87.2794520  12.2548280   3.3592590  87.7190430  12.9972610   2.9447980
  87.2181410  12.4974850   4.2831550  82.7545490  13.2794110  14.2612610
  82.7260920  13.6837060  13.3941040  82.5910460  12.3504470  14.0984210
  94.7060310  14.0621210  15.5576780  95.1820030  14.5404100  16.2365860
  95.3267470  13.9938700  14.8322280  76.9083790   9.1069960   7.9698370
  76.9864210   9.2418730   7.0254090  77.5225470   8.3985850   8.1626490
  78.1531420  10.8070150   4.3804550  77.7459500  10.9484740   3.5258150
  79.0444430  10.5230310   4.1775760  94.1093560  11.2534060  12.7176790
  94.2356620  11.0145940  11.7993970  94.1514940  10.4218600  13.1898870
  87.9710300  14.9562060  11.2871600  88.4854970  14.8670070  12.0894030
  87.1279380  15.3021760  11.5799510  82.4253080  15.0215930   2.4927220
  82.2495560  14.1051470   2.2795020  81.5708820  15.3803220   2.7325020
  89.2140760  14.3767670   3.3502090  89.6697710  13.5957050   3.6640710
  89.5533280  15.0874490   3.8943270  93.9617570   3.3066520  13.6826530
  93.3461840   3.8146190  13.1541990  93.6413990   2.4064850  13.6252470
  76.9643310  10.1484130  10.5092830  77.1274350   9.6789490   9.6912200
  77.4295760   9.6407690  11.1741670  91.0236400   3.3667360  12.2785380
  90.1729990   3.0673110  12.5994450  90.8638190   3.6109370  11.3669200
  88.1186110   4.8669110  14.3784170  88.4439520   4.0332860  14.0386400
  88.9066440   5.3897630  14.5262500  81.5276300   4.4023460   3.2734650
  81.3017220   4.1860630   4.1781270  80.7468830   4.8351920   2.9280620
  83.9675510   5.3009040  13.9394920  83.8719110   4.3603770  13.7895320
  84.8107490   5.5224110  13.5442990  87.3638930   3.0450370   3.9028580
  87.7568500   3.3622570   3.0897270  87.7255780   2.1662250   4.0173100
  87.9494070   5.6356120   7.9979360  87.2175190   6.1442930   8.3469460
  87.5518410   4.8186100   7.6968140  84.3871460   2.3110320   6.4031850
  84.3907520   1.8700270   5.5536390  85.2822580   2.6327650   6.5103670
  80.2373840   2.1936810   5.3626060  79.8973890   2.6712040   6.1193110
  79.4751160   1.7401930   5.0027160  78.5382290   9.5235560  12.6688640
  78.1537080   8.8829230  13.2671600  78.8494480  10.2271680  13.2383370
  84.6879430   6.3712100   8.1497260  85.0549560   5.8970670   8.8958600
  84.4984490   7.2453670   8.4905600  82.4778800   5.4120740  10.4681470
  82.1735870   6.2912720  10.6931830  83.4325260   5.4720530  10.5038910
  91.7648570   8.6147090   6.8574710  92.4847690   9.1102380   6.4670820
  91.5630390   7.9364980   6.2128580  87.1467370   8.6856150  12.7443710
  87.0804680   7.7651820  12.4901300  86.5172510   8.7831590  13.4588350
  81.0497990   9.2862110   4.7027130  81.5676660   8.4830370   4.6484020
  80.5982010   9.2241250   5.5443960  78.5342530   6.2523480  11.6152830
  78.1757470   6.9177330  12.2026170  78.2397090   5.4207030  11.9865450
  81.7355650   6.7107720  14.4992380  81.4355790   6.8564900  13.6020200
  82.5066890   6.1513010  14.4065770  87.0784100  11.5076720  12.4947510
  87.0928640  10.5757680  12.2766420  86.3709200  11.5936480  13.1337280
  93.2895310   8.1484060  11.8416090  92.5643500   8.7412840  11.6445480
  93.8170770   8.1407600  11.0429460  88.8194900   9.8744230   5.3399940
  89.1718720   9.2772360   4.6801310  87.9357230   9.5488460   5.5108190
  84.9058180  10.6341920   2.7470350  85.5929310  11.1811130   3.1277940
  84.1190600  11.1782650   2.7819960  84.2085390   7.6387950   2.3595710
  84.6648170   8.4493200   2.5855900  83.8573600   7.3211090   3.1914200
  86.5118000  13.1494290   9.5888010  87.1560220  13.3553670  10.2661430
  86.8747440  12.3882690   9.1358860  87.7850080  11.1526640   8.3065460
  88.4272310  10.4519800   8.4197630  88.3099430  11.9325080   8.1262350
  89.5587700  11.9521540  11.5101520  89.8943940  12.5388230  12.1879440
  88.6388040  11.8214250  11.7399310  77.3963690  13.7296980  13.2791460
  77.5054810  12.7891720  13.1386850  76.7444250  13.9951730  12.6305190
  85.3876280  12.0012870  14.6789580  85.0673150  11.2822110  15.2235270
  84.7134640  12.6767940  14.7525640  83.9375940   3.4681920   2.2671820
  83.2292090   3.9368260   2.7085430  84.2220420   2.8103930   2.9017010
  85.5631870   4.8878620  10.2664350  86.0617120   5.3624440  10.9316200
  85.7054820   3.9642140  10.4734380  85.0568160  15.4287880   2.9795590
  85.3109660  15.3909270   2.0574960  84.1080640  15.3021210   2.9723840
  91.0620740   6.3479760   4.5554100  90.1210880   6.3629990   4.7301790
  91.3764810   5.5615720   5.0014400  93.0646320  13.5188610   6.2308360
  93.1893740  14.3419780   6.7032170  93.9311880  13.3079340   5.8832510
  80.5363850  15.6119820   5.9025490  81.2726330  15.0635280   6.1734060
  80.9204770  16.4775830   5.7631480  77.4209330  11.6793390   1.7767000
  76.4949110  11.9214530   1.7672410  77.8865760  12.5067650   1.6551750
  79.5422130  14.7965890  15.0911070  80.3434860  15.1177940  15.5046470
  79.0273950  14.4361470  15.8130980  88.3786760  10.9045760  15.0386480
  87.7724920  10.9277360  14.2982230  88.0740870  10.1728800  15.5753730
  89.8087130  14.6326050  13.6495890  90.7608880  14.5484070  13.5996130
  89.6615350  15.2967760  14.3229680  77.2619940   7.2839350  14.0347120
  77.7658960   6.7046630  14.6063350  76.5227360   7.5679580  14.5723490
  84.3157880   8.6910340  13.5682640  83.5503550   9.2595340  13.4837310
  84.4973840   8.3986550  12.6750870  91.4581230  10.4215670  14.1257660
  92.1990700  10.7591430  13.6225120  90.6953910  10.5907730  13.5727430
  79.2943020   5.4268940  14.9297190  79.3348360   5.1282810  15.8382420
  80.1488520   5.8276550  14.7704710  81.2348830   4.0061040  12.8971680
  80.7045290   3.5151990  12.2695020  81.9036900   4.4345240  12.3629610
  90.1326890   8.4730500  12.6612870  90.5467910   8.6275580  13.5103290
  89.1977890   8.5985720  12.8238650  90.6049060   5.8126660  14.6652020
  91.1869830   5.0578980  14.5772500  90.7810830   6.3434100  13.8883500
  84.8942120   8.4250980  10.6308800  85.3130230   9.2683710  10.4585040
  83.9750750   8.5623020  10.4015580  87.2306020   6.1567160  12.0146640
  87.3502230   5.5608300  12.7541480  88.0900020   6.1936850  11.5947940
  89.5693920   6.7104350  10.5909150  89.0429140   7.2346970   9.9874290
  89.9125260   7.3431740  11.2218880  82.7449540  14.7303990  11.7466530
  82.2070630  15.4550050  11.4275230  82.9983500  14.2534330  10.9563870
  83.9974790   2.6988510  13.2722460  84.5874480   2.3904360  13.9600280
  83.1795030   2.2268260  13.4282360  88.8168220   2.3154320  13.5055480
  88.1283740   1.6535860  13.4405470  89.5374240   1.8692590  13.9503940
  85.6011750  15.9655200  12.0053180  85.5270450  16.8690340  12.3125550
  84.6990590  15.6467100  11.9775250  77.0039040  13.2929790   5.3086800
  77.3342050  12.4250850   5.0765440  77.4330040  13.4988310   6.1391760
  81.6000960  11.6238800   2.9688770  81.2996500  11.5003770   3.8692680
  81.4938450  10.7647390   2.5604500  77.4929250  14.1600380   8.0468430
  77.0560240  14.3401180   8.8792580  78.0606930  14.9175000   7.9050150
  93.1291430  13.6617380  12.3345740  92.5293420  13.7209940  11.5909660
  93.2585330  12.7222360  12.4642590  77.3253680   6.6720610   4.4057310
  76.6702520   6.4032250   3.7617010  78.1631630   6.5625090   3.9559290
  94.8309310   9.0032780   5.0191580  95.2018140   8.2200100   4.6127550
  95.4711240   9.6921880   4.8408880  91.8143070  10.3869360  10.4321900
  91.0002910  10.8166520  10.6947690  92.2217270  10.9987770   9.8190950
  93.7733850   6.3786040   2.3251600  93.3977450   5.6113970   1.8932890
  93.0436970   6.7608740   2.8126530  78.3629610   7.0573180   8.9460650
  78.7302650   6.9700580   9.8256670  77.7940430   6.2939730   8.8467510
  93.1633470   5.5257560  11.9591120  92.9319560   5.2970310  11.0589070
  93.4238020   6.4457110  11.9136010  77.9145610   3.9682270  12.8519070
  77.0201660   3.9349030  13.1912780  78.4543160   4.1669060  13.6170320
  93.0484810   4.6043530   5.6258840  93.5722290   4.1106180   4.9949010
  93.6344230   4.7393890   6.3706410  93.2274530   4.6883400   9.1478390
  92.2777240   4.6546940   9.2623380  93.4087540   5.5983510   8.9128160
  93.9671940   2.4977830   4.0988930  93.8571220   2.3433870   5.0371200
  94.7279530   1.9698770   3.8564340  91.8719120  15.1387960   3.9590170
  92.4678190  14.8172530   3.2824590  92.1297270  14.6659780   4.7503440
  79.7781690  11.5705870  14.1080800  79.7351320  11.1998780  14.9895260
  79.9092700  12.5083440  14.2482620  83.4787720  13.1265460   9.7090520
  83.2379080  13.3940020   8.8221040  84.4190360  13.2971190   9.7641380
  94.7391880  15.1459840  10.5101160  94.2450160  15.5428710   9.7928290
  94.1305170  14.5209050  10.9038440  79.6169720  14.5168120  11.2278580
  79.0230040  14.3852820  11.9668620  79.6093560  13.6806260  10.7620680
  92.4231330  15.7883260   7.7887900  91.9634300  16.5399070   7.4145920
  91.7943790  15.0689730   7.7302700  79.2481950  11.8826500  10.1786620
  78.5216010  11.2631790  10.1112570  79.3091100  12.2767110   9.3084700
  82.8527050  14.0971500   6.9636030  83.3692070  13.4858860   6.4384290
  83.5024430  14.6000280   7.4547040  85.5922550  14.9879990   7.7905010
  85.8800360  14.7334290   6.9138020  86.1045770  14.4357350   8.3810580
  77.5311950  15.2000890   3.3883380  77.3633990  14.5671570   4.0865270
  76.6646460  15.4060290   3.0377570  85.6594910  15.9096090  15.1573210
  86.5862220  15.6740360  15.2009170  85.6445340  16.7368090  14.6759240
  92.2272470  15.1365950  14.9814250  93.0197790  14.6415180  14.7740210
  92.5205620  15.8156090  15.5889860  69.5788640  81.1060850  79.7347750
  69.4982690  80.1915460  79.4639460  69.1653060  81.6027920  79.0287460
  67.7106680  82.8839870  81.6157020  66.9348780  82.4040310  81.9055590
  68.3619610  82.2045520  81.4413180  61.7272510  83.1959680  82.4932780
  60.8957390  82.9408390  82.8929290  62.3353490  83.2670450  83.2290700
  60.1364460  78.1561570  76.2775170  59.2481160  78.4977540  76.1755050
  60.4205650  77.9561890  75.3856000  58.0997470  80.7567220  82.1614870
  58.6713580  79.9889420  82.1618510  58.0999010  81.0555980  81.2521480
  67.1515670  85.5597060  81.6227180  67.0823950  84.6187000  81.4616310
  67.9135530  85.6498470  82.1949750  59.3422340  76.1651580  83.9483800
  59.1625180  75.2677330  84.2286560  58.9402420  76.7123450  84.6230750
  68.1820840  78.3667440  81.8496110  68.5585660  77.4939320  81.7369780
  68.0840350  78.7026140  80.9586550  62.3125850  76.7393070  77.3113550
  62.4192600  77.6396800  77.6182310  61.4018210  76.6911040  77.0208200
  71.9644960  75.8617880  78.7824450  72.7854580  75.3714450  78.8249930
  71.9979040  76.4515540  79.5356290  59.9609010  78.6612080  82.5566140
  60.6419120  78.9250450  83.1753540  59.6457060  77.8212950  82.8904150
  64.1533580  79.7079440  81.6438730  64.6611800  80.2060410  82.2843750
  64.6846820  78.9314640  81.4678090  76.2544510  77.8784630  85.3468080
  75.5496680  78.2666340  84.8283190  76.5202430  78.5734920  85.9489010
  62.4369680  74.3478000  85.9102150  62.4388120  74.8650390  85.1048050
  61.6073990  73.8708180  85.8872080  68.8240770  84.4597310  77.4092050
  68.2058040  84.9246760  76.8454770  69.3364020  85.1524790  77.8261560
  63.6872530  83.9873180  84.0875650  63.3541910  84.6142100  84.7296720
  63.8639210  84.5135060  83.3077320  72.2006440  77.8018260  81.5551990
  71.4962010  78.0903150  82.1355100  72.5618600  78.6118370  81.1951550
  62.1185010  76.0587960  83.9172600  62.4601820  76.9030010  83.6226470
  61.1800820  76.2071700  84.0337940  62.8991630  85.9553980  85.9024830
  63.5165630  86.6305060  85.6209280  62.0384750  86.3641960  85.8112330
  58.1923970  85.1453840  74.7831680  57.8151950  85.6340940  74.0516580
  58.4497040  85.8179120  75.4138210  75.2693360  77.2473050  81.9461200
  74.3218270  77.2812030  82.0776630  75.5943350  78.0612000  82.3310560
  65.8012900  73.5470230  80.2417190  66.1087880  72.9917120  79.5252690
  64.8713600  73.6814690  80.0590180  72.6473380  85.9853740  77.6214820
  72.5369710  85.0428070  77.7464240  72.6441630  86.3469380  78.5077580
  70.7513400  84.1667360  83.8607260  71.1682190  83.9527470  83.0260720
  71.4753220  84.4240150  84.4315880  68.1893660  81.6119060  76.9777310
  67.2622940  81.5456440  77.2065780  68.3418480  82.5499190  76.8632550
  68.1762740  77.8836060  73.9744470  67.2366410  78.0450020  74.0596930
  68.4946000  78.6021740  73.4280460  74.6975500  82.5654580  83.9523500
  73.8694130  82.6347670  83.4773630  75.2925980  83.1508890  83.4839330
  72.2190950  83.1739360  77.4812560  71.6003370  82.8358910  76.8338860
  72.2015400  82.5299120  78.1891750  71.6617510  79.3523900  84.8978370
  71.2488690  80.1777610  85.1518360  70.9293460  78.7668940  84.7054730
  63.7950300  82.1383800  79.7597040  63.3907300  81.4261050  79.2642940
  63.8813420  81.7937040  80.6485080  64.2632000  85.8251360  81.9236250
  63.9660290  85.2196830  81.2444030  65.2131820  85.8628670  81.8125610
  62.5078920  78.9127010  83.5396080  63.0593510  79.0222350  82.7649330
  63.0222430  79.2864610  84.2551310  70.3955650  82.4126170  74.4885310
  70.8348930  81.5748600  74.3423130  71.1084070  83.0455570  74.5749450
  73.9772790  73.6668980  72.8026350  73.6645450  73.7595810  73.7025420
  74.7385260  74.2450010  72.7523780  60.4954930  81.0328780  77.2603690
  60.3752530  81.7590870  76.6484960  60.1855820  80.2631690  76.7831600
  58.1340300  84.2043920  83.0672330  58.2120720  84.3392690  82.1228050
  58.7481980  83.4959810  83.2600450  59.3787930  85.9044110  79.4778510
  58.9716010  86.0458700  78.6232110  60.2700940  85.6204270  79.2749720
  62.9618590  74.3763850  80.6427360  62.5186740  75.1573390  80.3111880
  63.5203580  74.6993740  81.3498300  66.0777410  73.9974550  75.5233190
  65.4531590  73.9934420  76.2486500  65.9907530  73.1305510  75.1269160
  64.9994490  74.9211180  82.5016960  65.2966820  75.8274010  82.4208980
  65.5480050  74.4329960  81.8876530  62.7532810  79.4997420  78.3708610
  62.5273730  79.2834590  79.2755230  61.9725340  79.9325880  78.0254580
  69.9830570  79.5060790  76.9699260  69.3839460  80.2296590  76.7862880
  70.5310180  79.4437570  76.1875710  68.5895440  78.1424330  79.0002540
  68.9825010  78.4596530  78.1871230  68.9512290  77.2636210  79.1147060
  57.6259610  74.7325130  81.2232740  57.3372660  75.3027990  81.9357720
  58.3705370  74.2529580  81.5863970  57.8129840  78.6745250  72.4335460
  57.7304510  79.6176010  72.5750450  57.4612900  78.5320160  71.5547810
  69.1750580  80.7330080  83.0953320  68.4431700  81.2416890  83.4443420
  68.7774920  79.9160060  82.7942100  65.6127970  77.4084280  81.5005810
  65.6164030  76.9674230  80.6510350  66.5079090  77.7301610  81.6077630
  61.4630350  77.2910770  80.4600020  61.1230400  77.7686000  81.2167070
  60.7007670  76.8375890  80.1001120  65.6748120  78.4096360  74.4912570
  65.7960940  78.3682840  75.4398390  65.2896630  79.2720510  74.3359300
  69.6376490  76.1863760  82.5076260  69.6549230  76.6372410  83.3518110
  69.3892070  75.2869400  82.7209700  64.6869620  80.7197500  73.8895870
  64.1186520  80.2715750  73.2631780  65.3958620  81.0790280  73.3561020
  65.9135940  81.4686060  83.2471220  66.2806070  80.9944630  83.9932560
  65.7241000  82.3427630  83.5879560  58.7776430  76.2129750  79.3764690
  58.4923350  75.8485420  80.2143310  58.7155290  75.4810210  78.7627830
  63.7035310  80.5094700  85.5655430  63.3992380  81.3886680  85.7905790
  64.6581770  80.5694490  85.6012870  62.2317100  84.7155690  76.1622280
  61.4579360  84.1753310  76.0021000  62.9611730  84.1962300  75.8240040
  72.9905080  83.7121050  81.9548670  73.7104200  84.2076340  81.5644780
  72.7886900  83.0338940  81.3102540  68.4515020  75.1059010  76.0978060
  67.6379630  74.6072180  76.0223370  68.2576970  75.9457260  75.6814410
  71.1663410  79.4778660  74.3940220  72.0543030  79.7895890  74.2191560
  71.1368500  78.6050910  74.0020800  62.2754500  84.3836070  79.8001090
  62.7933170  83.5804330  79.7457980  61.8238520  84.3215210  80.6417920
  67.1624000  85.6502350  75.0728390  67.5039700  86.3944580  74.5771710
  66.3336710  85.9633470  75.4353220  73.4377680  80.7890500  73.8620080
  73.3541400  81.2204720  73.0116520  74.1571870  81.2488850  74.2946900
  70.0451410  84.9718190  80.4373900  70.3975230  84.3746320  79.7775270
  69.1613740  84.6462420  80.6082150  66.1314690  85.7315880  77.8444310
  66.8185820  86.2785090  78.2251900  65.3447110  86.2756610  77.8793920
  58.2707090  81.3488700  73.3361390  59.1401940  81.6313500  73.6197310
  57.7797410  82.1624570  73.2210200  65.4341900  82.7361910  77.4569670
  65.8904680  83.5467160  77.6829860  65.0830110  82.4185050  78.2888160
  61.3353680  73.0799560  77.9292190  61.2068310  73.0717460  78.8777110
  60.5115700  73.4182650  77.5783200  69.0106590  86.2500600  83.4039420
  69.6528820  85.5493760  83.5171590  69.5355940  87.0299040  83.2236310
  72.8562310  86.5349220  73.1278560  72.6299890  85.8179660  73.7203200
  72.4658510  86.2861660  72.2900310  72.4378560  84.4521160  74.7892720
  72.1500260  84.9133850  75.5770600  73.2330730  83.9918930  75.0576940
  60.2553600  83.1662170  75.4643450  59.6481550  83.9061070  75.4738750
  60.7302950  83.2561530  74.6381650  69.8286390  77.3312990  85.1400340
  70.1967210  76.5108200  85.4679910  68.9684590  77.3914880  85.5555990
  73.1948420  76.2869930  75.9487900  72.5661580  76.3915600  75.2346130
  72.7000340  76.5066710  76.7381780  65.1632450  78.5655880  77.3645780
  64.4548600  79.0342220  77.8059390  65.4476930  77.9077890  77.9990970
  69.1947880  75.2906540  78.8041570  69.0715660  75.3092670  77.8551080
  70.1432440  75.3385480  78.9239970  63.3667470  76.8740960  74.7396490
  64.2158000  77.3111110  74.6736680  62.9998740  77.1861220  75.5668550
  72.2877250  81.4453720  79.6528060  71.3467390  81.4603950  79.8275750
  72.6021320  80.6589680  80.0988360  62.2658890  83.1273320  73.2132020
  63.0322160  83.0154680  73.7757450  62.3433580  82.4311290  72.5608790
  60.9605650  80.5598390  73.8964910  61.0409240  79.6125900  74.0082310
  61.8525400  80.8905270  74.0025570  65.3900070  85.1027500  72.6867370
  65.2850710  84.4879850  73.4128750  65.2224290  84.5793390  71.9030380
  68.6302800  84.1647530  73.2909360  68.0812900  84.6116830  73.9352100
  69.2522060  83.6596780  73.8147030  64.2977920  83.1238450  75.1874660
  64.7194340  82.9578320  76.0306050  64.4228760  82.3138680  74.6929800
  66.8105560  82.1476060  72.4351760  67.3311220  81.4325080  72.0692910
  67.4573960  82.7861930  72.7352270  65.7139080  74.6270610  85.1070320
  65.2656380  74.6494870  84.2615870  65.0804280  74.2289630  85.7040620
  66.1198630  83.5224940  85.7282760  66.5386740  84.3657670  85.5559000
  65.2007260  83.6596980  85.4989540  63.1936820  79.1971680  72.1332820
  62.9925880  78.3339040  72.4946160  63.0228870  79.1105040  71.1954420
  70.6725130  74.0079910  74.6619700  70.9527420  73.1647810  75.0179120
  69.8990860  74.2403020  75.1758450  61.9919620  76.2972300  72.1210700
  62.2945520  76.3039730  71.2129850  62.7314210  75.9470160  72.6178360
  65.2104550  75.2406920  73.1066900  64.8626550  74.5630910  72.5269350
  65.4117320  74.7796430  73.9210290  61.0149750  85.6014720  72.9540500
  61.4524620  86.1444390  73.6098080  61.4997480  84.7761670  72.9636840
  62.8257470  86.7212760  78.0662730  62.5253010  86.5977730  78.9666640
  62.7194960  85.8621350  77.6578460  75.0505850  83.2456640  75.2723610
  75.8124760  83.8153290  75.3783300  75.0660220  82.6783840  76.0431920
  58.5510190  81.7694570  79.5031270  57.8959030  81.5006210  78.8590970
  59.3888140  81.6599050  79.0533250  76.0565820  84.1006740  80.1165540
  76.4274650  83.3174060  79.7101510  76.6967750  84.7895840  79.9382840
  73.0399580  85.4843320  85.5295860  72.2259420  85.9140480  85.7921650
  73.4473780  86.0961730  84.9164910  75.1025020  83.5391010  72.4296130
  75.3773860  84.4469890  72.3015350  74.9135760  83.4753540  73.3658120
  71.5000630  76.5635860  73.7249760  71.9185510  76.3766840  72.8846420
  71.1936690  75.7114910  74.0352690  74.9990360  81.4760000  77.4225560
  74.6233960  80.7087930  76.9906850  74.2693480  81.8582700  77.9100490
  59.5886120  82.1547140  84.0434610  59.9559160  82.0674540  84.9230630
  59.0196940  81.3913690  83.9441470  57.7648270  78.9793500  75.4456600
  56.8612350  79.2423700  75.2708260  58.2488890  79.2504670  74.6656560
  74.2741320  79.7017490  80.7232800  74.7978800  79.2080140  80.0922970
  74.8600740  79.8367850  81.4680370  74.4531040  79.7857360  84.2452350
  73.5033750  79.7520900  84.3597340  74.6344050  80.6957470  84.0102120
  60.3075480  78.0359040  73.3550980  61.0167180  77.6142260  72.8698260
  59.5915420  78.1034270  72.7234330  59.9549640  74.0898370  72.3953630
  60.6777770  74.6307310  72.7134850  60.2274160  73.8161790  71.5195170
  73.7641290  78.9590840  76.6625210  74.2600410  78.7261710  77.4474090
  73.5657360  78.1202680  76.2462850  59.6441830  73.3404560  82.2976250
  60.2918020  72.7901940  81.8571410  60.0643670  73.5947710  83.1192060
  75.1928450  77.5951790  79.1962890  75.0827730  77.4407830  80.1345160
  75.9536040  77.0672730  78.9538300  76.0818720  75.4259710  72.4369030
  77.0068030  75.2940890  72.2287320  76.0594510  75.5052530  73.3905480
  76.1557210  76.1970370  75.0625740  75.3608710  76.1315490  75.5918650
  76.3600490  77.1321010  75.0511090  59.3973830  73.4960230  85.0401570
  59.0488650  73.9524050  85.8059750  59.0661530  72.6017360  85.1224000
  70.2881250  72.9074310  84.5282570  69.4141090  73.2409420  84.3255500
  70.1792000  72.4347490  85.3534440  71.1953230  75.1145180  85.9124290
  70.8666590  74.2996940  85.5326020  72.1435530  75.0714990  85.7889980
  68.0356070  73.8244150  83.4675480  67.2527860  74.2989650  83.7472240
  67.7419000  72.9198980  83.3588660  72.5877140  74.5267250  81.5124570
  73.0285230  74.4712350  80.6646170  72.3184730  75.4425260  81.5834750
  74.4515710  74.1582490  79.5233390  74.3904110  73.2143710  79.3764410
  75.2307740  74.2662580  80.0686850  59.3796480  74.1291630  75.9889200
  60.1375840  74.2420510  75.4153230  58.9173650  74.9660830  75.9432630
  65.9210290  76.2430900  78.9791510  65.1084800  75.8687790  78.6387390
  66.4251930  75.4875980  79.2812700  70.4235270  72.9073350  80.2174580
  71.0264640  73.4793560  80.6923100  69.6828260  73.4712790  79.9948480
  73.5669870  73.3094910  75.4914860  73.7620500  74.2078360  75.7582290
  72.7799740  73.0781990  75.9847810  61.7521630  74.6555680  74.5291170
  62.2814390  73.8685480  74.3999120  62.3849950  75.3346870  74.7626700
  63.9459470  74.3930820  77.5836560  63.3162210  73.6918130  77.7506690
  63.4064610  75.1534950  77.3669720  69.5788640  81.1060850  60.9604260
  69.4982690  80.1915460  60.6895970  69.1653060  81.6027920  60.2543970
  67.7106680  82.8839870  62.8413530  66.9348780  82.4040310  63.1312100
  68.3619610  82.2045520  62.6669690  61.7272510  83.1959680  63.7189290
  60.8957390  82.9408390  64.1185800  62.3353490  83.2670450  64.4547210
  60.1364460  78.1561570  57.5031680  59.2481160  78.4977540  57.4011560
  60.4205650  77.9561890  56.6112510  58.0997470  80.7567220  63.3871380
  58.6713580  79.9889420  63.3875020  58.0999010  81.0555980  62.4777990
  67.1515670  85.5597060  62.8483690  67.0823950  84.6187000  62.6872820
  67.9135530  85.6498470  63.4206260  59.3422340  76.1651580  65.1740310
  59.1625180  75.2677330  65.4543070  58.9402420  76.7123450  65.8487260
  68.1820840  78.3667440  63.0752620  68.5585660  77.4939320  62.9626290
  68.0840350  78.7026140  62.1843060  62.3125850  76.7393070  58.5370060
  62.4192600  77.6396800  58.8438820  61.4018210  76.6911040  58.2464710
  71.9644960  75.8617880  60.0080960  72.7854580  75.3714450  60.0506440
  71.9979040  76.4515540  60.7612800  59.9609010  78.6612080  63.7822650
  60.6419120  78.9250450  64.4010050  59.6457060  77.8212950  64.1160660
  64.1533580  79.7079440  62.8695240  64.6611800  80.2060410  63.5100260
  64.6846820  78.9314640  62.6934600  76.2544510  77.8784630  66.5724590
  75.5496680  78.2666340  66.0539700  76.5202430  78.5734920  67.1745520
  62.4369680  74.3478000  67.1358660  62.4388120  74.8650390  66.3304560
  61.6073990  73.8708180  67.1128590  68.8240770  84.4597310  58.6348560
  68.2058040  84.9246760  58.0711280  69.3364020  85.1524790  59.0518070
  63.6872530  83.9873180  65.3132160  63.3541910  84.6142100  65.9553230
  63.8639210  84.5135060  64.5333830  72.2006440  77.8018260  62.7808500
  71.4962010  78.0903150  63.3611610  72.5618600  78.6118370  62.4208060
  62.1185010  76.0587960  65.1429110  62.4601820  76.9030010  64.8482980
  61.1800820  76.2071700  65.2594450  62.8991630  85.9553980  67.1281340
  63.5165630  86.6305060  66.8465790  62.0384750  86.3641960  67.0368840
  58.1923970  85.1453840  56.0088190  57.8151950  85.6340940  55.2773090
  58.4497040  85.8179120  56.6394720  75.2693360  77.2473050  63.1717710
  74.3218270  77.2812030  63.3033140  75.5943350  78.0612000  63.5567070
  65.8012900  73.5470230  61.4673700  66.1087880  72.9917120  60.7509200
  64.8713600  73.6814690  61.2846690  72.6473380  85.9853740  58.8471330
  72.5369710  85.0428070  58.9720750  72.6441630  86.3469380  59.7334090
  70.7513400  84.1667360  65.0863770  71.1682190  83.9527470  64.2517230
  71.4753220  84.4240150  65.6572390  68.1893660  81.6119060  58.2033820
  67.2622940  81.5456440  58.4322290  68.3418480  82.5499190  58.0889060
  68.1762740  77.8836060  55.2000980  67.2366410  78.0450020  55.2853440
  68.4946000  78.6021740  54.6536970  74.6975500  82.5654580  65.1780010
  73.8694130  82.6347670  64.7030140  75.2925980  83.1508890  64.7095840
  72.2190950  83.1739360  58.7069070  71.6003370  82.8358910  58.0595370
  72.2015400  82.5299120  59.4148260  71.6617510  79.3523900  66.1234880
  71.2488690  80.1777610  66.3774870  70.9293460  78.7668940  65.9311240
  63.7950300  82.1383800  60.9853550  63.3907300  81.4261050  60.4899450
  63.8813420  81.7937040  61.8741590  64.2632000  85.8251360  63.1492760
  63.9660290  85.2196830  62.4700540  65.2131820  85.8628670  63.0382120
  62.5078920  78.9127010  64.7652590  63.0593510  79.0222350  63.9905840
  63.0222430  79.2864610  65.4807820  63.3550430  85.5633050  69.8000560
  62.4578960  85.7873020  70.0473960  63.3803300  85.6867990  68.8511960
  70.3955650  82.4126170  55.7141820  70.8348930  81.5748600  55.5679640
  71.1084070  83.0455570  55.8005960  62.1821650  82.4346370  68.3757930
  62.0429420  83.3069170  68.7445330  61.3003010  82.0919180  68.2305870
  73.9772790  73.6668980  54.0282860  73.6645450  73.7595810  54.9281930
  74.7385260  74.2450010  53.9780290  60.4954930  81.0328780  58.4860200
  60.3752530  81.7590870  57.8741470  60.1855820  80.2631690  58.0088110
  58.1340300  84.2043920  64.2928840  58.2120720  84.3392690  63.3484560
  58.7481980  83.4959810  64.4856960  59.3787930  85.9044110  60.7035020
  58.9716010  86.0458700  59.8488620  60.2700940  85.6204270  60.5006230
  75.3350070  86.3508020  69.0407260  75.4613130  86.1119900  68.1224440
  75.3771450  85.5192560  69.5129340  75.1874080  78.4040480  70.0057000
  74.5718350  78.9120150  69.4772460  74.8670500  77.5038810  69.9482940
  58.1899820  85.2458090  66.8323300  58.3530860  84.7763450  66.0142670
  58.6552270  84.7381650  67.4972140  62.9618590  74.3763850  61.8683870
  62.5186740  75.1573390  61.5368390  63.5203580  74.6993740  62.5754810
  67.2488400  77.2432370  67.4719190  66.7867770  77.4515390  68.2839130
  66.8466510  76.4291720  67.1689860  72.2492910  78.4641320  68.6015850
  71.3986500  78.1647070  68.9224920  72.0894700  78.7083330  67.6899670
  69.3442620  79.9643070  70.7014640  69.6696030  79.1306820  70.3616870
  70.1322950  80.4871590  70.8492970  66.0777410  73.9974550  56.7489700
  65.4531590  73.9934420  57.4743010  65.9907530  73.1305510  56.3525670
  64.9994490  74.9211180  63.7273470  65.2966820  75.8274010  63.6465490
  65.5480050  74.4329960  63.1133040  62.7532810  79.4997420  59.5965120
  62.5273730  79.2834590  60.5011740  61.9725340  79.9325880  59.2511090
  69.9830570  79.5060790  58.1955770  69.3839460  80.2296590  58.0119390
  70.5310180  79.4437570  57.4132220  65.1932020  80.3983000  70.2625390
  65.0975620  79.4577730  70.1125790  66.0364000  80.6198070  69.8673460
  68.5895440  78.1424330  60.2259050  68.9825010  78.4596530  59.4127740
  68.9512290  77.2636210  60.3403570  60.3242560  76.8096670  68.4159170
  59.9305950  77.6571880  68.6231950  59.6360960  76.1723040  68.6067810
  66.8987610  76.8931640  71.4855910  66.2085930  76.7003840  72.1202000
  67.6419910  77.1766280  72.0180210  57.6259610  74.7325130  62.4489250
  57.3372660  75.3027990  63.1614230  58.3705370  74.2529580  62.8120480
  57.8129840  78.6745250  53.6591970  57.7304510  79.6176010  53.8006960
  57.4612900  78.5320160  52.7804320  69.1750580  80.7330080  64.3209830
  68.4431700  81.2416890  64.6699930  68.7774920  79.9160060  64.0198610
  65.6127970  77.4084280  62.7262320  65.6164030  76.9674230  61.8766860
  66.5079090  77.7301610  62.8334140  61.4630350  77.2910770  61.6856530
  61.1230400  77.7686000  62.4423580  60.7007670  76.8375890  61.3257630
  65.6748120  78.4096360  55.7169080  65.7960940  78.3682840  56.6654900
  65.2896630  79.2720510  55.5615810  69.6376490  76.1863760  63.7332770
  69.6549230  76.6372410  64.5774620  69.3892070  75.2869400  63.9466210
  64.6869620  80.7197500  55.1152380  64.1186520  80.2715750  54.4888290
  65.3958620  81.0790280  54.5817530  73.0647240  73.5995940  69.5719150
  73.3893010  72.8685600  70.0977130  73.1003750  73.2809580  68.6700140
  59.7638800  84.6209520  68.9919110  59.3793590  83.9803190  69.5902070
  60.0750990  85.3245640  69.5613840  65.9135940  81.4686060  64.4727730
  66.2806070  80.9944630  65.2189070  65.7241000  82.3427630  64.8136070
  58.7776430  76.2129750  60.6021200  58.4923350  75.8485420  61.4399820
  58.7155290  75.4810210  59.9884340  63.7035310  80.5094700  66.7911940
  63.3992380  81.3886680  67.0162300  64.6581770  80.5694490  66.8269380
  62.2317100  84.7155690  57.3878790  61.4579360  84.1753310  57.2277510
  62.9611730  84.1962300  57.0496550  72.9905080  83.7121050  63.1805180
  73.7104200  84.2076340  62.7901290  72.7886900  83.0338940  62.5359050
  68.4515020  75.1059010  57.3234570  67.6379630  74.6072180  57.2479880
  68.2576970  75.9457260  56.9070920  68.3723880  83.7830110  69.0674180
  68.3061190  82.8625780  68.8131770  67.7429020  83.8805550  69.7818820
  71.1663410  79.4778660  55.6196730  72.0543030  79.7895890  55.4448070
  71.1368500  78.6050910  55.2277310  62.2754500  84.3836070  61.0257600
  62.7933170  83.5804330  60.9714490  61.8238520  84.3215210  61.8674430
  67.1624000  85.6502350  56.2984900  67.5039700  86.3944580  55.8028220
  66.3336710  85.9633470  56.6609730  59.7599040  81.3497440  67.9383300
  59.4013980  82.0151290  68.5256640  59.4653600  80.5180990  68.3095920
  62.9612160  81.8081680  70.8222850  62.6612300  81.9538860  69.9250670
  63.7323400  81.2486970  70.7296240  68.3040610  86.6050680  68.8177980
  68.3185150  85.6731640  68.5996890  67.5965710  86.6910440  69.4567750
  73.4377680  80.7890500  55.0876590  73.3541400  81.2204720  54.2373030
  74.1571870  81.2488850  55.5203410  74.5151820  83.2458020  68.1646560
  73.7900010  83.8386800  67.9675950  75.0427280  83.2381560  67.3659930
  70.0451410  84.9718190  61.6630410  70.3975230  84.3746320  61.0031780
  69.1613740  84.6462420  61.8338660  66.1314690  85.7315880  59.0700820
  66.8185820  86.2785090  59.4508410  65.3447110  86.2756610  59.1050430
  58.2707090  81.3488700  54.5617900  59.1401940  81.6313500  54.8453820
  57.7797410  82.1624570  54.4466710  65.4341900  82.7361910  58.6826180
  65.8904680  83.5467160  58.9086370  65.0830110  82.4185050  59.5144670
  61.3353680  73.0799560  59.1548700  61.2068310  73.0717460  60.1033620
  60.5115700  73.4182650  58.8039710  69.0106590  86.2500600  64.6295930
  69.6528820  85.5493760  64.7428100  69.5355940  87.0299040  64.4492820
  72.8562310  86.5349220  54.3535070  72.6299890  85.8179660  54.9459710
  72.4658510  86.2861660  53.5156820  58.3347610  74.8390680  68.6155400
  57.6206130  75.0387600  69.2208010  58.7542650  74.0630250  68.9870200
  72.4378560  84.4521160  56.0149230  72.1500260  84.9133850  56.8027110
  73.2330730  83.9918930  56.2833450  60.2553600  83.1662170  56.6899960
  59.6481550  83.9061070  56.6995260  60.7302950  83.2561530  55.8638160
  69.8286390  77.3312990  66.3656850  70.1967210  76.5108200  66.6936420
  68.9684590  77.3914880  66.7812500  73.1948420  76.2869930  57.1744410
  72.5661580  76.3915600  56.4602640  72.7000340  76.5066710  57.9638290
  65.1632450  78.5655880  58.5902290  64.4548600  79.0342220  59.0315900
  65.4476930  77.9077890  59.2247480  66.7888380  79.9852580  66.5894820
  67.2873630  80.4598400  67.2546670  66.9311330  79.0616100  66.7964850
  69.1947880  75.2906540  60.0298080  69.0715660  75.3092670  59.0807590
  70.1432440  75.3385480  60.1496480  63.3667470  76.8740960  55.9653000
  64.2158000  77.3111110  55.8993190  62.9998740  77.1861220  56.7925060
  73.9955240  76.2020540  67.4323210  73.4928840  76.9425940  67.7717020
  74.8111900  76.5904540  67.1160000  72.2877250  81.4453720  60.8784570
  71.3467390  81.4603950  61.0532260  72.6021320  80.6589680  61.3244870
  62.2658890  83.1273320  54.4388530  63.0322160  83.0154680  55.0013960
  62.3433580  82.4311290  53.7865300  60.9605650  80.5598390  55.1221420
  61.0409240  79.6125900  55.2338820  61.8525400  80.8905270  55.2282080
  69.6043270  86.0019720  71.3616950  68.9981430  86.0251320  70.6212700
  69.2997380  85.2702760  71.8984200  58.4876450  82.3813310  70.3577590
  58.9915470  81.8020590  70.9293820  57.7483870  82.6653540  70.8953960
  65.3900070  85.1027500  53.9123880  65.2850710  84.4879850  54.6385260
  65.2224290  84.5793390  53.1286890  65.5414390  83.7884300  69.8913110
  64.7760060  84.3569300  69.8067780  65.7230350  83.4960510  68.9981340
  68.6302800  84.1647530  54.5165870  68.0812900  84.6116830  55.1608610
  69.2522060  83.6596780  55.0403540  72.6837740  85.5189630  70.4488130
  73.4247210  85.8565390  69.9455590  71.9210420  85.6881690  69.8957900
  60.5199530  80.5242900  71.2527660  60.5604870  80.2256770  72.1612890
  61.3745030  80.9250510  71.0935180  64.2977920  83.1238450  56.4131170
  64.7194340  82.9578320  57.2562560  64.4228760  82.3138680  55.9186310
  62.4605340  79.1035000  69.2202150  61.9301800  78.6125950  68.5925490
  63.1293410  79.5319200  68.6860080  66.8105560  82.1476060  53.6608270
  67.3311220  81.4325080  53.2949420  67.4573960  82.7861930  53.9608780
  71.3583400  83.5704460  68.9843340  71.7724420  83.7249540  69.8333760
  70.4234400  83.6959680  69.1469120  71.8305570  80.9100620  70.9882490
  72.4126340  80.1552940  70.9002970  72.0067340  81.4408060  70.2113970
  62.9477640  76.0697370  69.2999440  62.8534510  75.4518120  68.5750310
  62.3675030  76.7963660  69.0729350  65.7139080  74.6270610  66.3326830
  65.2656380  74.6494870  65.4872380  65.0804280  74.2289630  66.9297130
  66.1198630  83.5224940  66.9539270  66.5386740  84.3657670  66.7815510
  65.2007260  83.6596980  66.7246050  68.4562530  81.2541120  68.3377110
  68.5758740  80.6582260  69.0771950  69.3156530  81.2910810  67.9178410
  70.7950430  81.8078310  66.9139620  70.2685650  82.3320930  66.3104760
  71.1381770  82.4405700  67.5449350  63.1936820  79.1971680  53.3589330
  62.9925880  78.3339040  53.7202670  63.0228870  79.1105040  52.4210930
  65.2231300  77.7962470  69.5952930  65.8130990  77.4878320  70.2830750
  64.4051540  77.3242220  69.7512830  70.0424730  77.4128280  69.8285950
  69.3540250  76.7509820  69.7635940  70.7630750  76.9666550  70.2734410
  70.6725130  74.0079910  55.8876210  70.9527420  73.1647810  56.2435630
  69.8990860  74.2403020  56.4014960  61.9919620  76.2972300  53.3467210
  62.2945520  76.3039730  52.4386360  62.7314210  75.9470160  53.8434870
  65.2104550  75.2406920  54.3323410  64.8626550  74.5630910  53.7525860
  65.4117320  74.7796430  55.1466800  61.0149750  85.6014720  54.1797010
  61.4524620  86.1444390  54.8354590  61.4997480  84.7761670  54.1893350
  62.8257470  86.7212760  59.2919240  62.5253010  86.5977730  60.1923150
  62.7194960  85.8621350  58.8834970  75.0505850  83.2456640  56.4980120
  75.8124760  83.8153290  56.6039810  75.0660220  82.6783840  57.2688430
  58.5510190  81.7694570  60.7287780  57.8959030  81.5006210  60.0847480
  59.3888140  81.6599050  60.2789760  76.0565820  84.1006740  61.3422050
  76.4274650  83.3174060  60.9358020  76.6967750  84.7895840  61.1639350
  73.0399580  85.4843320  66.7552370  72.2259420  85.9140480  67.0178160
  73.4473780  86.0961730  66.1421420  75.1025020  83.5391010  53.6552640
  75.3773860  84.4469890  53.5271860  74.9135760  83.4753540  54.5914630
  71.5000630  76.5635860  54.9506270  71.9185510  76.3766840  54.1102930
  71.1936690  75.7114910  55.2609200  74.9990360  81.4760000  58.6482070
  74.6233960  80.7087930  58.2163360  74.2693480  81.8582700  59.1357000
  59.5886120  82.1547140  65.2691120  59.9559160  82.0674540  66.1487140
  59.0196940  81.3913690  65.1697980  74.3889980  80.6231520  68.2821590
  74.1576070  80.3944270  67.3819540  74.6494530  81.5431070  68.2366480
  59.1402120  79.0656230  69.1749540  58.2458170  79.0322990  69.5143250
  59.6799670  79.2643020  69.9400790  72.8278050  75.8487950  71.0601290
  73.7048230  75.8571350  71.4435290  72.8398890  75.1118790  70.4493640
  57.7648270  78.9793500  56.6713110  56.8612350  79.2423700  56.4964770
  58.2488890  79.2504670  55.8913070  74.2741320  79.7017490  61.9489310
  74.7978800  79.2080140  61.3179480  74.8600740  79.8367850  62.6936880
  74.4531040  79.7857360  65.4708860  73.5033750  79.7520900  65.5853850
  74.6344050  80.6957470  65.2358630  60.3075480  78.0359040  54.5807490
  61.0167180  77.6142260  54.0954770  59.5915420  78.1034270  53.9490840
  59.9549640  74.0898370  53.6210140  60.6777770  74.6307310  53.9391360
  60.2274160  73.8161790  52.7451680  73.7641290  78.9590840  57.8881720
  74.2600410  78.7261710  58.6730600  73.5657360  78.1202680  57.4719360
  59.6441830  73.3404560  63.5232760  60.2918020  72.7901940  63.0827920
  60.0643670  73.5947710  64.3448570  75.1928450  77.5951790  60.4219400
  75.0827730  77.4407830  61.3601670  75.9536040  77.0672730  60.1794810
  73.5394170  73.5345920  66.8802400  74.1766390  74.1480060  67.2461590
  73.6869060  73.5706580  65.9351630  76.0818720  75.4259710  53.6625540
  77.0068030  75.2940890  53.4543830  76.0594510  75.5052530  54.6161990
  76.1557210  76.1970370  56.2882250  75.3608710  76.1315490  56.8175160
  76.3600490  77.1321010  56.2767600  59.3973830  73.4960230  66.2658080
  59.0488650  73.9524050  67.0316260  59.0661530  72.6017360  66.3480510
  66.9098650  74.6872110  69.7877500  66.8487540  75.2793940  70.5372910
  67.8499030  74.5798070  69.6427760  69.5473210  74.3442170  69.4269790
  70.1613620  74.6621460  68.7650870  70.0922770  73.8590760  70.0465650
  60.0694470  73.0236430  69.5408850  60.6177460  72.8424480  68.7774960
  60.1349780  72.2330540  70.0765160  70.2881250  72.9074310  65.7539080
  69.4141090  73.2409420  65.5512010  70.1792000  72.4347490  66.5790950
  71.1953230  75.1145180  67.1380800  70.8666590  74.2996940  66.7582530
  72.1435530  75.0714990  67.0146490  68.0356070  73.8244150  64.6931990
  67.2527860  74.2989650  64.9728750  67.7419000  72.9198980  64.5845170
  72.5877140  74.5267250  62.7381080  73.0285230  74.4712350  61.8902680
  72.3184730  75.4425260  62.8091260  74.4515710  74.1582490  60.7489900
  74.3904110  73.2143710  60.6020920  75.2307740  74.2662580  61.2943360
  59.3796480  74.1291630  57.2145710  60.1375840  74.2420510  56.6409740
  58.9173650  74.9660830  57.1689140  65.9210290  76.2430900  60.2048020
  65.1084800  75.8687790  59.8643900  66.4251930  75.4875980  60.5069210
  70.4235270  72.9073350  61.4431090  71.0264640  73.4793560  61.9179610
  69.6828260  73.4712790  61.2204990  73.5669870  73.3094910  56.7171370
  73.7620500  74.2078360  56.9838800  72.7799740  73.0781990  57.2104320
  61.7521630  74.6555680  55.7547680  62.2814390  73.8685480  55.6255630
  62.3849950  75.3346870  55.9883210  63.9459470  74.3930820  58.8093070
  63.3162210  73.6918130  58.9763200  63.4064610  75.1534950  58.5926230
  64.0715030  73.6714800  71.2445560  63.7899300  74.1748400  70.4806380
  64.4534730  72.8736550  70.8787690  70.6730490  73.0868380  71.8226030
  70.5595940  73.4062990  72.7177550  71.4900230  73.4880890  71.5263310
  69.5788640  81.1060850  42.1860770  69.4982690  80.1915460  41.9152480
  69.1653060  81.6027920  41.4800480  67.7106680  82.8839870  44.0670040
  66.9348780  82.4040310  44.3568610  68.3619610  82.2045520  43.8926200
  61.7272510  83.1959680  44.9445800  60.8957390  82.9408390  45.3442310
  62.3353490  83.2670450  45.6803720  60.1364460  78.1561570  38.7288190
  59.2481160  78.4977540  38.6268070  60.4205650  77.9561890  37.8369020
  58.0997470  80.7567220  44.6127890  58.6713580  79.9889420  44.6131530
  58.0999010  81.0555980  43.7034500  67.1515670  85.5597060  44.0740200
  67.0823950  84.6187000  43.9129330  67.9135530  85.6498470  44.6462770
  59.3422340  76.1651580  46.3996820  59.1625180  75.2677330  46.6799580
  58.9402420  76.7123450  47.0743770  68.1820840  78.3667440  44.3009130
  68.5585660  77.4939320  44.1882800  68.0840350  78.7026140  43.4099570
  62.3125850  76.7393070  39.7626570  62.4192600  77.6396800  40.0695330
  61.4018210  76.6911040  39.4721220  71.9644960  75.8617880  41.2337470
  72.7854580  75.3714450  41.2762950  71.9979040  76.4515540  41.9869310
  59.9609010  78.6612080  45.0079160  60.6419120  78.9250450  45.6266560
  59.6457060  77.8212950  45.3417170  64.1533580  79.7079440  44.0951750
  64.6611800  80.2060410  44.7356770  64.6846820  78.9314640  43.9191110
  76.2544510  77.8784630  47.7981100  75.5496680  78.2666340  47.2796210
  76.5202430  78.5734920  48.4002030  62.4369680  74.3478000  48.3615170
  62.4388120  74.8650390  47.5561070  61.6073990  73.8708180  48.3385100
  68.8240770  84.4597310  39.8605070  68.2058040  84.9246760  39.2967790
  69.3364020  85.1524790  40.2774580  63.6872530  83.9873180  46.5388670
  63.3541910  84.6142100  47.1809740  63.8639210  84.5135060  45.7590340
  72.2006440  77.8018260  44.0065010  71.4962010  78.0903150  44.5868120
  72.5618600  78.6118370  43.6464570  62.1185010  76.0587960  46.3685620
  62.4601820  76.9030010  46.0739490  61.1800820  76.2071700  46.4850960
  62.8991630  85.9553980  48.3537850  63.5165630  86.6305060  48.0722300
  62.0384750  86.3641960  48.2625350  58.1923970  85.1453840  37.2344700
  57.8151950  85.6340940  36.5029600  58.4497040  85.8179120  37.8651230
  75.2693360  77.2473050  44.3974220  74.3218270  77.2812030  44.5289650
  75.5943350  78.0612000  44.7823580  65.8012900  73.5470230  42.6930210
  66.1087880  72.9917120  41.9765710  64.8713600  73.6814690  42.5103200
  72.6473380  85.9853740  40.0727840  72.5369710  85.0428070  40.1977260
  72.6441630  86.3469380  40.9590600  70.7513400  84.1667360  46.3120280
  71.1682190  83.9527470  45.4773740  71.4753220  84.4240150  46.8828900
  68.1893660  81.6119060  39.4290330  67.2622940  81.5456440  39.6578800
  68.3418480  82.5499190  39.3145570  68.1762740  77.8836060  36.4257490
  67.2366410  78.0450020  36.5109950  68.4946000  78.6021740  35.8793480
  74.6975500  82.5654580  46.4036520  73.8694130  82.6347670  45.9286650
  75.2925980  83.1508890  45.9352350  72.2190950  83.1739360  39.9325580
  71.6003370  82.8358910  39.2851880  72.2015400  82.5299120  40.6404770
  71.6617510  79.3523900  47.3491390  71.2488690  80.1777610  47.6031380
  70.9293460  78.7668940  47.1567750  63.7950300  82.1383800  42.2110060
  63.3907300  81.4261050  41.7155960  63.8813420  81.7937040  43.0998100
  64.2632000  85.8251360  44.3749270  63.9660290  85.2196830  43.6957050
  65.2131820  85.8628670  44.2638630  62.5078920  78.9127010  45.9909100
  63.0593510  79.0222350  45.2162350  63.0222430  79.2864610  46.7064330
  63.3550430  85.5633050  51.0257070  62.4578960  85.7873020  51.2730470
  63.3803300  85.6867990  50.0768470  70.3955650  82.4126170  36.9398330
  70.8348930  81.5748600  36.7936150  71.1084070  83.0455570  37.0262470
  62.1821650  82.4346370  49.6014440  62.0429420  83.3069170  49.9701840
  61.3003010  82.0919180  49.4562380  73.9772790  73.6668980  35.2539370
  73.6645450  73.7595810  36.1538440  74.7385260  74.2450010  35.2036800
  60.4954930  81.0328780  39.7116710  60.3752530  81.7590870  39.0997980
  60.1855820  80.2631690  39.2344620  58.1340300  84.2043920  45.5185350
  58.2120720  84.3392690  44.5741070  58.7481980  83.4959810  45.7113470
  59.3787930  85.9044110  41.9291530  58.9716010  86.0458700  41.0745130
  60.2700940  85.6204270  41.7262740  75.3350070  86.3508020  50.2663770
  75.4613130  86.1119900  49.3480950  75.3771450  85.5192560  50.7385850
  75.1874080  78.4040480  51.2313510  74.5718350  78.9120150  50.7028970
  74.8670500  77.5038810  51.1739450  58.1899820  85.2458090  48.0579810
  58.3530860  84.7763450  47.2399180  58.6552270  84.7381650  48.7228650
  62.9618590  74.3763850  43.0940380  62.5186740  75.1573390  42.7624900
  63.5203580  74.6993740  43.8011320  67.2488400  77.2432370  48.6975700
  66.7867770  77.4515390  49.5095640  66.8466510  76.4291720  48.3946370
  72.2492910  78.4641320  49.8272360  71.3986500  78.1647070  50.1481430
  72.0894700  78.7083330  48.9156180  69.3442620  79.9643070  51.9271150
  69.6696030  79.1306820  51.5873380  70.1322950  80.4871590  52.0749480
  66.0777410  73.9974550  37.9746210  65.4531590  73.9934420  38.6999520
  65.9907530  73.1305510  37.5782180  64.9994490  74.9211180  44.9529980
  65.2966820  75.8274010  44.8722000  65.5480050  74.4329960  44.3389550
  62.7532810  79.4997420  40.8221630  62.5273730  79.2834590  41.7268250
  61.9725340  79.9325880  40.4767600  69.9830570  79.5060790  39.4212280
  69.3839460  80.2296590  39.2375900  70.5310180  79.4437570  38.6388730
  65.1932020  80.3983000  51.4881900  65.0975620  79.4577730  51.3382300
  66.0364000  80.6198070  51.0929970  68.5895440  78.1424330  41.4515560
  68.9825010  78.4596530  40.6384250  68.9512290  77.2636210  41.5660080
  60.3242560  76.8096670  49.6415680  59.9305950  77.6571880  49.8488460
  59.6360960  76.1723040  49.8324320  66.8987610  76.8931640  52.7112420
  66.2085930  76.7003840  53.3458510  67.6419910  77.1766280  53.2436720
  57.6259610  74.7325130  43.6745760  57.3372660  75.3027990  44.3870740
  58.3705370  74.2529580  44.0376990  57.8129840  78.6745250  34.8848480
  57.7304510  79.6176010  35.0263470  57.4612900  78.5320160  34.0060830
  69.1750580  80.7330080  45.5466340  68.4431700  81.2416890  45.8956440
  68.7774920  79.9160060  45.2455120  65.6127970  77.4084280  43.9518830
  65.6164030  76.9674230  43.1023370  66.5079090  77.7301610  44.0590650
  61.4630350  77.2910770  42.9113040  61.1230400  77.7686000  43.6680090
  60.7007670  76.8375890  42.5514140  65.6748120  78.4096360  36.9425590
  65.7960940  78.3682840  37.8911410  65.2896630  79.2720510  36.7872320
  69.6376490  76.1863760  44.9589280  69.6549230  76.6372410  45.8031130
  69.3892070  75.2869400  45.1722720  64.6869620  80.7197500  36.3408890
  64.1186520  80.2715750  35.7144800  65.3958620  81.0790280  35.8074040
  73.0647240  73.5995940  50.7975660  73.3893010  72.8685600  51.3233640
  73.1003750  73.2809580  49.8956650  59.7638800  84.6209520  50.2175620
  59.3793590  83.9803190  50.8158580  60.0750990  85.3245640  50.7870350
  65.9135940  81.4686060  45.6984240  66.2806070  80.9944630  46.4445580
  65.7241000  82.3427630  46.0392580  58.7776430  76.2129750  41.8277710
  58.4923350  75.8485420  42.6656330  58.7155290  75.4810210  41.2140850
  63.7035310  80.5094700  48.0168450  63.3992380  81.3886680  48.2418810
  64.6581770  80.5694490  48.0525890  62.2317100  84.7155690  38.6135300
  61.4579360  84.1753310  38.4534020  62.9611730  84.1962300  38.2753060
  72.9905080  83.7121050  44.4061690  73.7104200  84.2076340  44.0157800
  72.7886900  83.0338940  43.7615560  68.4515020  75.1059010  38.5491080
  67.6379630  74.6072180  38.4736390  68.2576970  75.9457260  38.1327430
  68.3723880  83.7830110  50.2930690  68.3061190  82.8625780  50.0388280
  67.7429020  83.8805550  51.0075330  71.1663410  79.4778660  36.8453240
  72.0543030  79.7895890  36.6704580  71.1368500  78.6050910  36.4533820
  62.2754500  84.3836070  42.2514110  62.7933170  83.5804330  42.1971000
  61.8238520  84.3215210  43.0930940  67.1624000  85.6502350  37.5241410
  67.5039700  86.3944580  37.0284730  66.3336710  85.9633470  37.8866240
  59.7599040  81.3497440  49.1639810  59.4013980  82.0151290  49.7513150
  59.4653600  80.5180990  49.5352430  62.9612160  81.8081680  52.0479360
  62.6612300  81.9538860  51.1507180  63.7323400  81.2486970  51.9552750
  68.3040610  86.6050680  50.0434490  68.3185150  85.6731640  49.8253400
  67.5965710  86.6910440  50.6824260  73.4377680  80.7890500  36.3133100
  73.3541400  81.2204720  35.4629540  74.1571870  81.2488850  36.7459920
  74.5151820  83.2458020  49.3903070  73.7900010  83.8386800  49.1932460
  75.0427280  83.2381560  48.5916440  70.0451410  84.9718190  42.8886920
  70.3975230  84.3746320  42.2288290  69.1613740  84.6462420  43.0595170
  66.1314690  85.7315880  40.2957330  66.8185820  86.2785090  40.6764920
  65.3447110  86.2756610  40.3306940  58.2707090  81.3488700  35.7874410
  59.1401940  81.6313500  36.0710330  57.7797410  82.1624570  35.6723220
  65.4341900  82.7361910  39.9082690  65.8904680  83.5467160  40.1342880
  65.0830110  82.4185050  40.7401180  61.3353680  73.0799560  40.3805210
  61.2068310  73.0717460  41.3290130  60.5115700  73.4182650  40.0296220
  69.0106590  86.2500600  45.8552440  69.6528820  85.5493760  45.9684610
  69.5355940  87.0299040  45.6749330  72.8562310  86.5349220  35.5791580
  72.6299890  85.8179660  36.1716220  72.4658510  86.2861660  34.7413330
  58.3347610  74.8390680  49.8411910  57.6206130  75.0387600  50.4464520
  58.7542650  74.0630250  50.2126710  72.4378560  84.4521160  37.2405740
  72.1500260  84.9133850  38.0283620  73.2330730  83.9918930  37.5089960
  60.2553600  83.1662170  37.9156470  59.6481550  83.9061070  37.9251770
  60.7302950  83.2561530  37.0894670  69.8286390  77.3312990  47.5913360
  70.1967210  76.5108200  47.9192930  68.9684590  77.3914880  48.0069010
  73.1948420  76.2869930  38.4000920  72.5661580  76.3915600  37.6859150
  72.7000340  76.5066710  39.1894800  65.1632450  78.5655880  39.8158800
  64.4548600  79.0342220  40.2572410  65.4476930  77.9077890  40.4503990
  66.7888380  79.9852580  47.8151330  67.2873630  80.4598400  48.4803180
  66.9311330  79.0616100  48.0221360  69.1947880  75.2906540  41.2554590
  69.0715660  75.3092670  40.3064100  70.1432440  75.3385480  41.3752990
  63.3667470  76.8740960  37.1909510  64.2158000  77.3111110  37.1249700
  62.9998740  77.1861220  38.0181570  73.9955240  76.2020540  48.6579720
  73.4928840  76.9425940  48.9973530  74.8111900  76.5904540  48.3416510
  72.2877250  81.4453720  42.1041080  71.3467390  81.4603950  42.2788770
  72.6021320  80.6589680  42.5501380  62.2658890  83.1273320  35.6645040
  63.0322160  83.0154680  36.2270470  62.3433580  82.4311290  35.0121810
  60.9605650  80.5598390  36.3477930  61.0409240  79.6125900  36.4595330
  61.8525400  80.8905270  36.4538590  69.6043270  86.0019720  52.5873460
  68.9981430  86.0251320  51.8469210  69.2997380  85.2702760  53.1240710
  58.4876450  82.3813310  51.5834100  58.9915470  81.8020590  52.1550330
  57.7483870  82.6653540  52.1210470  65.3900070  85.1027500  35.1380390
  65.2850710  84.4879850  35.8641770  65.2224290  84.5793390  34.3543400
  65.5414390  83.7884300  51.1169620  64.7760060  84.3569300  51.0324290
  65.7230350  83.4960510  50.2237850  68.6302800  84.1647530  35.7422380
  68.0812900  84.6116830  36.3865120  69.2522060  83.6596780  36.2660050
  72.6837740  85.5189630  51.6744640  73.4247210  85.8565390  51.1712100
  71.9210420  85.6881690  51.1214410  60.5199530  80.5242900  52.4784170
  60.5604870  80.2256770  53.3869400  61.3745030  80.9250510  52.3191690
  64.2977920  83.1238450  37.6387680  64.7194340  82.9578320  38.4819070
  64.4228760  82.3138680  37.1442820  62.4605340  79.1035000  50.4458660
  61.9301800  78.6125950  49.8182000  63.1293410  79.5319200  49.9116590
  66.8105560  82.1476060  34.8864780  67.3311220  81.4325080  34.5205930
  67.4573960  82.7861930  35.1865290  71.3583400  83.5704460  50.2099850
  71.7724420  83.7249540  51.0590270  70.4234400  83.6959680  50.3725630
  71.8305570  80.9100620  52.2139000  72.4126340  80.1552940  52.1259480
  72.0067340  81.4408060  51.4370480  62.9477640  76.0697370  50.5255950
  62.8534510  75.4518120  49.8006820  62.3675030  76.7963660  50.2985860
  65.7139080  74.6270610  47.5583340  65.2656380  74.6494870  46.7128890
  65.0804280  74.2289630  48.1553640  66.1198630  83.5224940  48.1795780
  66.5386740  84.3657670  48.0072020  65.2007260  83.6596980  47.9502560
  68.4562530  81.2541120  49.5633620  68.5758740  80.6582260  50.3028460
  69.3156530  81.2910810  49.1434920  70.7950430  81.8078310  48.1396130
  70.2685650  82.3320930  47.5361270  71.1381770  82.4405700  48.7705860
  63.1936820  79.1971680  34.5845840  62.9925880  78.3339040  34.9459180
  63.0228870  79.1105040  33.6467440  65.2231300  77.7962470  50.8209440
  65.8130990  77.4878320  51.5087260  64.4051540  77.3242220  50.9769340
  70.0424730  77.4128280  51.0542460  69.3540250  76.7509820  50.9892450
  70.7630750  76.9666550  51.4990920  70.6725130  74.0079910  37.1132720
  70.9527420  73.1647810  37.4692140  69.8990860  74.2403020  37.6271470
  61.9919620  76.2972300  34.5723720  62.2945520  76.3039730  33.6642870
  62.7314210  75.9470160  35.0691380  65.2104550  75.2406920  35.5579920
  64.8626550  74.5630910  34.9782370  65.4117320  74.7796430  36.3723310
  61.0149750  85.6014720  35.4053520  61.4524620  86.1444390  36.0611100
  61.4997480  84.7761670  35.4149860  62.8257470  86.7212760  40.5175750
  62.5253010  86.5977730  41.4179660  62.7194960  85.8621350  40.1091480
  75.0505850  83.2456640  37.7236630  75.8124760  83.8153290  37.8296320
  75.0660220  82.6783840  38.4944940  58.5510190  81.7694570  41.9544290
  57.8959030  81.5006210  41.3103990  59.3888140  81.6599050  41.5046270
  76.0565820  84.1006740  42.5678560  76.4274650  83.3174060  42.1614530
  76.6967750  84.7895840  42.3895860  73.0399580  85.4843320  47.9808880
  72.2259420  85.9140480  48.2434670  73.4473780  86.0961730  47.3677930
  75.1025020  83.5391010  34.8809150  75.3773860  84.4469890  34.7528370
  74.9135760  83.4753540  35.8171140  71.5000630  76.5635860  36.1762780
  71.9185510  76.3766840  35.3359440  71.1936690  75.7114910  36.4865710
  74.9990360  81.4760000  39.8738580  74.6233960  80.7087930  39.4419870
  74.2693480  81.8582700  40.3613510  59.5886120  82.1547140  46.4947630
  59.9559160  82.0674540  47.3743650  59.0196940  81.3913690  46.3954490
  74.3889980  80.6231520  49.5078100  74.1576070  80.3944270  48.6076050
  74.6494530  81.5431070  49.4622990  59.1402120  79.0656230  50.4006050
  58.2458170  79.0322990  50.7399760  59.6799670  79.2643020  51.1657300
  72.8278050  75.8487950  52.2857800  73.7048230  75.8571350  52.6691800
  72.8398890  75.1118790  51.6750150  57.7648270  78.9793500  37.8969620
  56.8612350  79.2423700  37.7221280  58.2488890  79.2504670  37.1169580
  74.2741320  79.7017490  43.1745820  74.7978800  79.2080140  42.5435990
  74.8600740  79.8367850  43.9193390  74.4531040  79.7857360  46.6965370
  73.5033750  79.7520900  46.8110360  74.6344050  80.6957470  46.4615140
  60.3075480  78.0359040  35.8064000  61.0167180  77.6142260  35.3211280
  59.5915420  78.1034270  35.1747350  59.9549640  74.0898370  34.8466650
  60.6777770  74.6307310  35.1647870  60.2274160  73.8161790  33.9708190
  73.7641290  78.9590840  39.1138230  74.2600410  78.7261710  39.8987110
  73.5657360  78.1202680  38.6975870  59.6441830  73.3404560  44.7489270
  60.2918020  72.7901940  44.3084430  60.0643670  73.5947710  45.5705080
  75.1928450  77.5951790  41.6475910  75.0827730  77.4407830  42.5858180
  75.9536040  77.0672730  41.4051320  73.5394170  73.5345920  48.1058910
  74.1766390  74.1480060  48.4718100  73.6869060  73.5706580  47.1608140
  76.0818720  75.4259710  34.8882050  77.0068030  75.2940890  34.6800340
  76.0594510  75.5052530  35.8418500  76.1557210  76.1970370  37.5138760
  75.3608710  76.1315490  38.0431670  76.3600490  77.1321010  37.5024110
  59.3973830  73.4960230  47.4914590  59.0488650  73.9524050  48.2572770
  59.0661530  72.6017360  47.5737020  66.9098650  74.6872110  51.0134010
  66.8487540  75.2793940  51.7629420  67.8499030  74.5798070  50.8684270
  69.5473210  74.3442170  50.6526300  70.1613620  74.6621460  49.9907380
  70.0922770  73.8590760  51.2722160  60.0694470  73.0236430  50.7665360
  60.6177460  72.8424480  50.0031470  60.1349780  72.2330540  51.3021670
  70.2881250  72.9074310  46.9795590  69.4141090  73.2409420  46.7768520
  70.1792000  72.4347490  47.8047460  71.1953230  75.1145180  48.3637310
  70.8666590  74.2996940  47.9839040  72.1435530  75.0714990  48.2403000
  68.0356070  73.8244150  45.9188500  67.2527860  74.2989650  46.1985260
  67.7419000  72.9198980  45.8101680  72.5877140  74.5267250  43.9637590
  73.0285230  74.4712350  43.1159190  72.3184730  75.4425260  44.0347770
  74.4515710  74.1582490  41.9746410  74.3904110  73.2143710  41.8277430
  75.2307740  74.2662580  42.5199870  59.3796480  74.1291630  38.4402220
  60.1375840  74.2420510  37.8666250  58.9173650  74.9660830  38.3945650
  65.9210290  76.2430900  41.4304530  65.1084800  75.8687790  41.0900410
  66.4251930  75.4875980  41.7325720  70.4235270  72.9073350  42.6687600
  71.0264640  73.4793560  43.1436120  69.6828260  73.4712790  42.4461500
  73.5669870  73.3094910  37.9427880  73.7620500  74.2078360  38.2095310
  72.7799740  73.0781990  38.4360830  61.7521630  74.6555680  36.9804190
  62.2814390  73.8685480  36.8512140  62.3849950  75.3346870  37.2139720
  63.9459470  74.3930820  40.0349580  63.3162210  73.6918130  40.2019710
  63.4064610  75.1534950  39.8182740  64.0715030  73.6714800  52.4702070
  63.7899300  74.1748400  51.7062890  64.4534730  72.8736550  52.1044200
  70.6730490  73.0868380  53.0482540  70.5595940  73.4062990  53.9434060
  71.4900230  73.4880890  52.7519820  69.5788640  81.1060850  23.4117280
  69.4982690  80.1915460  23.1408990  69.1653060  81.6027920  22.7056990
  67.7106680  82.8839870  25.2926550  66.9348780  82.4040310  25.5825120
  68.3619610  82.2045520  25.1182710  61.7272510  83.1959680  26.1702310
  60.8957390  82.9408390  26.5698820  62.3353490  83.2670450  26.9060230
  60.1364460  78.1561570  19.9544700  59.2481160  78.4977540  19.8524580
  60.4205650  77.9561890  19.0625530  58.0997470  80.7567220  25.8384400
  58.6713580  79.9889420  25.8388040  58.0999010  81.0555980  24.9291010
  67.1515670  85.5597060  25.2996710  67.0823950  84.6187000  25.1385840
  67.9135530  85.6498470  25.8719280  59.3422340  76.1651580  27.6253330
  59.1625180  75.2677330  27.9056090  58.9402420  76.7123450  28.3000280
  68.1820840  78.3667440  25.5265640  68.5585660  77.4939320  25.4139310
  68.0840350  78.7026140  24.6356080  62.3125850  76.7393070  20.9883080
  62.4192600  77.6396800  21.2951840  61.4018210  76.6911040  20.6977730
  71.9644960  75.8617880  22.4593980  72.7854580  75.3714450  22.5019460
  71.9979040  76.4515540  23.2125820  59.9609010  78.6612080  26.2335670
  60.6419120  78.9250450  26.8523070  59.6457060  77.8212950  26.5673680
  64.1533580  79.7079440  25.3208260  64.6611800  80.2060410  25.9613280
  64.6846820  78.9314640  25.1447620  76.2544510  77.8784630  29.0237610
  75.5496680  78.2666340  28.5052720  76.5202430  78.5734920  29.6258540
  62.4369680  74.3478000  29.5871680  62.4388120  74.8650390  28.7817580
  61.6073990  73.8708180  29.5641610  68.8240770  84.4597310  21.0861580
  68.2058040  84.9246760  20.5224300  69.3364020  85.1524790  21.5031090
  63.6872530  83.9873180  27.7645180  63.3541910  84.6142100  28.4066250
  63.8639210  84.5135060  26.9846850  72.2006440  77.8018260  25.2321520
  71.4962010  78.0903150  25.8124630  72.5618600  78.6118370  24.8721080
  62.1185010  76.0587960  27.5942130  62.4601820  76.9030010  27.2996000
  61.1800820  76.2071700  27.7107470  62.8991630  85.9553980  29.5794360
  63.5165630  86.6305060  29.2978810  62.0384750  86.3641960  29.4881860
  58.1923970  85.1453840  18.4601210  57.8151950  85.6340940  17.7286110
  58.4497040  85.8179120  19.0907740  75.2693360  77.2473050  25.6230730
  74.3218270  77.2812030  25.7546160  75.5943350  78.0612000  26.0080090
  65.8012900  73.5470230  23.9186720  66.1087880  72.9917120  23.2022220
  64.8713600  73.6814690  23.7359710  72.6473380  85.9853740  21.2984350
  72.5369710  85.0428070  21.4233770  72.6441630  86.3469380  22.1847110
  70.7513400  84.1667360  27.5376790  71.1682190  83.9527470  26.7030250
  71.4753220  84.4240150  28.1085410  68.1893660  81.6119060  20.6546840
  67.2622940  81.5456440  20.8835310  68.3418480  82.5499190  20.5402080
  68.1762740  77.8836060  17.6514000  67.2366410  78.0450020  17.7366460
  68.4946000  78.6021740  17.1049990  74.6975500  82.5654580  27.6293030
  73.8694130  82.6347670  27.1543160  75.2925980  83.1508890  27.1608860
  72.2190950  83.1739360  21.1582090  71.6003370  82.8358910  20.5108390
  72.2015400  82.5299120  21.8661280  71.6617510  79.3523900  28.5747900
  71.2488690  80.1777610  28.8287890  70.9293460  78.7668940  28.3824260
  63.7950300  82.1383800  23.4366570  63.3907300  81.4261050  22.9412470
  63.8813420  81.7937040  24.3254610  64.2632000  85.8251360  25.6005780
  63.9660290  85.2196830  24.9213560  65.2131820  85.8628670  25.4895140
  62.5078920  78.9127010  27.2165610  63.0593510  79.0222350  26.4418860
  63.0222430  79.2864610  27.9320840  63.3550430  85.5633050  32.2513580
  62.4578960  85.7873020  32.4986980  63.3803300  85.6867990  31.3024980
  70.3955650  82.4126170  18.1654840  70.8348930  81.5748600  18.0192660
  71.1084070  83.0455570  18.2518980  62.1821650  82.4346370  30.8270950
  62.0429420  83.3069170  31.1958350  61.3003010  82.0919180  30.6818890
  73.9772790  73.6668980  16.4795880  73.6645450  73.7595810  17.3794950
  74.7385260  74.2450010  16.4293310  60.4954930  81.0328780  20.9373220
  60.3752530  81.7590870  20.3254490  60.1855820  80.2631690  20.4601130
  58.1340300  84.2043920  26.7441860  58.2120720  84.3392690  25.7997580
  58.7481980  83.4959810  26.9369980  59.3787930  85.9044110  23.1548040
  58.9716010  86.0458700  22.3001640  60.2700940  85.6204270  22.9519250
  75.3350070  86.3508020  31.4920280  75.4613130  86.1119900  30.5737460
  75.3771450  85.5192560  31.9642360  75.1874080  78.4040480  32.4570020
  74.5718350  78.9120150  31.9285480  74.8670500  77.5038810  32.3995960
  58.1899820  85.2458090  29.2836320  58.3530860  84.7763450  28.4655690
  58.6552270  84.7381650  29.9485160  62.9618590  74.3763850  24.3196890
  62.5186740  75.1573390  23.9881410  63.5203580  74.6993740  25.0267830
  67.2488400  77.2432370  29.9232210  66.7867770  77.4515390  30.7352150
  66.8466510  76.4291720  29.6202880  72.2492910  78.4641320  31.0528870
  71.3986500  78.1647070  31.3737940  72.0894700  78.7083330  30.1412690
  69.3442620  79.9643070  33.1527660  69.6696030  79.1306820  32.8129890
  70.1322950  80.4871590  33.3005990  66.0777410  73.9974550  19.2002720
  65.4531590  73.9934420  19.9256030  65.9907530  73.1305510  18.8038690
  64.9994490  74.9211180  26.1786490  65.2966820  75.8274010  26.0978510
  65.5480050  74.4329960  25.5646060  62.7532810  79.4997420  22.0478140
  62.5273730  79.2834590  22.9524760  61.9725340  79.9325880  21.7024110
  69.9830570  79.5060790  20.6468790  69.3839460  80.2296590  20.4632410
  70.5310180  79.4437570  19.8645240  65.1932020  80.3983000  32.7138410
  65.0975620  79.4577730  32.5638810  66.0364000  80.6198070  32.3186480
  68.5895440  78.1424330  22.6772070  68.9825010  78.4596530  21.8640760
  68.9512290  77.2636210  22.7916590  60.3242560  76.8096670  30.8672190
  59.9305950  77.6571880  31.0744970  59.6360960  76.1723040  31.0580830
  66.8987610  76.8931640  33.9368930  66.2085930  76.7003840  34.5715020
  67.6419910  77.1766280  34.4693230  57.6259610  74.7325130  24.9002270
  57.3372660  75.3027990  25.6127250  58.3705370  74.2529580  25.2633500
  57.8129840  78.6745250  16.1104990  57.7304510  79.6176010  16.2519980
  57.4612900  78.5320160  15.2317340  69.1750580  80.7330080  26.7722850
  68.4431700  81.2416890  27.1212950  68.7774920  79.9160060  26.4711630
  65.6127970  77.4084280  25.1775340  65.6164030  76.9674230  24.3279880
  66.5079090  77.7301610  25.2847160  61.4630350  77.2910770  24.1369550
  61.1230400  77.7686000  24.8936600  60.7007670  76.8375890  23.7770650
  65.6748120  78.4096360  18.1682100  65.7960940  78.3682840  19.1167920
  65.2896630  79.2720510  18.0128830  69.6376490  76.1863760  26.1845790
  69.6549230  76.6372410  27.0287640  69.3892070  75.2869400  26.3979230
  64.6869620  80.7197500  17.5665400  64.1186520  80.2715750  16.9401310
  65.3958620  81.0790280  17.0330550  73.0647240  73.5995940  32.0232170
  73.3893010  72.8685600  32.5490150  73.1003750  73.2809580  31.1213160
  59.7638800  84.6209520  31.4432130  59.3793590  83.9803190  32.0415090
  60.0750990  85.3245640  32.0126860  65.9135940  81.4686060  26.9240750
  66.2806070  80.9944630  27.6702090  65.7241000  82.3427630  27.2649090
  58.7776430  76.2129750  23.0534220  58.4923350  75.8485420  23.8912840
  58.7155290  75.4810210  22.4397360  63.7035310  80.5094700  29.2424960
  63.3992380  81.3886680  29.4675320  64.6581770  80.5694490  29.2782400
  62.2317100  84.7155690  19.8391810  61.4579360  84.1753310  19.6790530
  62.9611730  84.1962300  19.5009570  72.9905080  83.7121050  25.6318200
  73.7104200  84.2076340  25.2414310  72.7886900  83.0338940  24.9872070
  68.4515020  75.1059010  19.7747590  67.6379630  74.6072180  19.6992900
  68.2576970  75.9457260  19.3583940  68.3723880  83.7830110  31.5187200
  68.3061190  82.8625780  31.2644790  67.7429020  83.8805550  32.2331840
  71.1663410  79.4778660  18.0709750  72.0543030  79.7895890  17.8961090
  71.1368500  78.6050910  17.6790330  62.2754500  84.3836070  23.4770620
  62.7933170  83.5804330  23.4227510  61.8238520  84.3215210  24.3187450
  67.1624000  85.6502350  18.7497920  67.5039700  86.3944580  18.2541240
  66.3336710  85.9633470  19.1122750  59.7599040  81.3497440  30.3896320
  59.4013980  82.0151290  30.9769660  59.4653600  80.5180990  30.7608940
  62.9612160  81.8081680  33.2735870  62.6612300  81.9538860  32.3763690
  63.7323400  81.2486970  33.1809260  68.3040610  86.6050680  31.2691000
  68.3185150  85.6731640  31.0509910  67.5965710  86.6910440  31.9080770
  73.4377680  80.7890500  17.5389610  73.3541400  81.2204720  16.6886050
  74.1571870  81.2488850  17.9716430  74.5151820  83.2458020  30.6159580
  73.7900010  83.8386800  30.4188970  75.0427280  83.2381560  29.8172950
  70.0451410  84.9718190  24.1143430  70.3975230  84.3746320  23.4544800
  69.1613740  84.6462420  24.2851680  66.1314690  85.7315880  21.5213840
  66.8185820  86.2785090  21.9021430  65.3447110  86.2756610  21.5563450
  58.2707090  81.3488700  17.0130920  59.1401940  81.6313500  17.2966840
  57.7797410  82.1624570  16.8979730  65.4341900  82.7361910  21.1339200
  65.8904680  83.5467160  21.3599390  65.0830110  82.4185050  21.9657690
  61.3353680  73.0799560  21.6061720  61.2068310  73.0717460  22.5546640
  60.5115700  73.4182650  21.2552730  69.0106590  86.2500600  27.0808950
  69.6528820  85.5493760  27.1941120  69.5355940  87.0299040  26.9005840
  72.8562310  86.5349220  16.8048090  72.6299890  85.8179660  17.3972730
  72.4658510  86.2861660  15.9669840  58.3347610  74.8390680  31.0668420
  57.6206130  75.0387600  31.6721030  58.7542650  74.0630250  31.4383220
  72.4378560  84.4521160  18.4662250  72.1500260  84.9133850  19.2540130
  73.2330730  83.9918930  18.7346470  60.2553600  83.1662170  19.1412980
  59.6481550  83.9061070  19.1508280  60.7302950  83.2561530  18.3151180
  69.8286390  77.3312990  28.8169870  70.1967210  76.5108200  29.1449440
  68.9684590  77.3914880  29.2325520  73.1948420  76.2869930  19.6257430
  72.5661580  76.3915600  18.9115660  72.7000340  76.5066710  20.4151310
  65.1632450  78.5655880  21.0415310  64.4548600  79.0342220  21.4828920
  65.4476930  77.9077890  21.6760500  66.7888380  79.9852580  29.0407840
  67.2873630  80.4598400  29.7059690  66.9311330  79.0616100  29.2477870
  69.1947880  75.2906540  22.4811100  69.0715660  75.3092670  21.5320610
  70.1432440  75.3385480  22.6009500  63.3667470  76.8740960  18.4166020
  64.2158000  77.3111110  18.3506210  62.9998740  77.1861220  19.2438080
  73.9955240  76.2020540  29.8836230  73.4928840  76.9425940  30.2230040
  74.8111900  76.5904540  29.5673020  72.2877250  81.4453720  23.3297590
  71.3467390  81.4603950  23.5045280  72.6021320  80.6589680  23.7757890
  62.2658890  83.1273320  16.8901550  63.0322160  83.0154680  17.4526980
  62.3433580  82.4311290  16.2378320  60.9605650  80.5598390  17.5734440
  61.0409240  79.6125900  17.6851840  61.8525400  80.8905270  17.6795100
  69.6043270  86.0019720  33.8129970  68.9981430  86.0251320  33.0725720
  69.2997380  85.2702760  34.3497220  58.4876450  82.3813310  32.8090610
  58.9915470  81.8020590  33.3806840  57.7483870  82.6653540  33.3466980
  65.3900070  85.1027500  16.3636900  65.2850710  84.4879850  17.0898280
  65.2224290  84.5793390  15.5799910  65.5414390  83.7884300  32.3426130
  64.7760060  84.3569300  32.2580800  65.7230350  83.4960510  31.4494360
  68.6302800  84.1647530  16.9678890  68.0812900  84.6116830  17.6121630
  69.2522060  83.6596780  17.4916560  72.6837740  85.5189630  32.9001150
  73.4247210  85.8565390  32.3968610  71.9210420  85.6881690  32.3470920
  60.5199530  80.5242900  33.7040680  60.5604870  80.2256770  34.6125910
  61.3745030  80.9250510  33.5448200  64.2977920  83.1238450  18.8644190
  64.7194340  82.9578320  19.7075580  64.4228760  82.3138680  18.3699330
  62.4605340  79.1035000  31.6715170  61.9301800  78.6125950  31.0438510
  63.1293410  79.5319200  31.1373100  66.8105560  82.1476060  16.1121290
  67.3311220  81.4325080  15.7462440  67.4573960  82.7861930  16.4121800
  71.3583400  83.5704460  31.4356360  71.7724420  83.7249540  32.2846780
  70.4234400  83.6959680  31.5982140  71.8305570  80.9100620  33.4395510
  72.4126340  80.1552940  33.3515990  72.0067340  81.4408060  32.6626990
  62.9477640  76.0697370  31.7512460  62.8534510  75.4518120  31.0263330
  62.3675030  76.7963660  31.5242370  65.7139080  74.6270610  28.7839850
  65.2656380  74.6494870  27.9385400  65.0804280  74.2289630  29.3810150
  66.1198630  83.5224940  29.4052290  66.5386740  84.3657670  29.2328530
  65.2007260  83.6596980  29.1759070  68.4562530  81.2541120  30.7890130
  68.5758740  80.6582260  31.5284970  69.3156530  81.2910810  30.3691430
  70.7950430  81.8078310  29.3652640  70.2685650  82.3320930  28.7617780
  71.1381770  82.4405700  29.9962370  63.1936820  79.1971680  15.8102350
  62.9925880  78.3339040  16.1715690  63.0228870  79.1105040  14.8723950
  65.2231300  77.7962470  32.0465950  65.8130990  77.4878320  32.7343770
  64.4051540  77.3242220  32.2025850  70.0424730  77.4128280  32.2798970
  69.3540250  76.7509820  32.2148960  70.7630750  76.9666550  32.7247430
  70.6725130  74.0079910  18.3389230  70.9527420  73.1647810  18.6948650
  69.8990860  74.2403020  18.8527980  61.9919620  76.2972300  15.7980230
  62.2945520  76.3039730  14.8899380  62.7314210  75.9470160  16.2947890
  65.2104550  75.2406920  16.7836430  64.8626550  74.5630910  16.2038880
  65.4117320  74.7796430  17.5979820  61.0149750  85.6014720  16.6310030
  61.4524620  86.1444390  17.2867610  61.4997480  84.7761670  16.6406370
  62.8257470  86.7212760  21.7432260  62.5253010  86.5977730  22.6436170
  62.7194960  85.8621350  21.3347990  75.0505850  83.2456640  18.9493140
  75.8124760  83.8153290  19.0552830  75.0660220  82.6783840  19.7201450
  58.5510190  81.7694570  23.1800800  57.8959030  81.5006210  22.5360500
  59.3888140  81.6599050  22.7302780  76.0565820  84.1006740  23.7935070
  76.4274650  83.3174060  23.3871040  76.6967750  84.7895840  23.6152370
  73.0399580  85.4843320  29.2065390  72.2259420  85.9140480  29.4691180
  73.4473780  86.0961730  28.5934440  75.1025020  83.5391010  16.1065660
  75.3773860  84.4469890  15.9784880  74.9135760  83.4753540  17.0427650
  71.5000630  76.5635860  17.4019290  71.9185510  76.3766840  16.5615950
  71.1936690  75.7114910  17.7122220  74.9990360  81.4760000  21.0995090
  74.6233960  80.7087930  20.6676380  74.2693480  81.8582700  21.5870020
  59.5886120  82.1547140  27.7204140  59.9559160  82.0674540  28.6000160
  59.0196940  81.3913690  27.6211000  74.3889980  80.6231520  30.7334610
  74.1576070  80.3944270  29.8332560  74.6494530  81.5431070  30.6879500
  59.1402120  79.0656230  31.6262560  58.2458170  79.0322990  31.9656270
  59.6799670  79.2643020  32.3913810  72.8278050  75.8487950  33.5114310
  73.7048230  75.8571350  33.8948310  72.8398890  75.1118790  32.9006660
  57.7648270  78.9793500  19.1226130  56.8612350  79.2423700  18.9477790
  58.2488890  79.2504670  18.3426090  74.2741320  79.7017490  24.4002330
  74.7978800  79.2080140  23.7692500  74.8600740  79.8367850  25.1449900
  74.4531040  79.7857360  27.9221880  73.5033750  79.7520900  28.0366870
  74.6344050  80.6957470  27.6871650  60.3075480  78.0359040  17.0320510
  61.0167180  77.6142260  16.5467790  59.5915420  78.1034270  16.4003860
  59.9549640  74.0898370  16.0723160  60.6777770  74.6307310  16.3904380
  60.2274160  73.8161790  15.1964700  73.7641290  78.9590840  20.3394740
  74.2600410  78.7261710  21.1243620  73.5657360  78.1202680  19.9232380
  59.6441830  73.3404560  25.9745780  60.2918020  72.7901940  25.5340940
  60.0643670  73.5947710  26.7961590  75.1928450  77.5951790  22.8732420
  75.0827730  77.4407830  23.8114690  75.9536040  77.0672730  22.6307830
  73.5394170  73.5345920  29.3315420  74.1766390  74.1480060  29.6974610
  73.6869060  73.5706580  28.3864650  76.0818720  75.4259710  16.1138560
  77.0068030  75.2940890  15.9056850  76.0594510  75.5052530  17.0675010
  76.1557210  76.1970370  18.7395270  75.3608710  76.1315490  19.2688180
  76.3600490  77.1321010  18.7280620  59.3973830  73.4960230  28.7171100
  59.0488650  73.9524050  29.4829280  59.0661530  72.6017360  28.7993530
  66.9098650  74.6872110  32.2390520  66.8487540  75.2793940  32.9885930
  67.8499030  74.5798070  32.0940780  69.5473210  74.3442170  31.8782810
  70.1613620  74.6621460  31.2163890  70.0922770  73.8590760  32.4978670
  60.0694470  73.0236430  31.9921870  60.6177460  72.8424480  31.2287980
  60.1349780  72.2330540  32.5278180  70.2881250  72.9074310  28.2052100
  69.4141090  73.2409420  28.0025030  70.1792000  72.4347490  29.0303970
  71.1953230  75.1145180  29.5893820  70.8666590  74.2996940  29.2095550
  72.1435530  75.0714990  29.4659510  68.0356070  73.8244150  27.1445010
  67.2527860  74.2989650  27.4241770  67.7419000  72.9198980  27.0358190
  72.5877140  74.5267250  25.1894100  73.0285230  74.4712350  24.3415700
  72.3184730  75.4425260  25.2604280  74.4515710  74.1582490  23.2002920
  74.3904110  73.2143710  23.0533940  75.2307740  74.2662580  23.7456380
  59.3796480  74.1291630  19.6658730  60.1375840  74.2420510  19.0922760
  58.9173650  74.9660830  19.6202160  65.9210290  76.2430900  22.6561040
  65.1084800  75.8687790  22.3156920  66.4251930  75.4875980  22.9582230
  70.4235270  72.9073350  23.8944110  71.0264640  73.4793560  24.3692630
  69.6828260  73.4712790  23.6718010  73.5669870  73.3094910  19.1684390
  73.7620500  74.2078360  19.4351820  72.7799740  73.0781990  19.6617340
  61.7521630  74.6555680  18.2060700  62.2814390  73.8685480  18.0768650
  62.3849950  75.3346870  18.4396230  63.9459470  74.3930820  21.2606090
  63.3162210  73.6918130  21.4276220  63.4064610  75.1534950  21.0439250
  64.0715030  73.6714800  33.6958580  63.7899300  74.1748400  32.9319400
  64.4534730  72.8736550  33.3300710  70.6730490  73.0868380  34.2739050
  70.5595940  73.4062990  35.1690570  71.4900230  73.4880890  33.9776330
  69.5788640  81.1060850   4.6373790  69.4982690  80.1915460   4.3665500
  69.1653060  81.6027920   3.9313500  67.7106680  82.8839870   6.5183060
  66.9348780  82.4040310   6.8081630  68.3619610  82.2045520   6.3439220
  61.7272510  83.1959680   7.3958820  60.8957390  82.9408390   7.7955330
  62.3353490  83.2670450   8.1316740  58.0997470  80.7567220   7.0640910
  58.6713580  79.9889420   7.0644550  58.0999010  81.0555980   6.1547520
  67.1515670  85.5597060   6.5253220  67.0823950  84.6187000   6.3642350
  67.9135530  85.6498470   7.0975790  59.3422340  76.1651580   8.8509840
  59.1625180  75.2677330   9.1312600  58.9402420  76.7123450   9.5256790
  68.1820840  78.3667440   6.7522150  68.5585660  77.4939320   6.6395820
  68.0840350  78.7026140   5.8612590  62.3125850  76.7393070   2.2139590
  62.4192600  77.6396800   2.5208350  61.4018210  76.6911040   1.9234240
  71.9644960  75.8617880   3.6850490  72.7854580  75.3714450   3.7275970
  71.9979040  76.4515540   4.4382330  59.9609010  78.6612080   7.4592180
  60.6419120  78.9250450   8.0779580  59.6457060  77.8212950   7.7930190
  64.1533580  79.7079440   6.5464770  64.6611800  80.2060410   7.1869790
  64.6846820  78.9314640   6.3704130  76.2544510  77.8784630  10.2494120
  75.5496680  78.2666340   9.7309230  76.5202430  78.5734920  10.8515050
  62.4369680  74.3478000  10.8128190  62.4388120  74.8650390  10.0074090
  61.6073990  73.8708180  10.7898120  68.8240770  84.4597310   2.3118090
  68.2058040  84.9246760   1.7480810  69.3364020  85.1524790   2.7287600
  63.6872530  83.9873180   8.9901690  63.3541910  84.6142100   9.6322760
  63.8639210  84.5135060   8.2103360  72.2006440  77.8018260   6.4578030
  71.4962010  78.0903150   7.0381140  72.5618600  78.6118370   6.0977590
  62.1185010  76.0587960   8.8198640  62.4601820  76.9030010   8.5252510
  61.1800820  76.2071700   8.9363980  62.8991630  85.9553980  10.8050870
  63.5165630  86.6305060  10.5235320  62.0384750  86.3641960  10.7138370
  75.2693360  77.2473050   6.8487240  74.3218270  77.2812030   6.9802670
  75.5943350  78.0612000   7.2336600  65.8012900  73.5470230   5.1443230
  66.1087880  72.9917120   4.4278730  64.8713600  73.6814690   4.9616220
  72.6473380  85.9853740   2.5240860  72.5369710  85.0428070   2.6490280
  72.6441630  86.3469380   3.4103620  70.7513400  84.1667360   8.7633300
  71.1682190  83.9527470   7.9286760  71.4753220  84.4240150   9.3341920
  68.1893660  81.6119060   1.8803350  67.2622940  81.5456440   2.1091820
  68.3418480  82.5499190   1.7658590  74.6975500  82.5654580   8.8549540
  73.8694130  82.6347670   8.3799670  75.2925980  83.1508890   8.3865370
  72.2190950  83.1739360   2.3838600  71.6003370  82.8358910   1.7364900
  72.2015400  82.5299120   3.0917790  71.6617510  79.3523900   9.8004410
  71.2488690  80.1777610  10.0544400  70.9293460  78.7668940   9.6080770
  63.7950300  82.1383800   4.6623080  63.3907300  81.4261050   4.1668980
  63.8813420  81.7937040   5.5511120  64.2632000  85.8251360   6.8262290
  63.9660290  85.2196830   6.1470070  65.2131820  85.8628670   6.7151650
  62.5078920  78.9127010   8.4422120  63.0593510  79.0222350   7.6675370
  63.0222430  79.2864610   9.1577350  63.3550430  85.5633050  13.4770090
  62.4578960  85.7873020  13.7243490  63.3803300  85.6867990  12.5281490
  62.1821650  82.4346370  12.0527460  62.0429420  83.3069170  12.4214860
  61.3003010  82.0919180  11.9075400  58.1340300  84.2043920   7.9698370
  58.2120720  84.3392690   7.0254090  58.7481980  83.4959810   8.1626490
  59.3787930  85.9044110   4.3804550  58.9716010  86.0458700   3.5258150
  60.2700940  85.6204270   4.1775760  75.3350070  86.3508020  12.7176790
  75.4613130  86.1119900  11.7993970  75.3771450  85.5192560  13.1898870
  75.1874080  78.4040480  13.6826530  74.5718350  78.9120150  13.1541990
  74.8670500  77.5038810  13.6252470  58.1899820  85.2458090  10.5092830
  58.3530860  84.7763450   9.6912200  58.6552270  84.7381650  11.1741670
  62.9618590  74.3763850   5.5453400  62.5186740  75.1573390   5.2137920
  63.5203580  74.6993740   6.2524340  67.2488400  77.2432370  11.1488720
  66.7867770  77.4515390  11.9608660  66.8466510  76.4291720  10.8459390
  72.2492910  78.4641320  12.2785380  71.3986500  78.1647070  12.5994450
  72.0894700  78.7083330  11.3669200  69.3442620  79.9643070  14.3784170
  69.6696030  79.1306820  14.0386400  70.1322950  80.4871590  14.5262500
  64.9994490  74.9211180   7.4043000  65.2966820  75.8274010   7.3235020
  65.5480050  74.4329960   6.7902570  62.7532810  79.4997420   3.2734650
  62.5273730  79.2834590   4.1781270  61.9725340  79.9325880   2.9280620
  65.1932020  80.3983000  13.9394920  65.0975620  79.4577730  13.7895320
  66.0364000  80.6198070  13.5442990  68.5895440  78.1424330   3.9028580
  68.9825010  78.4596530   3.0897270  68.9512290  77.2636210   4.0173100
  60.3242560  76.8096670  12.0928700  59.9305950  77.6571880  12.3001480
  59.6360960  76.1723040  12.2837340  66.8987610  76.8931640  15.1625440
  66.2085930  76.7003840  15.7971530  67.6419910  77.1766280  15.6949740
  57.6259610  74.7325130   6.1258780  57.3372660  75.3027990   6.8383760
  58.3705370  74.2529580   6.4890010  69.1750580  80.7330080   7.9979360
  68.4431700  81.2416890   8.3469460  68.7774920  79.9160060   7.6968140
  65.6127970  77.4084280   6.4031850  65.6164030  76.9674230   5.5536390
  66.5079090  77.7301610   6.5103670  61.4630350  77.2910770   5.3626060
  61.1230400  77.7686000   6.1193110  60.7007670  76.8375890   5.0027160
  69.6376490  76.1863760   7.4102300  69.6549230  76.6372410   8.2544150
  69.3892070  75.2869400   7.6235740  73.0647240  73.5995940  13.2488680
  73.3893010  72.8685600  13.7746660  73.1003750  73.2809580  12.3469670
  59.7638800  84.6209520  12.6688640  59.3793590  83.9803190  13.2671600
  60.0750990  85.3245640  13.2383370  65.9135940  81.4686060   8.1497260
  66.2806070  80.9944630   8.8958600  65.7241000  82.3427630   8.4905600
  58.7776430  76.2129750   4.2790730  58.4923350  75.8485420   5.1169350
  58.7155290  75.4810210   3.6653870  63.7035310  80.5094700  10.4681470
  63.3992380  81.3886680  10.6931830  64.6581770  80.5694490  10.5038910
  72.9905080  83.7121050   6.8574710  73.7104200  84.2076340   6.4670820
  72.7886900  83.0338940   6.2128580  68.3723880  83.7830110  12.7443710
  68.3061190  82.8625780  12.4901300  67.7429020  83.8805550  13.4588350
  62.2754500  84.3836070   4.7027130  62.7933170  83.5804330   4.6484020
  61.8238520  84.3215210   5.5443960  59.7599040  81.3497440  11.6152830
  59.4013980  82.0151290  12.2026170  59.4653600  80.5180990  11.9865450
  62.9612160  81.8081680  14.4992380  62.6612300  81.9538860  13.6020200
  63.7323400  81.2486970  14.4065770  68.3040610  86.6050680  12.4947510
  68.3185150  85.6731640  12.2766420  67.5965710  86.6910440  13.1337280
  74.5151820  83.2458020  11.8416090  73.7900010  83.8386800  11.6445480
  75.0427280  83.2381560  11.0429460  70.0451410  84.9718190   5.3399940
  70.3975230  84.3746320   4.6801310  69.1613740  84.6462420   5.5108190
  66.1314690  85.7315880   2.7470350  66.8185820  86.2785090   3.1277940
  65.3447110  86.2756610   2.7819960  65.4341900  82.7361910   2.3595710
  65.8904680  83.5467160   2.5855900  65.0830110  82.4185050   3.1914200
  61.3353680  73.0799560   2.8318230  61.2068310  73.0717460   3.7803150
  60.5115700  73.4182650   2.4809240  69.0106590  86.2500600   8.3065460
  69.6528820  85.5493760   8.4197630  69.5355940  87.0299040   8.1262350
  58.3347610  74.8390680  12.2924930  57.6206130  75.0387600  12.8977540
  58.7542650  74.0630250  12.6639730  69.8286390  77.3312990  10.0426380
  70.1967210  76.5108200  10.3705950  68.9684590  77.3914880  10.4582030
  65.1632450  78.5655880   2.2671820  64.4548600  79.0342220   2.7085430
  65.4476930  77.9077890   2.9017010  66.7888380  79.9852580  10.2664350
  67.2873630  80.4598400  10.9316200  66.9311330  79.0616100  10.4734380
  69.1947880  75.2906540   3.7067610  69.0715660  75.3092670   2.7577120
  70.1432440  75.3385480   3.8266010  73.9955240  76.2020540  11.1092740
  73.4928840  76.9425940  11.4486550  74.8111900  76.5904540  10.7929530
  72.2877250  81.4453720   4.5554100  71.3467390  81.4603950   4.7301790
  72.6021320  80.6589680   5.0014400  69.6043270  86.0019720  15.0386480
  68.9981430  86.0251320  14.2982230  69.2997380  85.2702760  15.5753730
  58.4876450  82.3813310  14.0347120  58.9915470  81.8020590  14.6063350
  57.7483870  82.6653540  14.5723490  65.5414390  83.7884300  13.5682640
  64.7760060  84.3569300  13.4837310  65.7230350  83.4960510  12.6750870
  72.6837740  85.5189630  14.1257660  73.4247210  85.8565390  13.6225120
  71.9210420  85.6881690  13.5727430  60.5199530  80.5242900  14.9297190
  60.5604870  80.2256770  15.8382420  61.3745030  80.9250510  14.7704710
  62.4605340  79.1035000  12.8971680  61.9301800  78.6125950  12.2695020
  63.1293410  79.5319200  12.3629610  71.3583400  83.5704460  12.6612870
  71.7724420  83.7249540  13.5103290  70.4234400  83.6959680  12.8238650
  71.8305570  80.9100620  14.6652020  72.4126340  80.1552940  14.5772500
  72.0067340  81.4408060  13.8883500  62.9477640  76.0697370  12.9768970
  62.8534510  75.4518120  12.2519840  62.3675030  76.7963660  12.7498880
  65.7139080  74.6270610  10.0096360  65.2656380  74.6494870   9.1641910
  65.0804280  74.2289630  10.6066660  66.1198630  83.5224940  10.6308800
  66.5386740  84.3657670  10.4585040  65.2007260  83.6596980  10.4015580
  68.4562530  81.2541120  12.0146640  68.5758740  80.6582260  12.7541480
  69.3156530  81.2910810  11.5947940  70.7950430  81.8078310  10.5909150
  70.2685650  82.3320930   9.9874290  71.1381770  82.4405700  11.2218880
  65.2231300  77.7962470  13.2722460  65.8130990  77.4878320  13.9600280
  64.4051540  77.3242220  13.4282360  70.0424730  77.4128280  13.5055480
  69.3540250  76.7509820  13.4405470  70.7630750  76.9666550  13.9503940
  62.8257470  86.7212760   2.9688770  62.5253010  86.5977730   3.8692680
  62.7194960  85.8621350   2.5604500  58.5510190  81.7694570   4.4057310
  57.8959030  81.5006210   3.7617010  59.3888140  81.6599050   3.9559290
  76.0565820  84.1006740   5.0191580  76.4274650  83.3174060   4.6127550
  76.6967750  84.7895840   4.8408880  73.0399580  85.4843320  10.4321900
  72.2259420  85.9140480  10.6947690  73.4473780  86.0961730   9.8190950
  74.9990360  81.4760000   2.3251600  74.6233960  80.7087930   1.8932890
  74.2693480  81.8582700   2.8126530  59.5886120  82.1547140   8.9460650
  59.9559160  82.0674540   9.8256670  59.0196940  81.3913690   8.8467510
  74.3889980  80.6231520  11.9591120  74.1576070  80.3944270  11.0589070
  74.6494530  81.5431070  11.9136010  59.1402120  79.0656230  12.8519070
  58.2458170  79.0322990  13.1912780  59.6799670  79.2643020  13.6170320
  72.8278050  75.8487950  14.7370820  73.7048230  75.8571350  15.1204820
  72.8398890  75.1118790  14.1263170  74.2741320  79.7017490   5.6258840
  74.7978800  79.2080140   4.9949010  74.8600740  79.8367850   6.3706410
  74.4531040  79.7857360   9.1478390  73.5033750  79.7520900   9.2623380
  74.6344050  80.6957470   8.9128160  59.6441830  73.3404560   7.2002290
  60.2918020  72.7901940   6.7597450  60.0643670  73.5947710   8.0218100
  75.1928450  77.5951790   4.0988930  75.0827730  77.4407830   5.0371200
  75.9536040  77.0672730   3.8564340  73.5394170  73.5345920  10.5571930
  74.1766390  74.1480060  10.9231120  73.6869060  73.5706580   9.6121160
  59.3973830  73.4960230   9.9427610  59.0488650  73.9524050  10.7085790
  59.0661530  72.6017360  10.0250040  66.9098650  74.6872110  13.4647030
  66.8487540  75.2793940  14.2142440  67.8499030  74.5798070  13.3197290
  69.5473210  74.3442170  13.1039320  70.1613620  74.6621460  12.4420400
  70.0922770  73.8590760  13.7235180  60.0694470  73.0236430  13.2178380
  60.6177460  72.8424480  12.4544490  60.1349780  72.2330540  13.7534690
  70.2881250  72.9074310   9.4308610  69.4141090  73.2409420   9.2281540
  70.1792000  72.4347490  10.2560480  71.1953230  75.1145180  10.8150330
  70.8666590  74.2996940  10.4352060  72.1435530  75.0714990  10.6916020
  68.0356070  73.8244150   8.3701520  67.2527860  74.2989650   8.6498280
  67.7419000  72.9198980   8.2614700  72.5877140  74.5267250   6.4150610
  73.0285230  74.4712350   5.5672210  72.3184730  75.4425260   6.4860790
  74.4515710  74.1582490   4.4259430  74.3904110  73.2143710   4.2790450
  75.2307740  74.2662580   4.9712890  65.9210290  76.2430900   3.8817550
  65.1084800  75.8687790   3.5413430  66.4251930  75.4875980   4.1838740
  70.4235270  72.9073350   5.1200620  71.0264640  73.4793560   5.5949140
  69.6828260  73.4712790   4.8974520  63.9459470  74.3930820   2.4862600
  63.3162210  73.6918130   2.6532730  63.4064610  75.1534950   2.2695760
  64.0715030  73.6714800  14.9215090  63.7899300  74.1748400  14.1575910
  64.4534730  72.8736550  14.5557220  70.6730490  73.0868380  15.4995560
  70.5595940  73.4062990  16.3947080  71.4900230  73.4880890  15.2032840
  69.5788640  62.3317360  79.7347750  69.4982690  61.4171970  79.4639460
  69.1653060  62.8284430  79.0287460  67.7106680  64.1096380  81.6157020
  66.9348780  63.6296820  81.9055590  68.3619610  63.4302030  81.4413180
  61.7272510  64.4216190  82.4932780  60.8957390  64.1664900  82.8929290
  62.3353490  64.4926960  83.2290700  71.7314110  68.5156570  80.3956150
  71.2695640  67.7443810  80.7243320  72.5439660  68.5422640  80.9008600
  61.7073770  68.4556280  82.6890800  62.0101810  67.5654020  82.5101020
  62.4517360  69.0126500  82.4613050  60.1364460  59.3818080  76.2775170
  59.2481160  59.7234050  76.1755050  60.4205650  59.1818400  75.3856000
  58.0997470  61.9823730  82.1614870  58.6713580  61.2145930  82.1618510
  58.0999010  62.2812490  81.2521480  67.9577420  70.8014580  80.0160140
  67.3388860  71.2572080  79.4454580  68.8129200  70.9566040  79.6149840
  67.1515670  66.7853570  81.6227180  67.0823950  65.8443510  81.4616310
  67.9135530  66.8754980  82.1949750  59.3422340  57.3908090  83.9483800
  59.1625180  56.4933840  84.2286560  58.9402420  57.9379960  84.6230750
  68.1820840  59.5923950  81.8496110  68.5585660  58.7195830  81.7369780
  68.0840350  59.9282650  80.9586550  62.3125850  57.9649580  77.3113550
  62.4192600  58.8653310  77.6182310  61.4018210  57.9167550  77.0208200
  71.9644960  57.0874390  78.7824450  72.7854580  56.5970960  78.8249930
  71.9979040  57.6772050  79.5356290  59.9609010  59.8868590  82.5566140
  60.6419120  60.1506960  83.1753540  59.6457060  59.0469460  82.8904150
  64.1533580  60.9335950  81.6438730  64.6611800  61.4316920  82.2843750
  64.6846820  60.1571150  81.4678090  76.2544510  59.1041140  85.3468080
  75.5496680  59.4922850  84.8283190  76.5202430  59.7991430  85.9489010
  62.4369680  55.5734510  85.9102150  62.4388120  56.0906900  85.1048050
  61.6073990  55.0964690  85.8872080  68.8240770  65.6853820  77.4092050
  68.2058040  66.1503270  76.8454770  69.3364020  66.3781300  77.8261560
  63.6872530  65.2129690  84.0875650  63.3541910  65.8398610  84.7296720
  63.8639210  65.7391570  83.3077320  72.2006440  59.0274770  81.5551990
  71.4962010  59.3159660  82.1355100  72.5618600  59.8374880  81.1951550
  62.1185010  57.2844470  83.9172600  62.4601820  58.1286520  83.6226470
  61.1800820  57.4328210  84.0337940  62.8991630  67.1810490  85.9024830
  63.5165630  67.8561570  85.6209280  62.0384750  67.5898470  85.8112330
  58.1923970  66.3710350  74.7831680  57.8151950  66.8597450  74.0516580
  58.4497040  67.0435630  75.4138210  73.8169220  68.6449900  83.8179470
  73.1332740  69.3149010  83.8096140  74.3563510  68.8430550  83.0524330
  75.2693360  58.4729560  81.9461200  74.3218270  58.5068540  82.0776630
  75.5943350  59.2868510  82.3310560  65.8012900  54.7726740  80.2417190
  66.1087880  54.2173630  79.5252690  64.8713600  54.9071200  80.0590180
  71.3527960  70.4894030  82.5324650  71.3655120  70.0856320  81.6646910
  70.8003180  71.2641320  82.4286080  72.6473380  67.2110250  77.6214820
  72.5369710  66.2684580  77.7464240  72.6441630  67.5725890  78.5077580
  70.7513400  65.3923870  83.8607260  71.1682190  65.1783980  83.0260720
  71.4753220  65.6496660  84.4315880  68.1893660  62.8375570  76.9777310
  67.2622940  62.7712950  77.2065780  68.3418480  63.7755700  76.8632550
  68.1762740  59.1092570  73.9744470  67.2366410  59.2706530  74.0596930
  68.4946000  59.8278250  73.4280460  74.6975500  63.7911090  83.9523500
  73.8694130  63.8604180  83.4773630  75.2925980  64.3765400  83.4839330
  72.2190950  64.3995870  77.4812560  71.6003370  64.0615420  76.8338860
  72.2015400  63.7555630  78.1891750  71.6617510  60.5780410  84.8978370
  71.2488690  61.4034120  85.1518360  70.9293460  59.9925450  84.7054730
  63.7950300  63.3640310  79.7597040  63.3907300  62.6517560  79.2642940
  63.8813420  63.0193550  80.6485080  64.2632000  67.0507870  81.9236250
  63.9660290  66.4453340  81.2444030  65.2131820  67.0885180  81.8125610
  62.5078920  60.1383520  83.5396080  63.0593510  60.2478860  82.7649330
  63.0222430  60.5121120  84.2551310  72.3517610  70.6239740  85.5859350
  71.8748170  71.4311930  85.3931960  71.6679400  69.9718070  85.7385560
  70.3955650  63.6382680  74.4885310  70.8348930  62.8005110  74.3423130
  71.1084070  64.2712080  74.5749450  68.5051030  68.5778750  78.4566550
  68.9446940  69.3203080  78.0421940  68.4437920  68.8205320  79.3805510
  73.9772790  54.8925490  72.8026350  73.6645450  54.9852320  73.7025420
  74.7385260  55.4706520  72.7523780  60.4954930  62.2585290  77.2603690
  60.3752530  62.9847380  76.6484960  60.1855820  61.4888200  76.7831600
  58.1340300  65.4300430  83.0672330  58.2120720  65.5649200  82.1228050
  58.7481980  64.7216320  83.2600450  59.3787930  67.1300620  79.4778510
  58.9716010  67.2715210  78.6232110  60.2700940  66.8460780  79.2749720
  71.1721210  71.5647870  75.8129560  71.0122350  71.2750810  76.7111390
  71.0067920  70.7888000  75.2774790  63.6509590  71.3446400  77.5901180
  63.4752070  70.4281940  77.3768980  62.7965330  71.7033690  77.8298980
  70.8747340  69.0735430  74.3727560  70.1812500  69.0712720  73.7129840
  71.6170200  68.6494750  73.9421730  70.4397270  70.6998140  78.4476050
  70.8954220  69.9187520  78.7614670  70.7789790  71.4104960  78.9917230
  62.9618590  55.6020360  80.6427360  62.5186740  56.3829900  80.3111880
  63.5203580  55.9250250  81.3498300  66.0777410  55.2231060  75.5233190
  65.4531590  55.2190930  76.2486500  65.9907530  54.3562020  75.1269160
  64.9994490  56.1467690  82.5016960  65.2966820  57.0530520  82.4208980
  65.5480050  55.6586470  81.8876530  62.7532810  60.7253930  78.3708610
  62.5273730  60.5091100  79.2755230  61.9725340  61.1582390  78.0254580
  69.9830570  60.7317300  76.9699260  69.3839460  61.4553100  76.7862880
  70.5310180  60.6694080  76.1875710  68.5895440  59.3680840  79.0002540
  68.9825010  59.6853040  78.1871230  68.9512290  58.4892720  79.1147060
  57.6259610  55.9581640  81.2232740  57.3372660  56.5284500  81.9357720
  58.3705370  55.4786090  81.5863970  57.8129840  59.9001760  72.4335460
  57.7304510  60.8432520  72.5750450  57.4612900  59.7576670  71.5547810
  69.1750580  61.9586590  83.0953320  68.4431700  62.4673400  83.4443420
  68.7774920  61.1416570  82.7942100  65.6127970  58.6340790  81.5005810
  65.6164030  58.1930740  80.6510350  66.5079090  58.9558120  81.6077630
  61.4630350  58.5167280  80.4600020  61.1230400  58.9942510  81.2167070
  60.7007670  58.0632400  80.1001120  65.6748120  59.6352870  74.4912570
  65.7960940  59.5939350  75.4398390  65.2896630  60.4977020  74.3359300
  69.6376490  57.4120270  82.5076260  69.6549230  57.8628920  83.3518110
  69.3892070  56.5125910  82.7209700  64.6869620  61.9454010  73.8895870
  64.1186520  61.4972260  73.2631780  65.3958620  62.3046790  73.3561020
  65.9135940  62.6942570  83.2471220  66.2806070  62.2201140  83.9932560
  65.7241000  63.5684140  83.5879560  58.7776430  57.4386260  79.3764690
  58.4923350  57.0741930  80.2143310  58.7155290  56.7066720  78.7627830
  63.7035310  61.7351210  85.5655430  63.3992380  62.6143190  85.7905790
  64.6581770  61.7951000  85.6012870  62.2317100  65.9412200  76.1622280
  61.4579360  65.4009820  76.0021000  62.9611730  65.4218810  75.8240040
  72.9905080  64.9377560  81.9548670  73.7104200  65.4332850  81.5644780
  72.7886900  64.2595450  81.3102540  68.4515020  56.3315520  76.0978060
  67.6379630  55.8328690  76.0223370  68.2576970  57.1713770  75.6814410
  71.1663410  60.7035170  74.3940220  72.0543030  61.0152400  74.2191560
  71.1368500  59.8307420  74.0020800  62.2754500  65.6092580  79.8001090
  62.7933170  64.8060840  79.7457980  61.8238520  65.5471720  80.6417920
  67.1624000  66.8758860  75.0728390  67.5039700  67.6201090  74.5771710
  66.3336710  67.1889980  75.4353220  73.4377680  62.0147010  73.8620080
  73.3541400  62.4461230  73.0116520  74.1571870  62.4745360  74.2946900
  74.4664930  68.8689270  76.5902210  73.8241090  68.2144890  76.8645930
  74.0795590  69.2744360  75.8142880  70.0451410  66.1974700  80.4373900
  70.3975230  65.6002830  79.7775270  69.1613740  65.8718930  80.6082150
  66.1314690  66.9572390  77.8444310  66.8185820  67.5041600  78.2251900
  65.3447110  67.5013120  77.8793920  58.2707090  62.5745210  73.3361390
  59.1401940  62.8570010  73.6197310  57.7797410  63.3881080  73.2210200
  65.4341900  63.9618420  77.4569670  65.8904680  64.7723670  77.6829860
  65.0830110  63.6441560  78.2888160  67.7374510  69.4724760  84.6861970
  68.3816730  69.6784140  85.3635390  68.1003950  68.7113160  84.2332820
  61.3353680  54.3056070  77.9292190  61.2068310  54.2973970  78.8777110
  60.5115700  54.6439160  77.5783200  69.0106590  67.4757110  83.4039420
  69.6528820  66.7750270  83.5171590  69.5355940  68.2555550  83.2236310
  72.8562310  67.7605730  73.1278560  72.6299890  67.0436170  73.7203200
  72.4658510  67.5118170  72.2900310  58.6378340  71.7872590  73.9023020
  58.9975980  72.3861930  73.2480290  58.4970680  72.3332480  74.6758050
  72.4378560  65.6777670  74.7892720  72.1500260  66.1390360  75.5770600
  73.2330730  65.2175440  75.0576940  64.6546960  69.1703790  74.7196690
  64.6457060  69.9033480  74.1041200  63.7345320  68.9235370  74.8123650
  60.2553600  64.3918680  75.4643450  59.6481550  65.1317580  75.4738750
  60.7302950  64.4818040  74.6381650  69.8286390  58.5569500  85.1400340
  70.1967210  57.7364710  85.4679910  68.9684590  58.6171390  85.5555990
  73.1948420  57.5126440  75.9487900  72.5661580  57.6172110  75.2346130
  72.7000340  57.7323220  76.7381780  67.6406560  69.2332030  73.3821880
  67.7418540  69.0296020  72.4523860  66.7408300  68.9790310  73.5869660
  65.1632450  59.7912390  77.3645780  64.4548600  60.2598730  77.8059390
  65.4476930  59.1334400  77.9990970  69.1947880  56.5163050  78.8041570
  69.0715660  56.5349180  77.8551080  70.1432440  56.5641990  78.9239970
  66.2824670  71.7518350  78.0769550  66.5366170  71.7139740  77.1548920
  65.3337150  71.6251680  78.0697800  63.3667470  58.0997470  74.7396490
  64.2158000  58.5367620  74.6736680  62.9998740  58.4117730  75.5668550
  72.2877250  62.6710230  79.6528060  71.3467390  62.6860460  79.8275750
  72.6021320  61.8846190  80.0988360  62.2658890  64.3529830  73.2132020
  63.0322160  64.2411190  73.7757450  62.3433580  63.6567800  72.5608790
  60.9605650  61.7854900  73.8964910  61.0409240  60.8382410  74.0082310
  61.8525400  62.1161780  74.0025570  74.2902830  69.8419080  81.3282320
  74.4150250  70.6650250  81.8006130  75.1568390  69.6309810  80.9806470
  61.7620360  71.9350290  80.9999450  62.4982840  71.3865750  81.2708020
  62.1461280  72.8006300  80.8605440  58.6465840  68.0023860  76.8740960
  57.7205620  68.2445000  76.8646370  59.1122270  68.8298120  76.7525710
  64.8722670  71.1080600  72.8225020  65.6651280  71.3969430  72.3706810
  64.3527020  70.6772770  72.1437500  73.9252840  70.3350730  74.2461760
  73.6394350  69.9215870  73.4315940  73.7272390  71.2638440  74.1262280
  65.3900070  66.3284010  72.6867370  65.2850710  65.7136360  73.4128750
  65.2224290  65.8049900  71.9030380  68.6302800  65.3904040  73.2909360
  68.0812900  65.8373340  73.9352100  69.2522060  64.8853290  73.8147030
  64.2977920  64.3494960  75.1874660  64.7194340  64.1834830  76.0306050
  64.4228760  63.5395190  74.6929800  66.8105560  63.3732570  72.4351760
  67.3311220  62.6581590  72.0692910  67.4573960  64.0118440  72.7352270
  65.7139080  55.8527120  85.1070320  65.2656380  55.8751380  84.2615870
  65.0804280  55.4546140  85.7040620  66.1198630  64.7481450  85.7282760
  66.5386740  65.5914180  85.5559000  65.2007260  64.8853490  85.4989540
  63.1936820  60.4228190  72.1332820  62.9925880  59.5595550  72.4946160
  63.0228870  60.3361550  71.1954420  70.6725130  55.2336420  74.6619700
  70.9527420  54.3904320  75.0179120  69.8990860  55.4659530  75.1758450
  61.9919620  57.5228810  72.1210700  62.2945520  57.5296240  71.2129850
  62.7314210  57.1726670  72.6178360  65.2104550  56.4663430  73.1066900
  64.8626550  55.7887420  72.5269350  65.4117320  56.0052940  73.9210290
  67.3753590  71.4544180  74.7253500  68.2704380  71.7929150  74.7472260
  67.4071220  70.7323590  74.0977780  61.0149750  66.8271230  72.9540500
  61.4524620  67.3700900  73.6098080  61.4997480  66.0018180  72.9636840
  58.2295550  69.6160260  80.4060760  58.5598560  68.7481320  80.1739400
  58.6586550  69.8218780  81.2365720  62.8257470  67.9469270  78.0662730
  62.5253010  67.8234240  78.9666640  62.7194960  67.0877860  77.6578460
  58.7185760  70.4830850  83.1442390  58.2816750  70.6631650  83.9766540
  59.2863440  71.2405470  83.0024110  75.5949390  67.7265670  72.7689410
  74.7642350  67.7942320  73.2396640  75.7721220  68.6169790  72.4656270
  75.0505850  64.4713150  75.2723610  75.8124760  65.0409800  75.3783300
  75.0660220  63.9040350  76.0431920  58.5510190  62.9951080  79.5031270
  57.8959030  62.7262720  78.8590970  59.3888140  62.8855560  79.0533250
  76.0565820  65.3263250  80.1165540  76.4274650  64.5430570  79.7101510
  76.6967750  66.0152350  79.9382840  73.0399580  66.7099830  85.5295860
  72.2259420  67.1396990  85.7921650  73.4473780  67.3218240  84.9164910
  75.1025020  64.7647520  72.4296130  75.3773860  65.6726400  72.3015350
  74.9135760  64.7010050  73.3658120  71.5000630  57.7892370  73.7249760
  71.9185510  57.6023350  72.8846420  71.1936690  56.9371420  74.0352690
  74.9990360  62.7016510  77.4225560  74.6233960  61.9344440  76.9906850
  74.2693480  63.0839210  77.9100490  59.5886120  63.3803650  84.0434610
  59.9559160  63.2931050  84.9230630  59.0196940  62.6170200  83.9441470
  57.7648270  60.2050010  75.4456600  56.8612350  60.4680210  75.2708260
  58.2488890  60.4761180  74.6656560  74.2741320  60.9274000  80.7232800
  74.7978800  60.4336650  80.0922970  74.8600740  61.0624360  81.4680370
  74.4531040  61.0113870  84.2452350  73.5033750  60.9777410  84.3597340
  74.6344050  61.9213980  84.0102120  60.3075480  59.2615550  73.3550980
  61.0167180  58.8398770  72.8698260  59.5915420  59.3290780  72.7234330
  59.9549640  55.3154880  72.3953630  60.6777770  55.8563820  72.7134850
  60.2274160  55.0418300  71.5195170  73.7641290  60.1847350  76.6625210
  74.2600410  59.9518220  77.4474090  73.5657360  59.3459190  76.2462850
  59.6441830  54.5661070  82.2976250  60.2918020  54.0158450  81.8571410
  60.0643670  54.8204220  83.1192060  75.1928450  58.8208300  79.1962890
  75.0827730  58.6664340  80.1345160  75.9536040  58.2929240  78.9538300
  76.0818720  56.6516220  72.4369030  77.0068030  56.5197400  72.2287320
  76.0594510  56.7309040  73.3905480  76.1557210  57.4226880  75.0625740
  75.3608710  57.3572000  75.5918650  76.3600490  58.3577520  75.0511090
  73.0975630  71.4618430  79.0564130  73.6934700  71.1403000  78.3798550
  73.3553780  70.9890250  79.8477400  59.3973830  54.7216740  85.0401570
  59.0488650  55.1780560  85.8059750  59.0661530  53.8273870  85.1224000
  64.7044230  69.4495930  84.8064480  64.4635590  69.7170490  83.9195000
  65.6446870  69.6201660  84.8615340  70.2881250  54.1330820  84.5282570
  69.4141090  54.4665930  84.3255500  70.1792000  53.6604000  85.3534440
  71.1953230  56.3401690  85.9124290  70.8666590  55.5253450  85.5326020
  72.1435530  56.2971500  85.7889980  73.6487840  72.1113730  82.8861860
  73.1890810  72.8629540  82.5119880  73.0200300  71.3920200  82.8276660
  60.4738460  68.2056970  85.2760580  59.7472520  67.5862260  85.2086530
  60.5347610  68.5997580  84.4058660  64.0783560  70.4201970  82.0609990
  64.5948580  69.8089330  81.5358250  64.7280940  70.9230750  82.5521000
  66.8179060  71.3110460  82.8878970  67.1056870  71.0564760  82.0111980
  67.3302280  70.7587820  83.4784540  68.0356070  55.0500660  83.4675480
  67.2527860  55.5246160  83.7472240  67.7419000  54.1455490  83.3588660
  72.5877140  55.7523760  81.5124570  73.0285230  55.6968860  80.6646170
  72.3184730  56.6681770  81.5834750  74.4515710  55.3839000  79.5233390
  74.3904110  54.4400220  79.3764410  75.2307740  55.4919090  80.0686850
  58.7568460  71.5231360  78.4857340  58.5890500  70.8902040  79.1839230
  57.8902970  71.7290760  78.1351530  59.3796480  55.3548140  75.9889200
  60.1375840  55.4677020  75.4153230  58.9173650  56.1917340  75.9432630
  65.9210290  57.4687410  78.9791510  65.1084800  57.0944300  78.6387390
  66.4251930  56.7132490  79.2812700  70.4235270  54.1329860  80.2174580
  71.0264640  54.7050070  80.6923100  69.6828260  54.6969300  79.9948480
  73.5669870  54.5351420  75.4914860  73.7620500  55.4334870  75.7582290
  72.7799740  54.3038500  75.9847810  60.3631160  70.2164590  75.9307480
  59.8378780  70.5972620  75.2269440  60.2875740  70.8415360  76.6517190
  61.7521630  55.8812190  74.5291170  62.2814390  55.0941990  74.3999120
  62.3849950  56.5603380  74.7626700  63.9459470  55.6187330  77.5836560
  63.3162210  54.9174640  77.7506690  63.4064610  56.3791460  77.3669720
  75.1196480  71.7752130  77.2521420  75.2948670  71.0889870  76.6082340
  74.4218050  72.2999180  76.8598090  62.9624130  72.1646970  74.8056730
  63.6942950  71.8806250  74.2580620  63.2217800  71.9260250  75.6956110
  62.1238920  68.2811700  74.8103060  61.4947800  68.7496800  75.3588890
  62.2386750  67.4360920  75.2449250  69.5788640  62.3317360  60.9604260
  69.4982690  61.4171970  60.6895970  69.1653060  62.8284430  60.2543970
  67.7106680  64.1096380  62.8413530  66.9348780  63.6296820  63.1312100
  68.3619610  63.4302030  62.6669690  61.7272510  64.4216190  63.7189290
  60.8957390  64.1664900  64.1185800  62.3353490  64.4926960  64.4547210
  71.7314110  68.5156570  61.6212660  71.2695640  67.7443810  61.9499830
  72.5439660  68.5422640  62.1265110  61.7073770  68.4556280  63.9147310
  62.0101810  67.5654020  63.7357530  62.4517360  69.0126500  63.6869560
  60.1364460  59.3818080  57.5031680  59.2481160  59.7234050  57.4011560
  60.4205650  59.1818400  56.6112510  58.0997470  61.9823730  63.3871380
  58.6713580  61.2145930  63.3875020  58.0999010  62.2812490  62.4777990
  67.9577420  70.8014580  61.2416650  67.3388860  71.2572080  60.6711090
  68.8129200  70.9566040  60.8406350  67.1515670  66.7853570  62.8483690
  67.0823950  65.8443510  62.6872820  67.9135530  66.8754980  63.4206260
  59.3422340  57.3908090  65.1740310  59.1625180  56.4933840  65.4543070
  58.9402420  57.9379960  65.8487260  68.1820840  59.5923950  63.0752620
  68.5585660  58.7195830  62.9626290  68.0840350  59.9282650  62.1843060
  62.3125850  57.9649580  58.5370060  62.4192600  58.8653310  58.8438820
  61.4018210  57.9167550  58.2464710  71.9644960  57.0874390  60.0080960
  72.7854580  56.5970960  60.0506440  71.9979040  57.6772050  60.7612800
  59.9609010  59.8868590  63.7822650  60.6419120  60.1506960  64.4010050
  59.6457060  59.0469460  64.1160660  64.1533580  60.9335950  62.8695240
  64.6611800  61.4316920  63.5100260  64.6846820  60.1571150  62.6934600
  76.2544510  59.1041140  66.5724590  75.5496680  59.4922850  66.0539700
  76.5202430  59.7991430  67.1745520  62.4369680  55.5734510  67.1358660
  62.4388120  56.0906900  66.3304560  61.6073990  55.0964690  67.1128590
  68.8240770  65.6853820  58.6348560  68.2058040  66.1503270  58.0711280
  69.3364020  66.3781300  59.0518070  63.6872530  65.2129690  65.3132160
  63.3541910  65.8398610  65.9553230  63.8639210  65.7391570  64.5333830
  72.2006440  59.0274770  62.7808500  71.4962010  59.3159660  63.3611610
  72.5618600  59.8374880  62.4208060  62.1185010  57.2844470  65.1429110
  62.4601820  58.1286520  64.8482980  61.1800820  57.4328210  65.2594450
  62.8991630  67.1810490  67.1281340  63.5165630  67.8561570  66.8465790
  62.0384750  67.5898470  67.0368840  58.1923970  66.3710350  56.0088190
  57.8151950  66.8597450  55.2773090  58.4497040  67.0435630  56.6394720
  73.8169220  68.6449900  65.0435980  73.1332740  69.3149010  65.0352650
  74.3563510  68.8430550  64.2780840  75.2693360  58.4729560  63.1717710
  74.3218270  58.5068540  63.3033140  75.5943350  59.2868510  63.5567070
  65.8012900  54.7726740  61.4673700  66.1087880  54.2173630  60.7509200
  64.8713600  54.9071200  61.2846690  71.3527960  70.4894030  63.7581160
  71.3655120  70.0856320  62.8903420  70.8003180  71.2641320  63.6542590
  72.6473380  67.2110250  58.8471330  72.5369710  66.2684580  58.9720750
  72.6441630  67.5725890  59.7334090  70.7513400  65.3923870  65.0863770
  71.1682190  65.1783980  64.2517230  71.4753220  65.6496660  65.6572390
  68.1893660  62.8375570  58.2033820  67.2622940  62.7712950  58.4322290
  68.3418480  63.7755700  58.0889060  68.1762740  59.1092570  55.2000980
  67.2366410  59.2706530  55.2853440  68.4946000  59.8278250  54.6536970
  74.6975500  63.7911090  65.1780010  73.8694130  63.8604180  64.7030140
  75.2925980  64.3765400  64.7095840  72.2190950  64.3995870  58.7069070
  71.6003370  64.0615420  58.0595370  72.2015400  63.7555630  59.4148260
  71.6617510  60.5780410  66.1234880  71.2488690  61.4034120  66.3774870
  70.9293460  59.9925450  65.9311240  63.7950300  63.3640310  60.9853550
  63.3907300  62.6517560  60.4899450  63.8813420  63.0193550  61.8741590
  64.2632000  67.0507870  63.1492760  63.9660290  66.4453340  62.4700540
  65.2131820  67.0885180  63.0382120  62.5078920  60.1383520  64.7652590
  63.0593510  60.2478860  63.9905840  63.0222430  60.5121120  65.4807820
  72.3517610  70.6239740  66.8115860  71.8748170  71.4311930  66.6188470
  71.6679400  69.9718070  66.9642070  63.3550430  66.7889560  69.8000560
  62.4578960  67.0129530  70.0473960  63.3803300  66.9124500  68.8511960
  70.3955650  63.6382680  55.7141820  70.8348930  62.8005110  55.5679640
  71.1084070  64.2712080  55.8005960  62.1821650  63.6602880  68.3757930
  62.0429420  64.5325680  68.7445330  61.3003010  63.3175690  68.2305870
  68.5051030  68.5778750  59.6823060  68.9446940  69.3203080  59.2678450
  68.4437920  68.8205320  60.6062020  63.9802000  69.6024580  70.5843080
  63.9517430  70.0067530  69.7171510  63.8166970  68.6734940  70.4214680
  73.9772790  54.8925490  54.0282860  73.6645450  54.9852320  54.9281930
  74.7385260  55.4706520  53.9780290  60.4954930  62.2585290  58.4860200
  60.3752530  62.9847380  57.8741470  60.1855820  61.4888200  58.0088110
  75.9316820  70.3851680  71.8807250  76.4076540  70.8634570  72.5596330
  76.5523980  70.3169170  71.1552750  58.1340300  65.4300430  64.2928840
  58.2120720  65.5649200  63.3484560  58.7481980  64.7216320  64.4856960
  59.3787930  67.1300620  60.7035020  58.9716010  67.2715210  59.8488620
  60.2700940  66.8460780  60.5006230  75.3350070  67.5764530  69.0407260
  75.4613130  67.3376410  68.1224440  75.3771450  66.7449070  69.5129340
  69.1966810  71.2792530  67.6102070  69.7111480  71.1900540  68.4124500
  68.3535890  71.6252230  67.9029980  71.1721210  71.5647870  57.0386070
  71.0122350  71.2750810  57.9367900  71.0067920  70.7888000  56.5031300
  63.6509590  71.3446400  58.8157690  63.4752070  70.4281940  58.6025490
  62.7965330  71.7033690  59.0555490  70.8747340  69.0735430  55.5984070
  70.1812500  69.0712720  54.9386350  71.6170200  68.6494750  55.1678240
  70.4397270  70.6998140  59.6732560  70.8954220  69.9187520  59.9871180
  70.7789790  71.4104960  60.2173740  75.1874080  59.6296990  70.0057000
  74.5718350  60.1376660  69.4772460  74.8670500  58.7295320  69.9482940
  58.1899820  66.4714600  66.8323300  58.3530860  66.0019960  66.0142670
  58.6552270  65.9638160  67.4972140  62.9618590  55.6020360  61.8683870
  62.5186740  56.3829900  61.5368390  63.5203580  55.9250250  62.5754810
  67.2488400  58.4688880  67.4719190  66.7867770  58.6771900  68.2839130
  66.8466510  57.6548230  67.1689860  72.2492910  59.6897830  68.6015850
  71.3986500  59.3903580  68.9224920  72.0894700  59.9339840  67.6899670
  69.3442620  61.1899580  70.7014640  69.6696030  60.3563330  70.3616870
  70.1322950  61.7128100  70.8492970  66.0777410  55.2231060  56.7489700
  65.4531590  55.2190930  57.4743010  65.9907530  54.3562020  56.3525670
  64.9994490  56.1467690  63.7273470  65.2966820  57.0530520  63.6465490
  65.5480050  55.6586470  63.1133040  62.7532810  60.7253930  59.5965120
  62.5273730  60.5091100  60.5011740  61.9725340  61.1582390  59.2511090
  69.9830570  60.7317300  58.1955770  69.3839460  61.4553100  58.0119390
  70.5310180  60.6694080  57.4132220  65.1932020  61.6239510  70.2625390
  65.0975620  60.6834240  70.1125790  66.0364000  61.8454580  69.8673460
  68.5895440  59.3680840  60.2259050  68.9825010  59.6853040  59.4127740
  68.9512290  58.4892720  60.3403570  60.3242560  58.0353180  68.4159170
  59.9305950  58.8828390  68.6231950  59.6360960  57.3979550  68.6067810
  66.8987610  58.1188150  71.4855910  66.2085930  57.9260350  72.1202000
  67.6419910  58.4022790  72.0180210  57.6259610  55.9581640  62.4489250
  57.3372660  56.5284500  63.1614230  58.3705370  55.4786090  62.8120480
  57.8129840  59.9001760  53.6591970  57.7304510  60.8432520  53.8006960
  57.4612900  59.7576670  52.7804320  69.1750580  61.9586590  64.3209830
  68.4431700  62.4673400  64.6699930  68.7774920  61.1416570  64.0198610
  65.6127970  58.6340790  62.7262320  65.6164030  58.1930740  61.8766860
  66.5079090  58.9558120  62.8334140  61.4630350  58.5167280  61.6856530
  61.1230400  58.9942510  62.4423580  60.7007670  58.0632400  61.3257630
  65.6748120  59.6352870  55.7169080  65.7960940  59.5939350  56.6654900
  65.2896630  60.4977020  55.5615810  69.6376490  57.4120270  63.7332770
  69.6549230  57.8628920  64.5774620  69.3892070  56.5125910  63.9466210
  64.6869620  61.9454010  55.1152380  64.1186520  61.4972260  54.4888290
  65.3958620  62.3046790  54.5817530  73.0647240  54.8252450  69.5719150
  73.3893010  54.0942110  70.0977130  73.1003750  54.5066090  68.6700140
  59.7638800  65.8466030  68.9919110  59.3793590  65.2059700  69.5902070
  60.0750990  66.5502150  69.5613840  65.9135940  62.6942570  64.4727730
  66.2806070  62.2201140  65.2189070  65.7241000  63.5684140  64.8136070
  58.7776430  57.4386260  60.6021200  58.4923350  57.0741930  61.4399820
  58.7155290  56.7066720  59.9884340  63.7035310  61.7351210  66.7911940
  63.3992380  62.6143190  67.0162300  64.6581770  61.7951000  66.8269380
  62.2317100  65.9412200  57.3878790  61.4579360  65.4009820  57.2277510
  62.9611730  65.4218810  57.0496550  72.9905080  64.9377560  63.1805180
  73.7104200  65.4332850  62.7901290  72.7886900  64.2595450  62.5359050
  68.4515020  56.3315520  57.3234570  67.6379630  55.8328690  57.2479880
  68.2576970  57.1713770  56.9070920  68.3723880  65.0086620  69.0674180
  68.3061190  64.0882290  68.8131770  67.7429020  65.1062060  69.7818820
  71.1663410  60.7035170  55.6196730  72.0543030  61.0152400  55.4448070
  71.1368500  59.8307420  55.2277310  62.2754500  65.6092580  61.0257600
  62.7933170  64.8060840  60.9714490  61.8238520  65.5471720  61.8674430
  67.1624000  66.8758860  56.2984900  67.5039700  67.6201090  55.8028220
  66.3336710  67.1889980  56.6609730  59.7599040  62.5753950  67.9383300
  59.4013980  63.2407800  68.5256640  59.4653600  61.7437500  68.3095920
  62.9612160  63.0338190  70.8222850  62.6612300  63.1795370  69.9250670
  63.7323400  62.4743480  70.7296240  68.3040610  67.8307190  68.8177980
  68.3185150  66.8988150  68.5996890  67.5965710  67.9166950  69.4567750
  73.4377680  62.0147010  55.0876590  73.3541400  62.4461230  54.2373030
  74.1571870  62.4745360  55.5203410  74.5151820  64.4714530  68.1646560
  73.7900010  65.0643310  67.9675950  75.0427280  64.4638070  67.3659930
  74.4664930  68.8689270  57.8158720  73.8241090  68.2144890  58.0902440
  74.0795590  69.2744360  57.0399390  70.0451410  66.1974700  61.6630410
  70.3975230  65.6002830  61.0031780  69.1613740  65.8718930  61.8338660
  66.1314690  66.9572390  59.0700820  66.8185820  67.5041600  59.4508410
  65.3447110  67.5013120  59.1050430  58.2707090  62.5745210  54.5617900
  59.1401940  62.8570010  54.8453820  57.7797410  63.3881080  54.4466710
  65.4341900  63.9618420  58.6826180  65.8904680  64.7723670  58.9086370
  65.0830110  63.6441560  59.5144670  67.7374510  69.4724760  65.9118480
  68.3816730  69.6784140  66.5891900  68.1003950  68.7113160  65.4589330
  61.3353680  54.3056070  59.1548700  61.2068310  54.2973970  60.1033620
  60.5115700  54.6439160  58.8039710  69.0106590  67.4757110  64.6295930
  69.6528820  66.7750270  64.7428100  69.5355940  68.2555550  64.4492820
  72.8562310  67.7605730  54.3535070  72.6299890  67.0436170  54.9459710
  72.4658510  67.5118170  53.5156820  70.7844210  68.2752010  67.8331990
  71.1200450  68.8618700  68.5109910  69.8644550  68.1444720  68.0629780
  58.6378340  71.7872590  55.1279530  58.9975980  72.3861930  54.4736800
  58.4970680  72.3332480  55.9014560  58.3347610  56.0647190  68.6155400
  57.6206130  56.2644110  69.2208010  58.7542650  55.2886760  68.9870200
  72.4378560  65.6777670  56.0149230  72.1500260  66.1390360  56.8027110
  73.2330730  65.2175440  56.2833450  58.6220200  70.0527450  69.6021930
  58.7311320  69.1122190  69.4617320  57.9700760  70.3182200  68.9535660
  66.6132790  68.3243340  71.0020050  66.2929660  67.6052580  71.5465740
  65.9391150  68.9998410  71.0756110  64.6546960  69.1703790  55.9453200
  64.6457060  69.9033480  55.3297710  63.7345320  68.9235370  56.0380160
  60.2553600  64.3918680  56.6899960  59.6481550  65.1317580  56.6995260
  60.7302950  64.4818040  55.8638160  69.8286390  58.5569500  66.3656850
  70.1967210  57.7364710  66.6936420  68.9684590  58.6171390  66.7812500
  73.1948420  57.5126440  57.1744410  72.5661580  57.6172110  56.4602640
  72.7000340  57.7323220  57.9638290  67.6406560  69.2332030  54.6078390
  67.7418540  69.0296020  53.6780370  66.7408300  68.9790310  54.8126170
  65.1632450  59.7912390  58.5902290  64.4548600  60.2598730  59.0315900
  65.4476930  59.1334400  59.2247480  66.7888380  61.2109090  66.5894820
  67.2873630  61.6854910  67.2546670  66.9311330  60.2872610  66.7964850
  69.1947880  56.5163050  60.0298080  69.0715660  56.5349180  59.0807590
  70.1432440  56.5641990  60.1496480  66.2824670  71.7518350  59.3026060
  66.5366170  71.7139740  58.3805430  65.3337150  71.6251680  59.2954310
  63.3667470  58.0997470  55.9653000  64.2158000  58.5367620  55.8993190
  62.9998740  58.4117730  56.7925060  73.9955240  57.4277050  67.4323210
  73.4928840  58.1682450  67.7717020  74.8111900  57.8161050  67.1160000
  72.2877250  62.6710230  60.8784570  71.3467390  62.6860460  61.0532260
  72.6021320  61.8846190  61.3244870  62.2658890  64.3529830  54.4388530
  63.0322160  64.2411190  55.0013960  62.3433580  63.6567800  53.7865300
  60.9605650  61.7854900  55.1221420  61.0409240  60.8382410  55.2338820
  61.8525400  62.1161780  55.2282080  74.2902830  69.8419080  62.5538830
  74.4150250  70.6650250  63.0262640  75.1568390  69.6309810  62.2062980
  61.7620360  71.9350290  62.2255960  62.4982840  71.3865750  62.4964530
  62.1461280  72.8006300  62.0861950  58.6465840  68.0023860  58.0997470
  57.7205620  68.2445000  58.0902880  59.1122270  68.8298120  57.9782220
  60.7678640  71.1196360  71.4141540  61.5691370  71.4408410  71.8276940
  60.2530460  70.7591940  72.1361450  64.8722670  71.1080600  54.0481530
  65.6651280  71.3969430  53.5963320  64.3527020  70.6772770  53.3694010
  69.6043270  67.2276230  71.3616950  68.9981430  67.2507830  70.6212700
  69.2997380  66.4959270  71.8984200  71.0343640  70.9556520  69.9726360
  71.9865390  70.8714540  69.9226600  70.8871860  71.6198230  70.6460150
  73.9252840  70.3350730  55.4718270  73.6394350  69.9215870  54.6572450
  73.7272390  71.2638440  55.3518790  58.4876450  63.6069820  70.3577590
  58.9915470  63.0277100  70.9293820  57.7483870  63.8910050  70.8953960
  65.3900070  66.3284010  53.9123880  65.2850710  65.7136360  54.6385260
  65.2224290  65.8049900  53.1286890  65.5414390  65.0140810  69.8913110
  64.7760060  65.5825810  69.8067780  65.7230350  64.7217020  68.9981340
  68.6302800  65.3904040  54.5165870  68.0812900  65.8373340  55.1608610
  69.2522060  64.8853290  55.0403540  72.6837740  66.7446140  70.4488130
  73.4247210  67.0821900  69.9455590  71.9210420  66.9138200  69.8957900
  60.5199530  61.7499410  71.2527660  60.5604870  61.4513280  72.1612890
  61.3745030  62.1507020  71.0935180  64.2977920  64.3494960  56.4131170
  64.7194340  64.1834830  57.2562560  64.4228760  63.5395190  55.9186310
  62.4605340  60.3291510  69.2202150  61.9301800  59.8382460  68.5925490
  63.1293410  60.7575710  68.6860080  66.8105560  63.3732570  53.6608270
  67.3311220  62.6581590  53.2949420  67.4573960  64.0118440  53.9608780
  71.3583400  64.7960970  68.9843340  71.7724420  64.9506050  69.8333760
  70.4234400  64.9216190  69.1469120  71.8305570  62.1357130  70.9882490
  72.4126340  61.3809450  70.9002970  72.0067340  62.6664570  70.2113970
  62.9477640  57.2953880  69.2999440  62.8534510  56.6774630  68.5750310
  62.3675030  58.0220170  69.0729350  65.7139080  55.8527120  66.3326830
  65.2656380  55.8751380  65.4872380  65.0804280  55.4546140  66.9297130
  66.1198630  64.7481450  66.9539270  66.5386740  65.5914180  66.7815510
  65.2007260  64.8853490  66.7246050  68.4562530  62.4797630  68.3377110
  68.5758740  61.8838770  69.0771950  69.3156530  62.5167320  67.9178410
  70.7950430  63.0334820  66.9139620  70.2685650  63.5577440  66.3104760
  71.1381770  63.6662210  67.5449350  63.1936820  60.4228190  53.3589330
  62.9925880  59.5595550  53.7202670  63.0228870  60.3361550  52.4210930
  63.9706050  71.0534460  68.0697000  63.4327140  71.7780520  67.7505700
  64.2240010  70.5764800  67.2794340  65.2231300  59.0218980  69.5952930
  65.8130990  58.7134830  70.2830750  64.4051540  58.5498730  69.7512830
  70.0424730  58.6384790  69.8285950  69.3540250  57.9766330  69.7635940
  70.7630750  58.1923060  70.2734410  70.6725130  55.2336420  55.8876210
  70.9527420  54.3904320  56.2435630  69.8990860  55.4659530  56.4014960
  61.9919620  57.5228810  53.3467210  62.2945520  57.5296240  52.4386360
  62.7314210  57.1726670  53.8434870  66.8268260  72.2885670  68.3283650
  66.7526960  73.1920810  68.6356020  65.9247100  71.9697570  68.3005720
  65.2104550  56.4663430  54.3323410  64.8626550  55.7887420  53.7525860
  65.4117320  56.0052940  55.1466800  67.3753590  71.4544180  55.9510010
  68.2704380  71.7929150  55.9728770  67.4071220  70.7323590  55.3234290
  61.0149750  66.8271230  54.1797010  61.4524620  67.3700900  54.8354590
  61.4997480  66.0018180  54.1893350  58.2295550  69.6160260  61.6317270
  58.5598560  68.7481320  61.3995910  58.6586550  69.8218780  62.4622230
  62.8257470  67.9469270  59.2919240  62.5253010  67.8234240  60.1923150
  62.7194960  67.0877860  58.8834970  58.7185760  70.4830850  64.3698900
  58.2816750  70.6631650  65.2023050  59.2863440  71.2405470  64.2280620
  74.3547940  69.9847850  68.6576210  73.7549930  70.0440410  67.9140130
  74.4841840  69.0452830  68.7873060  75.5949390  67.7265670  53.9945920
  74.7642350  67.7942320  54.4653150  75.7721220  68.6169790  53.6912780
  75.0505850  64.4713150  56.4980120  75.8124760  65.0409800  56.6039810
  75.0660220  63.9040350  57.2688430  58.5510190  62.9951080  60.7287780
  57.8959030  62.7262720  60.0847480  59.3888140  62.8855560  60.2789760
  76.0565820  65.3263250  61.3422050  76.4274650  64.5430570  60.9358020
  76.6967750  66.0152350  61.1639350  73.0399580  66.7099830  66.7552370
  72.2259420  67.1396990  67.0178160  73.4473780  67.3218240  66.1421420
  75.1025020  64.7647520  53.6552640  75.3773860  65.6726400  53.5271860
  74.9135760  64.7010050  54.5914630  71.5000630  57.7892370  54.9506270
  71.9185510  57.6023350  54.1102930  71.1936690  56.9371420  55.2609200
  74.9990360  62.7016510  58.6482070  74.6233960  61.9344440  58.2163360
  74.2693480  63.0839210  59.1357000  59.5886120  63.3803650  65.2691120
  59.9559160  63.2931050  66.1487140  59.0196940  62.6170200  65.1697980
  74.3889980  61.8488030  68.2821590  74.1576070  61.6200780  67.3819540
  74.6494530  62.7687580  68.2366480  59.1402120  60.2912740  69.1749540
  58.2458170  60.2579500  69.5143250  59.6799670  60.4899530  69.9400790
  72.8278050  57.0744460  71.0601290  73.7048230  57.0827860  71.4435290
  72.8398890  56.3375300  70.4493640  57.7648270  60.2050010  56.6713110
  56.8612350  60.4680210  56.4964770  58.2488890  60.4761180  55.8913070
  74.2741320  60.9274000  61.9489310  74.7978800  60.4336650  61.3179480
  74.8600740  61.0624360  62.6936880  74.4531040  61.0113870  65.4708860
  73.5033750  60.9777410  65.5853850  74.6344050  61.9213980  65.2358630
  60.3075480  59.2615550  54.5807490  61.0167180  58.8398770  54.0954770
  59.5915420  59.3290780  53.9490840  59.9549640  55.3154880  53.6210140
  60.6777770  55.8563820  53.9391360  60.2274160  55.0418300  52.7451680
  73.7641290  60.1847350  57.8881720  74.2600410  59.9518220  58.6730600
  73.5657360  59.3459190  57.4719360  59.6441830  54.5661070  63.5232760
  60.2918020  54.0158450  63.0827920  60.0643670  54.8204220  64.3448570
  75.1928450  58.8208300  60.4219400  75.0827730  58.6664340  61.3601670
  75.9536040  58.2929240  60.1794810  73.5394170  54.7602430  66.8802400
  74.1766390  55.3736570  67.2461590  73.6869060  54.7963090  65.9351630
  76.0818720  56.6516220  53.6625540  77.0068030  56.5197400  53.4543830
  76.0594510  56.7309040  54.6161990  76.1557210  57.4226880  56.2882250
  75.3608710  57.3572000  56.8175160  76.3600490  58.3577520  56.2767600
  73.0975630  71.4618430  60.2820640  73.6934700  71.1403000  59.6055060
  73.3553780  70.9890250  61.0733910  59.3973830  54.7216740  66.2658080
  59.0488650  55.1780560  67.0316260  59.0661530  53.8273870  66.3480510
  61.0038200  67.8936340  70.4311270  60.9607830  67.5229250  71.3125730
  61.1349210  68.8313910  70.5713090  64.7044230  69.4495930  66.0320990
  64.4635590  69.7170490  65.1451510  65.6446870  69.6201660  66.0871850
  66.9098650  55.9128620  69.7877500  66.8487540  56.5050450  70.5372910
  67.8499030  55.8054580  69.6427760  69.5473210  55.5698680  69.4269790
  70.1613620  55.8877970  68.7650870  70.0922770  55.0847270  70.0465650
  75.9648390  71.4690310  66.8331630  75.4706670  71.8659180  66.1158760
  75.3561680  70.8439520  67.2268910  60.0694470  54.2492940  69.5408850
  60.6177460  54.0680990  68.7774960  60.1349780  53.4587050  70.0765160
  60.8426230  70.8398590  67.5509050  60.2486550  70.7083290  68.2899090
  60.8350070  70.0036730  67.0851150  70.2881250  54.1330820  65.7539080
  69.4141090  54.4665930  65.5512010  70.1792000  53.6604000  66.5790950
  71.1953230  56.3401690  67.1380800  70.8666590  55.5253450  66.7582530
  72.1435530  56.2971500  67.0146490  73.6487840  72.1113730  64.1118370
  73.1890810  72.8629540  63.7376390  73.0200300  71.3920200  64.0533170
  60.4738460  68.2056970  66.5017090  59.7472520  67.5862260  66.4343040
  60.5347610  68.5997580  65.6315170  64.0783560  70.4201970  63.2866500
  64.5948580  69.8089330  62.7614760  64.7280940  70.9230750  63.7777510
  66.8179060  71.3110460  64.1135480  67.1056870  71.0564760  63.2368490
  67.3302280  70.7587820  64.7041050  68.0356070  55.0500660  64.6931990
  67.2527860  55.5246160  64.9728750  67.7419000  54.1455490  64.5845170
  72.5877140  55.7523760  62.7381080  73.0285230  55.6968860  61.8902680
  72.3184730  56.6681770  62.8091260  74.4515710  55.3839000  60.7489900
  74.3904110  54.4400220  60.6020920  75.2307740  55.4919090  61.2943360
  58.7568460  71.5231360  59.7113850  58.5890500  70.8902040  60.4095740
  57.8902970  71.7290760  59.3608040  59.3796480  55.3548140  57.2145710
  60.1375840  55.4677020  56.6409740  58.9173650  56.1917340  57.1689140
  65.9210290  57.4687410  60.2048020  65.1084800  57.0944300  59.8643900
  66.4251930  56.7132490  60.5069210  70.4235270  54.1329860  61.4431090
  71.0264640  54.7050070  61.9179610  69.6828260  54.6969300  61.2204990
  73.5669870  54.5351420  56.7171370  73.7620500  55.4334870  56.9838800
  72.7799740  54.3038500  57.2104320  60.3631160  70.2164590  57.1563990
  59.8378780  70.5972620  56.4525950  60.2875740  70.8415360  57.8773700
  61.7521630  55.8812190  55.7547680  62.2814390  55.0941990  55.6255630
  62.3849950  56.5603380  55.9883210  63.9459470  55.6187330  58.8093070
  63.3162210  54.9174640  58.9763200  63.4064610  56.3791460  58.5926230
  66.8851420  72.2326560  71.4803680  67.8118730  71.9970830  71.5239640
  66.8701850  73.0598560  70.9989710  75.1196480  71.7752130  58.4777930
  75.2948670  71.0889870  57.8338850  74.4218050  72.2999180  58.0854600
  64.0715030  54.8971310  71.2445560  63.7899300  55.4004910  70.4806380
  64.4534730  54.0993060  70.8787690  62.9624130  72.1646970  56.0313240
  63.6942950  71.8806250  55.4837130  63.2217800  71.9260250  56.9212620
  62.1238920  68.2811700  56.0359570  61.4947800  68.7496800  56.5845400
  62.2386750  67.4360920  56.4705760  70.6730490  54.3124890  71.8226030
  70.5595940  54.6319500  72.7177550  71.4900230  54.7137400  71.5263310
  73.4528980  71.4596420  71.3044720  74.2454300  70.9645650  71.0970680
  73.7462130  72.1386560  71.9120330  69.5788640  62.3317360  42.1860770
  69.4982690  61.4171970  41.9152480  69.1653060  62.8284430  41.4800480
  67.7106680  64.1096380  44.0670040  66.9348780  63.6296820  44.3568610
  68.3619610  63.4302030  43.8926200  61.7272510  64.4216190  44.9445800
  60.8957390  64.1664900  45.3442310  62.3353490  64.4926960  45.6803720
  71.7314110  68.5156570  42.8469170  71.2695640  67.7443810  43.1756340
  72.5439660  68.5422640  43.3521620  61.7073770  68.4556280  45.1403820
  62.0101810  67.5654020  44.9614040  62.4517360  69.0126500  44.9126070
  60.1364460  59.3818080  38.7288190  59.2481160  59.7234050  38.6268070
  60.4205650  59.1818400  37.8369020  58.0997470  61.9823730  44.6127890
  58.6713580  61.2145930  44.6131530  58.0999010  62.2812490  43.7034500
  67.9577420  70.8014580  42.4673160  67.3388860  71.2572080  41.8967600
  68.8129200  70.9566040  42.0662860  67.1515670  66.7853570  44.0740200
  67.0823950  65.8443510  43.9129330  67.9135530  66.8754980  44.6462770
  59.3422340  57.3908090  46.3996820  59.1625180  56.4933840  46.6799580
  58.9402420  57.9379960  47.0743770  68.1820840  59.5923950  44.3009130
  68.5585660  58.7195830  44.1882800  68.0840350  59.9282650  43.4099570
  62.3125850  57.9649580  39.7626570  62.4192600  58.8653310  40.0695330
  61.4018210  57.9167550  39.4721220  71.9644960  57.0874390  41.2337470
  72.7854580  56.5970960  41.2762950  71.9979040  57.6772050  41.9869310
  59.9609010  59.8868590  45.0079160  60.6419120  60.1506960  45.6266560
  59.6457060  59.0469460  45.3417170  64.1533580  60.9335950  44.0951750
  64.6611800  61.4316920  44.7356770  64.6846820  60.1571150  43.9191110
  76.2544510  59.1041140  47.7981100  75.5496680  59.4922850  47.2796210
  76.5202430  59.7991430  48.4002030  62.4369680  55.5734510  48.3615170
  62.4388120  56.0906900  47.5561070  61.6073990  55.0964690  48.3385100
  68.8240770  65.6853820  39.8605070  68.2058040  66.1503270  39.2967790
  69.3364020  66.3781300  40.2774580  63.6872530  65.2129690  46.5388670
  63.3541910  65.8398610  47.1809740  63.8639210  65.7391570  45.7590340
  72.2006440  59.0274770  44.0065010  71.4962010  59.3159660  44.5868120
  72.5618600  59.8374880  43.6464570  62.1185010  57.2844470  46.3685620
  62.4601820  58.1286520  46.0739490  61.1800820  57.4328210  46.4850960
  62.8991630  67.1810490  48.3537850  63.5165630  67.8561570  48.0722300
  62.0384750  67.5898470  48.2625350  58.1923970  66.3710350  37.2344700
  57.8151950  66.8597450  36.5029600  58.4497040  67.0435630  37.8651230
  73.8169220  68.6449900  46.2692490  73.1332740  69.3149010  46.2609160
  74.3563510  68.8430550  45.5037350  75.2693360  58.4729560  44.3974220
  74.3218270  58.5068540  44.5289650  75.5943350  59.2868510  44.7823580
  65.8012900  54.7726740  42.6930210  66.1087880  54.2173630  41.9765710
  64.8713600  54.9071200  42.5103200  71.3527960  70.4894030  44.9837670
  71.3655120  70.0856320  44.1159930  70.8003180  71.2641320  44.8799100
  72.6473380  67.2110250  40.0727840  72.5369710  66.2684580  40.1977260
  72.6441630  67.5725890  40.9590600  70.7513400  65.3923870  46.3120280
  71.1682190  65.1783980  45.4773740  71.4753220  65.6496660  46.8828900
  68.1893660  62.8375570  39.4290330  67.2622940  62.7712950  39.6578800
  68.3418480  63.7755700  39.3145570  68.1762740  59.1092570  36.4257490
  67.2366410  59.2706530  36.5109950  68.4946000  59.8278250  35.8793480
  74.6975500  63.7911090  46.4036520  73.8694130  63.8604180  45.9286650
  75.2925980  64.3765400  45.9352350  72.2190950  64.3995870  39.9325580
  71.6003370  64.0615420  39.2851880  72.2015400  63.7555630  40.6404770
  71.6617510  60.5780410  47.3491390  71.2488690  61.4034120  47.6031380
  70.9293460  59.9925450  47.1567750  63.7950300  63.3640310  42.2110060
  63.3907300  62.6517560  41.7155960  63.8813420  63.0193550  43.0998100
  64.2632000  67.0507870  44.3749270  63.9660290  66.4453340  43.6957050
  65.2131820  67.0885180  44.2638630  62.5078920  60.1383520  45.9909100
  63.0593510  60.2478860  45.2162350  63.0222430  60.5121120  46.7064330
  72.3517610  70.6239740  48.0372370  71.8748170  71.4311930  47.8444980
  71.6679400  69.9718070  48.1898580  63.3550430  66.7889560  51.0257070
  62.4578960  67.0129530  51.2730470  63.3803300  66.9124500  50.0768470
  70.3955650  63.6382680  36.9398330  70.8348930  62.8005110  36.7936150
  71.1084070  64.2712080  37.0262470  62.1821650  63.6602880  49.6014440
  62.0429420  64.5325680  49.9701840  61.3003010  63.3175690  49.4562380
  68.5051030  68.5778750  40.9079570  68.9446940  69.3203080  40.4934960
  68.4437920  68.8205320  41.8318530  63.9802000  69.6024580  51.8099590
  63.9517430  70.0067530  50.9428020  63.8166970  68.6734940  51.6471190
  73.9772790  54.8925490  35.2539370  73.6645450  54.9852320  36.1538440
  74.7385260  55.4706520  35.2036800  60.4954930  62.2585290  39.7116710
  60.3752530  62.9847380  39.0997980  60.1855820  61.4888200  39.2344620
  75.9316820  70.3851680  53.1063760  76.4076540  70.8634570  53.7852840
  76.5523980  70.3169170  52.3809260  58.1340300  65.4300430  45.5185350
  58.2120720  65.5649200  44.5741070  58.7481980  64.7216320  45.7113470
  59.3787930  67.1300620  41.9291530  58.9716010  67.2715210  41.0745130
  60.2700940  66.8460780  41.7262740  75.3350070  67.5764530  50.2663770
  75.4613130  67.3376410  49.3480950  75.3771450  66.7449070  50.7385850
  69.1966810  71.2792530  48.8358580  69.7111480  71.1900540  49.6381010
  68.3535890  71.6252230  49.1286490  71.1721210  71.5647870  38.2642580
  71.0122350  71.2750810  39.1624410  71.0067920  70.7888000  37.7287810
  63.6509590  71.3446400  40.0414200  63.4752070  70.4281940  39.8282000
  62.7965330  71.7033690  40.2812000  70.8747340  69.0735430  36.8240580
  70.1812500  69.0712720  36.1642860  71.6170200  68.6494750  36.3934750
  70.4397270  70.6998140  40.8989070  70.8954220  69.9187520  41.2127690
  70.7789790  71.4104960  41.4430250  75.1874080  59.6296990  51.2313510
  74.5718350  60.1376660  50.7028970  74.8670500  58.7295320  51.1739450
  58.1899820  66.4714600  48.0579810  58.3530860  66.0019960  47.2399180
  58.6552270  65.9638160  48.7228650  62.9618590  55.6020360  43.0940380
  62.5186740  56.3829900  42.7624900  63.5203580  55.9250250  43.8011320
  67.2488400  58.4688880  48.6975700  66.7867770  58.6771900  49.5095640
  66.8466510  57.6548230  48.3946370  72.2492910  59.6897830  49.8272360
  71.3986500  59.3903580  50.1481430  72.0894700  59.9339840  48.9156180
  69.3442620  61.1899580  51.9271150  69.6696030  60.3563330  51.5873380
  70.1322950  61.7128100  52.0749480  66.0777410  55.2231060  37.9746210
  65.4531590  55.2190930  38.6999520  65.9907530  54.3562020  37.5782180
  64.9994490  56.1467690  44.9529980  65.2966820  57.0530520  44.8722000
  65.5480050  55.6586470  44.3389550  62.7532810  60.7253930  40.8221630
  62.5273730  60.5091100  41.7268250  61.9725340  61.1582390  40.4767600
  69.9830570  60.7317300  39.4212280  69.3839460  61.4553100  39.2375900
  70.5310180  60.6694080  38.6388730  65.1932020  61.6239510  51.4881900
  65.0975620  60.6834240  51.3382300  66.0364000  61.8454580  51.0929970
  68.5895440  59.3680840  41.4515560  68.9825010  59.6853040  40.6384250
  68.9512290  58.4892720  41.5660080  60.3242560  58.0353180  49.6415680
  59.9305950  58.8828390  49.8488460  59.6360960  57.3979550  49.8324320
  66.8987610  58.1188150  52.7112420  66.2085930  57.9260350  53.3458510
  67.6419910  58.4022790  53.2436720  57.6259610  55.9581640  43.6745760
  57.3372660  56.5284500  44.3870740  58.3705370  55.4786090  44.0376990
  57.8129840  59.9001760  34.8848480  57.7304510  60.8432520  35.0263470
  57.4612900  59.7576670  34.0060830  69.1750580  61.9586590  45.5466340
  68.4431700  62.4673400  45.8956440  68.7774920  61.1416570  45.2455120
  65.6127970  58.6340790  43.9518830  65.6164030  58.1930740  43.1023370
  66.5079090  58.9558120  44.0590650  61.4630350  58.5167280  42.9113040
  61.1230400  58.9942510  43.6680090  60.7007670  58.0632400  42.5514140
  65.6748120  59.6352870  36.9425590  65.7960940  59.5939350  37.8911410
  65.2896630  60.4977020  36.7872320  69.6376490  57.4120270  44.9589280
  69.6549230  57.8628920  45.8031130  69.3892070  56.5125910  45.1722720
  64.6869620  61.9454010  36.3408890  64.1186520  61.4972260  35.7144800
  65.3958620  62.3046790  35.8074040  73.0647240  54.8252450  50.7975660
  73.3893010  54.0942110  51.3233640  73.1003750  54.5066090  49.8956650
  59.7638800  65.8466030  50.2175620  59.3793590  65.2059700  50.8158580
  60.0750990  66.5502150  50.7870350  65.9135940  62.6942570  45.6984240
  66.2806070  62.2201140  46.4445580  65.7241000  63.5684140  46.0392580
  58.7776430  57.4386260  41.8277710  58.4923350  57.0741930  42.6656330
  58.7155290  56.7066720  41.2140850  63.7035310  61.7351210  48.0168450
  63.3992380  62.6143190  48.2418810  64.6581770  61.7951000  48.0525890
  62.2317100  65.9412200  38.6135300  61.4579360  65.4009820  38.4534020
  62.9611730  65.4218810  38.2753060  72.9905080  64.9377560  44.4061690
  73.7104200  65.4332850  44.0157800  72.7886900  64.2595450  43.7615560
  68.4515020  56.3315520  38.5491080  67.6379630  55.8328690  38.4736390
  68.2576970  57.1713770  38.1327430  68.3723880  65.0086620  50.2930690
  68.3061190  64.0882290  50.0388280  67.7429020  65.1062060  51.0075330
  71.1663410  60.7035170  36.8453240  72.0543030  61.0152400  36.6704580
  71.1368500  59.8307420  36.4533820  62.2754500  65.6092580  42.2514110
  62.7933170  64.8060840  42.1971000  61.8238520  65.5471720  43.0930940
  67.1624000  66.8758860  37.5241410  67.5039700  67.6201090  37.0284730
  66.3336710  67.1889980  37.8866240  59.7599040  62.5753950  49.1639810
  59.4013980  63.2407800  49.7513150  59.4653600  61.7437500  49.5352430
  62.9612160  63.0338190  52.0479360  62.6612300  63.1795370  51.1507180
  63.7323400  62.4743480  51.9552750  68.3040610  67.8307190  50.0434490
  68.3185150  66.8988150  49.8253400  67.5965710  67.9166950  50.6824260
  73.4377680  62.0147010  36.3133100  73.3541400  62.4461230  35.4629540
  74.1571870  62.4745360  36.7459920  74.5151820  64.4714530  49.3903070
  73.7900010  65.0643310  49.1932460  75.0427280  64.4638070  48.5916440
  74.4664930  68.8689270  39.0415230  73.8241090  68.2144890  39.3158950
  74.0795590  69.2744360  38.2655900  70.0451410  66.1974700  42.8886920
  70.3975230  65.6002830  42.2288290  69.1613740  65.8718930  43.0595170
  66.1314690  66.9572390  40.2957330  66.8185820  67.5041600  40.6764920
  65.3447110  67.5013120  40.3306940  58.2707090  62.5745210  35.7874410
  59.1401940  62.8570010  36.0710330  57.7797410  63.3881080  35.6723220
  65.4341900  63.9618420  39.9082690  65.8904680  64.7723670  40.1342880
  65.0830110  63.6441560  40.7401180  67.7374510  69.4724760  47.1374990
  68.3816730  69.6784140  47.8148410  68.1003950  68.7113160  46.6845840
  61.3353680  54.3056070  40.3805210  61.2068310  54.2973970  41.3290130
  60.5115700  54.6439160  40.0296220  69.0106590  67.4757110  45.8552440
  69.6528820  66.7750270  45.9684610  69.5355940  68.2555550  45.6749330
  72.8562310  67.7605730  35.5791580  72.6299890  67.0436170  36.1716220
  72.4658510  67.5118170  34.7413330  70.7844210  68.2752010  49.0588500
  71.1200450  68.8618700  49.7366420  69.8644550  68.1444720  49.2886290
  58.6378340  71.7872590  36.3536040  58.9975980  72.3861930  35.6993310
  58.4970680  72.3332480  37.1271070  58.3347610  56.0647190  49.8411910
  57.6206130  56.2644110  50.4464520  58.7542650  55.2886760  50.2126710
  72.4378560  65.6777670  37.2405740  72.1500260  66.1390360  38.0283620
  73.2330730  65.2175440  37.5089960  58.6220200  70.0527450  50.8278440
  58.7311320  69.1122190  50.6873830  57.9700760  70.3182200  50.1792170
  66.6132790  68.3243340  52.2276560  66.2929660  67.6052580  52.7722250
  65.9391150  68.9998410  52.3012620  64.6546960  69.1703790  37.1709710
  64.6457060  69.9033480  36.5554220  63.7345320  68.9235370  37.2636670
  60.2553600  64.3918680  37.9156470  59.6481550  65.1317580  37.9251770
  60.7302950  64.4818040  37.0894670  69.8286390  58.5569500  47.5913360
  70.1967210  57.7364710  47.9192930  68.9684590  58.6171390  48.0069010
  73.1948420  57.5126440  38.4000920  72.5661580  57.6172110  37.6859150
  72.7000340  57.7323220  39.1894800  67.6406560  69.2332030  35.8334900
  67.7418540  69.0296020  34.9036880  66.7408300  68.9790310  36.0382680
  65.1632450  59.7912390  39.8158800  64.4548600  60.2598730  40.2572410
  65.4476930  59.1334400  40.4503990  66.7888380  61.2109090  47.8151330
  67.2873630  61.6854910  48.4803180  66.9311330  60.2872610  48.0221360
  69.1947880  56.5163050  41.2554590  69.0715660  56.5349180  40.3064100
  70.1432440  56.5641990  41.3752990  66.2824670  71.7518350  40.5282570
  66.5366170  71.7139740  39.6061940  65.3337150  71.6251680  40.5210820
  63.3667470  58.0997470  37.1909510  64.2158000  58.5367620  37.1249700
  62.9998740  58.4117730  38.0181570  73.9955240  57.4277050  48.6579720
  73.4928840  58.1682450  48.9973530  74.8111900  57.8161050  48.3416510
  72.2877250  62.6710230  42.1041080  71.3467390  62.6860460  42.2788770
  72.6021320  61.8846190  42.5501380  62.2658890  64.3529830  35.6645040
  63.0322160  64.2411190  36.2270470  62.3433580  63.6567800  35.0121810
  60.9605650  61.7854900  36.3477930  61.0409240  60.8382410  36.4595330
  61.8525400  62.1161780  36.4538590  74.2902830  69.8419080  43.7795340
  74.4150250  70.6650250  44.2519150  75.1568390  69.6309810  43.4319490
  61.7620360  71.9350290  43.4512470  62.4982840  71.3865750  43.7221040
  62.1461280  72.8006300  43.3118460  58.6465840  68.0023860  39.3253980
  57.7205620  68.2445000  39.3159390  59.1122270  68.8298120  39.2038730
  60.7678640  71.1196360  52.6398050  61.5691370  71.4408410  53.0533450
  60.2530460  70.7591940  53.3617960  64.8722670  71.1080600  35.2738040
  65.6651280  71.3969430  34.8219830  64.3527020  70.6772770  34.5950520
  69.6043270  67.2276230  52.5873460  68.9981430  67.2507830  51.8469210
  69.2997380  66.4959270  53.1240710  71.0343640  70.9556520  51.1982870
  71.9865390  70.8714540  51.1483110  70.8871860  71.6198230  51.8716660
  73.9252840  70.3350730  36.6974780  73.6394350  69.9215870  35.8828960
  73.7272390  71.2638440  36.5775300  58.4876450  63.6069820  51.5834100
  58.9915470  63.0277100  52.1550330  57.7483870  63.8910050  52.1210470
  65.3900070  66.3284010  35.1380390  65.2850710  65.7136360  35.8641770
  65.2224290  65.8049900  34.3543400  65.5414390  65.0140810  51.1169620
  64.7760060  65.5825810  51.0324290  65.7230350  64.7217020  50.2237850
  68.6302800  65.3904040  35.7422380  68.0812900  65.8373340  36.3865120
  69.2522060  64.8853290  36.2660050  72.6837740  66.7446140  51.6744640
  73.4247210  67.0821900  51.1712100  71.9210420  66.9138200  51.1214410
  60.5199530  61.7499410  52.4784170  60.5604870  61.4513280  53.3869400
  61.3745030  62.1507020  52.3191690  64.2977920  64.3494960  37.6387680
  64.7194340  64.1834830  38.4819070  64.4228760  63.5395190  37.1442820
  62.4605340  60.3291510  50.4458660  61.9301800  59.8382460  49.8182000
  63.1293410  60.7575710  49.9116590  66.8105560  63.3732570  34.8864780
  67.3311220  62.6581590  34.5205930  67.4573960  64.0118440  35.1865290
  71.3583400  64.7960970  50.2099850  71.7724420  64.9506050  51.0590270
  70.4234400  64.9216190  50.3725630  71.8305570  62.1357130  52.2139000
  72.4126340  61.3809450  52.1259480  72.0067340  62.6664570  51.4370480
  62.9477640  57.2953880  50.5255950  62.8534510  56.6774630  49.8006820
  62.3675030  58.0220170  50.2985860  65.7139080  55.8527120  47.5583340
  65.2656380  55.8751380  46.7128890  65.0804280  55.4546140  48.1553640
  66.1198630  64.7481450  48.1795780  66.5386740  65.5914180  48.0072020
  65.2007260  64.8853490  47.9502560  68.4562530  62.4797630  49.5633620
  68.5758740  61.8838770  50.3028460  69.3156530  62.5167320  49.1434920
  70.7950430  63.0334820  48.1396130  70.2685650  63.5577440  47.5361270
  71.1381770  63.6662210  48.7705860  63.1936820  60.4228190  34.5845840
  62.9925880  59.5595550  34.9459180  63.0228870  60.3361550  33.6467440
  63.9706050  71.0534460  49.2953510  63.4327140  71.7780520  48.9762210
  64.2240010  70.5764800  48.5050850  65.2231300  59.0218980  50.8209440
  65.8130990  58.7134830  51.5087260  64.4051540  58.5498730  50.9769340
  70.0424730  58.6384790  51.0542460  69.3540250  57.9766330  50.9892450
  70.7630750  58.1923060  51.4990920  70.6725130  55.2336420  37.1132720
  70.9527420  54.3904320  37.4692140  69.8990860  55.4659530  37.6271470
  61.9919620  57.5228810  34.5723720  62.2945520  57.5296240  33.6642870
  62.7314210  57.1726670  35.0691380  66.8268260  72.2885670  49.5540160
  66.7526960  73.1920810  49.8612530  65.9247100  71.9697570  49.5262230
  65.2104550  56.4663430  35.5579920  64.8626550  55.7887420  34.9782370
  65.4117320  56.0052940  36.3723310  67.3753590  71.4544180  37.1766520
  68.2704380  71.7929150  37.1985280  67.4071220  70.7323590  36.5490800
  61.0149750  66.8271230  35.4053520  61.4524620  67.3700900  36.0611100
  61.4997480  66.0018180  35.4149860  58.2295550  69.6160260  42.8573780
  58.5598560  68.7481320  42.6252420  58.6586550  69.8218780  43.6878740
  62.8257470  67.9469270  40.5175750  62.5253010  67.8234240  41.4179660
  62.7194960  67.0877860  40.1091480  58.7185760  70.4830850  45.5955410
  58.2816750  70.6631650  46.4279560  59.2863440  71.2405470  45.4537130
  74.3547940  69.9847850  49.8832720  73.7549930  70.0440410  49.1396640
  74.4841840  69.0452830  50.0129570  75.5949390  67.7265670  35.2202430
  74.7642350  67.7942320  35.6909660  75.7721220  68.6169790  34.9169290
  75.0505850  64.4713150  37.7236630  75.8124760  65.0409800  37.8296320
  75.0660220  63.9040350  38.4944940  58.5510190  62.9951080  41.9544290
  57.8959030  62.7262720  41.3103990  59.3888140  62.8855560  41.5046270
  76.0565820  65.3263250  42.5678560  76.4274650  64.5430570  42.1614530
  76.6967750  66.0152350  42.3895860  73.0399580  66.7099830  47.9808880
  72.2259420  67.1396990  48.2434670  73.4473780  67.3218240  47.3677930
  75.1025020  64.7647520  34.8809150  75.3773860  65.6726400  34.7528370
  74.9135760  64.7010050  35.8171140  71.5000630  57.7892370  36.1762780
  71.9185510  57.6023350  35.3359440  71.1936690  56.9371420  36.4865710
  74.9990360  62.7016510  39.8738580  74.6233960  61.9344440  39.4419870
  74.2693480  63.0839210  40.3613510  59.5886120  63.3803650  46.4947630
  59.9559160  63.2931050  47.3743650  59.0196940  62.6170200  46.3954490
  74.3889980  61.8488030  49.5078100  74.1576070  61.6200780  48.6076050
  74.6494530  62.7687580  49.4622990  59.1402120  60.2912740  50.4006050
  58.2458170  60.2579500  50.7399760  59.6799670  60.4899530  51.1657300
  72.8278050  57.0744460  52.2857800  73.7048230  57.0827860  52.6691800
  72.8398890  56.3375300  51.6750150  57.7648270  60.2050010  37.8969620
  56.8612350  60.4680210  37.7221280  58.2488890  60.4761180  37.1169580
  74.2741320  60.9274000  43.1745820  74.7978800  60.4336650  42.5435990
  74.8600740  61.0624360  43.9193390  74.4531040  61.0113870  46.6965370
  73.5033750  60.9777410  46.8110360  74.6344050  61.9213980  46.4615140
  60.3075480  59.2615550  35.8064000  61.0167180  58.8398770  35.3211280
  59.5915420  59.3290780  35.1747350  59.9549640  55.3154880  34.8466650
  60.6777770  55.8563820  35.1647870  60.2274160  55.0418300  33.9708190
  73.7641290  60.1847350  39.1138230  74.2600410  59.9518220  39.8987110
  73.5657360  59.3459190  38.6975870  59.6441830  54.5661070  44.7489270
  60.2918020  54.0158450  44.3084430  60.0643670  54.8204220  45.5705080
  75.1928450  58.8208300  41.6475910  75.0827730  58.6664340  42.5858180
  75.9536040  58.2929240  41.4051320  73.5394170  54.7602430  48.1058910
  74.1766390  55.3736570  48.4718100  73.6869060  54.7963090  47.1608140
  76.0818720  56.6516220  34.8882050  77.0068030  56.5197400  34.6800340
  76.0594510  56.7309040  35.8418500  76.1557210  57.4226880  37.5138760
  75.3608710  57.3572000  38.0431670  76.3600490  58.3577520  37.5024110
  73.0975630  71.4618430  41.5077150  73.6934700  71.1403000  40.8311570
  73.3553780  70.9890250  42.2990420  59.3973830  54.7216740  47.4914590
  59.0488650  55.1780560  48.2572770  59.0661530  53.8273870  47.5737020
  61.0038200  67.8936340  51.6567780  60.9607830  67.5229250  52.5382240
  61.1349210  68.8313910  51.7969600  64.7044230  69.4495930  47.2577500
  64.4635590  69.7170490  46.3708020  65.6446870  69.6201660  47.3128360
  66.9098650  55.9128620  51.0134010  66.8487540  56.5050450  51.7629420
  67.8499030  55.8054580  50.8684270  69.5473210  55.5698680  50.6526300
  70.1613620  55.8877970  49.9907380  70.0922770  55.0847270  51.2722160
  75.9648390  71.4690310  48.0588140  75.4706670  71.8659180  47.3415270
  75.3561680  70.8439520  48.4525420  60.0694470  54.2492940  50.7665360
  60.6177460  54.0680990  50.0031470  60.1349780  53.4587050  51.3021670
  60.8426230  70.8398590  48.7765560  60.2486550  70.7083290  49.5155600
  60.8350070  70.0036730  48.3107660  70.2881250  54.1330820  46.9795590
  69.4141090  54.4665930  46.7768520  70.1792000  53.6604000  47.8047460
  71.1953230  56.3401690  48.3637310  70.8666590  55.5253450  47.9839040
  72.1435530  56.2971500  48.2403000  73.6487840  72.1113730  45.3374880
  73.1890810  72.8629540  44.9632900  73.0200300  71.3920200  45.2789680
  60.4738460  68.2056970  47.7273600  59.7472520  67.5862260  47.6599550
  60.5347610  68.5997580  46.8571680  64.0783560  70.4201970  44.5123010
  64.5948580  69.8089330  43.9871270  64.7280940  70.9230750  45.0034020
  66.8179060  71.3110460  45.3391990  67.1056870  71.0564760  44.4625000
  67.3302280  70.7587820  45.9297560  68.0356070  55.0500660  45.9188500
  67.2527860  55.5246160  46.1985260  67.7419000  54.1455490  45.8101680
  72.5877140  55.7523760  43.9637590  73.0285230  55.6968860  43.1159190
  72.3184730  56.6681770  44.0347770  74.4515710  55.3839000  41.9746410
  74.3904110  54.4400220  41.8277430  75.2307740  55.4919090  42.5199870
  58.7568460  71.5231360  40.9370360  58.5890500  70.8902040  41.6352250
  57.8902970  71.7290760  40.5864550  59.3796480  55.3548140  38.4402220
  60.1375840  55.4677020  37.8666250  58.9173650  56.1917340  38.3945650
  65.9210290  57.4687410  41.4304530  65.1084800  57.0944300  41.0900410
  66.4251930  56.7132490  41.7325720  70.4235270  54.1329860  42.6687600
  71.0264640  54.7050070  43.1436120  69.6828260  54.6969300  42.4461500
  73.5669870  54.5351420  37.9427880  73.7620500  55.4334870  38.2095310
  72.7799740  54.3038500  38.4360830  60.3631160  70.2164590  38.3820500
  59.8378780  70.5972620  37.6782460  60.2875740  70.8415360  39.1030210
  61.7521630  55.8812190  36.9804190  62.2814390  55.0941990  36.8512140
  62.3849950  56.5603380  37.2139720  63.9459470  55.6187330  40.0349580
  63.3162210  54.9174640  40.2019710  63.4064610  56.3791460  39.8182740
  66.8851420  72.2326560  52.7060190  67.8118730  71.9970830  52.7496150
  66.8701850  73.0598560  52.2246220  75.1196480  71.7752130  39.7034440
  75.2948670  71.0889870  39.0595360  74.4218050  72.2999180  39.3111110
  64.0715030  54.8971310  52.4702070  63.7899300  55.4004910  51.7062890
  64.4534730  54.0993060  52.1044200  62.9624130  72.1646970  37.2569750
  63.6942950  71.8806250  36.7093640  63.2217800  71.9260250  38.1469130
  62.1238920  68.2811700  37.2616080  61.4947800  68.7496800  37.8101910
  62.2386750  67.4360920  37.6962270  70.6730490  54.3124890  53.0482540
  70.5595940  54.6319500  53.9434060  71.4900230  54.7137400  52.7519820
  73.4528980  71.4596420  52.5301230  74.2454300  70.9645650  52.3227190
  73.7462130  72.1386560  53.1376840  69.5788640  62.3317360  23.4117280
  69.4982690  61.4171970  23.1408990  69.1653060  62.8284430  22.7056990
  67.7106680  64.1096380  25.2926550  66.9348780  63.6296820  25.5825120
  68.3619610  63.4302030  25.1182710  61.7272510  64.4216190  26.1702310
  60.8957390  64.1664900  26.5698820  62.3353490  64.4926960  26.9060230
  71.7314110  68.5156570  24.0725680  71.2695640  67.7443810  24.4012850
  72.5439660  68.5422640  24.5778130  61.7073770  68.4556280  26.3660330
  62.0101810  67.5654020  26.1870550  62.4517360  69.0126500  26.1382580
  60.1364460  59.3818080  19.9544700  59.2481160  59.7234050  19.8524580
  60.4205650  59.1818400  19.0625530  58.0997470  61.9823730  25.8384400
  58.6713580  61.2145930  25.8388040  58.0999010  62.2812490  24.9291010
  67.9577420  70.8014580  23.6929670  67.3388860  71.2572080  23.1224110
  68.8129200  70.9566040  23.2919370  67.1515670  66.7853570  25.2996710
  67.0823950  65.8443510  25.1385840  67.9135530  66.8754980  25.8719280
  59.3422340  57.3908090  27.6253330  59.1625180  56.4933840  27.9056090
  58.9402420  57.9379960  28.3000280  68.1820840  59.5923950  25.5265640
  68.5585660  58.7195830  25.4139310  68.0840350  59.9282650  24.6356080
  62.3125850  57.9649580  20.9883080  62.4192600  58.8653310  21.2951840
  61.4018210  57.9167550  20.6977730  71.9644960  57.0874390  22.4593980
  72.7854580  56.5970960  22.5019460  71.9979040  57.6772050  23.2125820
  59.9609010  59.8868590  26.2335670  60.6419120  60.1506960  26.8523070
  59.6457060  59.0469460  26.5673680  64.1533580  60.9335950  25.3208260
  64.6611800  61.4316920  25.9613280  64.6846820  60.1571150  25.1447620
  76.2544510  59.1041140  29.0237610  75.5496680  59.4922850  28.5052720
  76.5202430  59.7991430  29.6258540  62.4369680  55.5734510  29.5871680
  62.4388120  56.0906900  28.7817580  61.6073990  55.0964690  29.5641610
  68.8240770  65.6853820  21.0861580  68.2058040  66.1503270  20.5224300
  69.3364020  66.3781300  21.5031090  63.6872530  65.2129690  27.7645180
  63.3541910  65.8398610  28.4066250  63.8639210  65.7391570  26.9846850
  72.2006440  59.0274770  25.2321520  71.4962010  59.3159660  25.8124630
  72.5618600  59.8374880  24.8721080  62.1185010  57.2844470  27.5942130
  62.4601820  58.1286520  27.2996000  61.1800820  57.4328210  27.7107470
  62.8991630  67.1810490  29.5794360  63.5165630  67.8561570  29.2978810
  62.0384750  67.5898470  29.4881860  58.1923970  66.3710350  18.4601210
  57.8151950  66.8597450  17.7286110  58.4497040  67.0435630  19.0907740
  73.8169220  68.6449900  27.4949000  73.1332740  69.3149010  27.4865670
  74.3563510  68.8430550  26.7293860  75.2693360  58.4729560  25.6230730
  74.3218270  58.5068540  25.7546160  75.5943350  59.2868510  26.0080090
  65.8012900  54.7726740  23.9186720  66.1087880  54.2173630  23.2022220
  64.8713600  54.9071200  23.7359710  71.3527960  70.4894030  26.2094180
  71.3655120  70.0856320  25.3416440  70.8003180  71.2641320  26.1055610
  72.6473380  67.2110250  21.2984350  72.5369710  66.2684580  21.4233770
  72.6441630  67.5725890  22.1847110  70.7513400  65.3923870  27.5376790
  71.1682190  65.1783980  26.7030250  71.4753220  65.6496660  28.1085410
  68.1893660  62.8375570  20.6546840  67.2622940  62.7712950  20.8835310
  68.3418480  63.7755700  20.5402080  68.1762740  59.1092570  17.6514000
  67.2366410  59.2706530  17.7366460  68.4946000  59.8278250  17.1049990
  74.6975500  63.7911090  27.6293030  73.8694130  63.8604180  27.1543160
  75.2925980  64.3765400  27.1608860  72.2190950  64.3995870  21.1582090
  71.6003370  64.0615420  20.5108390  72.2015400  63.7555630  21.8661280
  71.6617510  60.5780410  28.5747900  71.2488690  61.4034120  28.8287890
  70.9293460  59.9925450  28.3824260  63.7950300  63.3640310  23.4366570
  63.3907300  62.6517560  22.9412470  63.8813420  63.0193550  24.3254610
  64.2632000  67.0507870  25.6005780  63.9660290  66.4453340  24.9213560
  65.2131820  67.0885180  25.4895140  62.5078920  60.1383520  27.2165610
  63.0593510  60.2478860  26.4418860  63.0222430  60.5121120  27.9320840
  72.3517610  70.6239740  29.2628880  71.8748170  71.4311930  29.0701490
  71.6679400  69.9718070  29.4155090  63.3550430  66.7889560  32.2513580
  62.4578960  67.0129530  32.4986980  63.3803300  66.9124500  31.3024980
  70.3955650  63.6382680  18.1654840  70.8348930  62.8005110  18.0192660
  71.1084070  64.2712080  18.2518980  62.1821650  63.6602880  30.8270950
  62.0429420  64.5325680  31.1958350  61.3003010  63.3175690  30.6818890
  68.5051030  68.5778750  22.1336080  68.9446940  69.3203080  21.7191470
  68.4437920  68.8205320  23.0575040  63.9802000  69.6024580  33.0356100
  63.9517430  70.0067530  32.1684530  63.8166970  68.6734940  32.8727700
  73.9772790  54.8925490  16.4795880  73.6645450  54.9852320  17.3794950
  74.7385260  55.4706520  16.4293310  60.4954930  62.2585290  20.9373220
  60.3752530  62.9847380  20.3254490  60.1855820  61.4888200  20.4601130
  75.9316820  70.3851680  34.3320270  76.4076540  70.8634570  35.0109350
  76.5523980  70.3169170  33.6065770  58.1340300  65.4300430  26.7441860
  58.2120720  65.5649200  25.7997580  58.7481980  64.7216320  26.9369980
  59.3787930  67.1300620  23.1548040  58.9716010  67.2715210  22.3001640
  60.2700940  66.8460780  22.9519250  75.3350070  67.5764530  31.4920280
  75.4613130  67.3376410  30.5737460  75.3771450  66.7449070  31.9642360
  69.1966810  71.2792530  30.0615090  69.7111480  71.1900540  30.8637520
  68.3535890  71.6252230  30.3543000  71.1721210  71.5647870  19.4899090
  71.0122350  71.2750810  20.3880920  71.0067920  70.7888000  18.9544320
  63.6509590  71.3446400  21.2670710  63.4752070  70.4281940  21.0538510
  62.7965330  71.7033690  21.5068510  70.8747340  69.0735430  18.0497090
  70.1812500  69.0712720  17.3899370  71.6170200  68.6494750  17.6191260
  70.4397270  70.6998140  22.1245580  70.8954220  69.9187520  22.4384200
  70.7789790  71.4104960  22.6686760  75.1874080  59.6296990  32.4570020
  74.5718350  60.1376660  31.9285480  74.8670500  58.7295320  32.3995960
  58.1899820  66.4714600  29.2836320  58.3530860  66.0019960  28.4655690
  58.6552270  65.9638160  29.9485160  62.9618590  55.6020360  24.3196890
  62.5186740  56.3829900  23.9881410  63.5203580  55.9250250  25.0267830
  67.2488400  58.4688880  29.9232210  66.7867770  58.6771900  30.7352150
  66.8466510  57.6548230  29.6202880  72.2492910  59.6897830  31.0528870
  71.3986500  59.3903580  31.3737940  72.0894700  59.9339840  30.1412690
  69.3442620  61.1899580  33.1527660  69.6696030  60.3563330  32.8129890
  70.1322950  61.7128100  33.3005990  66.0777410  55.2231060  19.2002720
  65.4531590  55.2190930  19.9256030  65.9907530  54.3562020  18.8038690
  64.9994490  56.1467690  26.1786490  65.2966820  57.0530520  26.0978510
  65.5480050  55.6586470  25.5646060  62.7532810  60.7253930  22.0478140
  62.5273730  60.5091100  22.9524760  61.9725340  61.1582390  21.7024110
  69.9830570  60.7317300  20.6468790  69.3839460  61.4553100  20.4632410
  70.5310180  60.6694080  19.8645240  65.1932020  61.6239510  32.7138410
  65.0975620  60.6834240  32.5638810  66.0364000  61.8454580  32.3186480
  68.5895440  59.3680840  22.6772070  68.9825010  59.6853040  21.8640760
  68.9512290  58.4892720  22.7916590  60.3242560  58.0353180  30.8672190
  59.9305950  58.8828390  31.0744970  59.6360960  57.3979550  31.0580830
  66.8987610  58.1188150  33.9368930  66.2085930  57.9260350  34.5715020
  67.6419910  58.4022790  34.4693230  57.6259610  55.9581640  24.9002270
  57.3372660  56.5284500  25.6127250  58.3705370  55.4786090  25.2633500
  57.8129840  59.9001760  16.1104990  57.7304510  60.8432520  16.2519980
  57.4612900  59.7576670  15.2317340  69.1750580  61.9586590  26.7722850
  68.4431700  62.4673400  27.1212950  68.7774920  61.1416570  26.4711630
  65.6127970  58.6340790  25.1775340  65.6164030  58.1930740  24.3279880
  66.5079090  58.9558120  25.2847160  61.4630350  58.5167280  24.1369550
  61.1230400  58.9942510  24.8936600  60.7007670  58.0632400  23.7770650
  65.6748120  59.6352870  18.1682100  65.7960940  59.5939350  19.1167920
  65.2896630  60.4977020  18.0128830  69.6376490  57.4120270  26.1845790
  69.6549230  57.8628920  27.0287640  69.3892070  56.5125910  26.3979230
  64.6869620  61.9454010  17.5665400  64.1186520  61.4972260  16.9401310
  65.3958620  62.3046790  17.0330550  73.0647240  54.8252450  32.0232170
  73.3893010  54.0942110  32.5490150  73.1003750  54.5066090  31.1213160
  59.7638800  65.8466030  31.4432130  59.3793590  65.2059700  32.0415090
  60.0750990  66.5502150  32.0126860  65.9135940  62.6942570  26.9240750
  66.2806070  62.2201140  27.6702090  65.7241000  63.5684140  27.2649090
  58.7776430  57.4386260  23.0534220  58.4923350  57.0741930  23.8912840
  58.7155290  56.7066720  22.4397360  63.7035310  61.7351210  29.2424960
  63.3992380  62.6143190  29.4675320  64.6581770  61.7951000  29.2782400
  62.2317100  65.9412200  19.8391810  61.4579360  65.4009820  19.6790530
  62.9611730  65.4218810  19.5009570  72.9905080  64.9377560  25.6318200
  73.7104200  65.4332850  25.2414310  72.7886900  64.2595450  24.9872070
  68.4515020  56.3315520  19.7747590  67.6379630  55.8328690  19.6992900
  68.2576970  57.1713770  19.3583940  68.3723880  65.0086620  31.5187200
  68.3061190  64.0882290  31.2644790  67.7429020  65.1062060  32.2331840
  71.1663410  60.7035170  18.0709750  72.0543030  61.0152400  17.8961090
  71.1368500  59.8307420  17.6790330  62.2754500  65.6092580  23.4770620
  62.7933170  64.8060840  23.4227510  61.8238520  65.5471720  24.3187450
  67.1624000  66.8758860  18.7497920  67.5039700  67.6201090  18.2541240
  66.3336710  67.1889980  19.1122750  59.7599040  62.5753950  30.3896320
  59.4013980  63.2407800  30.9769660  59.4653600  61.7437500  30.7608940
  62.9612160  63.0338190  33.2735870  62.6612300  63.1795370  32.3763690
  63.7323400  62.4743480  33.1809260  68.3040610  67.8307190  31.2691000
  68.3185150  66.8988150  31.0509910  67.5965710  67.9166950  31.9080770
  73.4377680  62.0147010  17.5389610  73.3541400  62.4461230  16.6886050
  74.1571870  62.4745360  17.9716430  74.5151820  64.4714530  30.6159580
  73.7900010  65.0643310  30.4188970  75.0427280  64.4638070  29.8172950
  74.4664930  68.8689270  20.2671740  73.8241090  68.2144890  20.5415460
  74.0795590  69.2744360  19.4912410  70.0451410  66.1974700  24.1143430
  70.3975230  65.6002830  23.4544800  69.1613740  65.8718930  24.2851680
  66.1314690  66.9572390  21.5213840  66.8185820  67.5041600  21.9021430
  65.3447110  67.5013120  21.5563450  58.2707090  62.5745210  17.0130920
  59.1401940  62.8570010  17.2966840  57.7797410  63.3881080  16.8979730
  65.4341900  63.9618420  21.1339200  65.8904680  64.7723670  21.3599390
  65.0830110  63.6441560  21.9657690  67.7374510  69.4724760  28.3631500
  68.3816730  69.6784140  29.0404920  68.1003950  68.7113160  27.9102350
  61.3353680  54.3056070  21.6061720  61.2068310  54.2973970  22.5546640
  60.5115700  54.6439160  21.2552730  69.0106590  67.4757110  27.0808950
  69.6528820  66.7750270  27.1941120  69.5355940  68.2555550  26.9005840
  72.8562310  67.7605730  16.8048090  72.6299890  67.0436170  17.3972730
  72.4658510  67.5118170  15.9669840  70.7844210  68.2752010  30.2845010
  71.1200450  68.8618700  30.9622930  69.8644550  68.1444720  30.5142800
  58.6378340  71.7872590  17.5792550  58.9975980  72.3861930  16.9249820
  58.4970680  72.3332480  18.3527580  58.3347610  56.0647190  31.0668420
  57.6206130  56.2644110  31.6721030  58.7542650  55.2886760  31.4383220
  72.4378560  65.6777670  18.4662250  72.1500260  66.1390360  19.2540130
  73.2330730  65.2175440  18.7346470  58.6220200  70.0527450  32.0534950
  58.7311320  69.1122190  31.9130340  57.9700760  70.3182200  31.4048680
  66.6132790  68.3243340  33.4533070  66.2929660  67.6052580  33.9978760
  65.9391150  68.9998410  33.5269130  64.6546960  69.1703790  18.3966220
  64.6457060  69.9033480  17.7810730  63.7345320  68.9235370  18.4893180
  60.2553600  64.3918680  19.1412980  59.6481550  65.1317580  19.1508280
  60.7302950  64.4818040  18.3151180  69.8286390  58.5569500  28.8169870
  70.1967210  57.7364710  29.1449440  68.9684590  58.6171390  29.2325520
  73.1948420  57.5126440  19.6257430  72.5661580  57.6172110  18.9115660
  72.7000340  57.7323220  20.4151310  67.6406560  69.2332030  17.0591410
  67.7418540  69.0296020  16.1293390  66.7408300  68.9790310  17.2639190
  65.1632450  59.7912390  21.0415310  64.4548600  60.2598730  21.4828920
  65.4476930  59.1334400  21.6760500  66.7888380  61.2109090  29.0407840
  67.2873630  61.6854910  29.7059690  66.9311330  60.2872610  29.2477870
  69.1947880  56.5163050  22.4811100  69.0715660  56.5349180  21.5320610
  70.1432440  56.5641990  22.6009500  66.2824670  71.7518350  21.7539080
  66.5366170  71.7139740  20.8318450  65.3337150  71.6251680  21.7467330
  63.3667470  58.0997470  18.4166020  64.2158000  58.5367620  18.3506210
  62.9998740  58.4117730  19.2438080  73.9955240  57.4277050  29.8836230
  73.4928840  58.1682450  30.2230040  74.8111900  57.8161050  29.5673020
  72.2877250  62.6710230  23.3297590  71.3467390  62.6860460  23.5045280
  72.6021320  61.8846190  23.7757890  62.2658890  64.3529830  16.8901550
  63.0322160  64.2411190  17.4526980  62.3433580  63.6567800  16.2378320
  60.9605650  61.7854900  17.5734440  61.0409240  60.8382410  17.6851840
  61.8525400  62.1161780  17.6795100  74.2902830  69.8419080  25.0051850
  74.4150250  70.6650250  25.4775660  75.1568390  69.6309810  24.6576000
  61.7620360  71.9350290  24.6768980  62.4982840  71.3865750  24.9477550
  62.1461280  72.8006300  24.5374970  58.6465840  68.0023860  20.5510490
  57.7205620  68.2445000  20.5415900  59.1122270  68.8298120  20.4295240
  60.7678640  71.1196360  33.8654560  61.5691370  71.4408410  34.2789960
  60.2530460  70.7591940  34.5874470  64.8722670  71.1080600  16.4994550
  65.6651280  71.3969430  16.0476340  64.3527020  70.6772770  15.8207030
  69.6043270  67.2276230  33.8129970  68.9981430  67.2507830  33.0725720
  69.2997380  66.4959270  34.3497220  71.0343640  70.9556520  32.4239380
  71.9865390  70.8714540  32.3739620  70.8871860  71.6198230  33.0973170
  73.9252840  70.3350730  17.9231290  73.6394350  69.9215870  17.1085470
  73.7272390  71.2638440  17.8031810  58.4876450  63.6069820  32.8090610
  58.9915470  63.0277100  33.3806840  57.7483870  63.8910050  33.3466980
  65.3900070  66.3284010  16.3636900  65.2850710  65.7136360  17.0898280
  65.2224290  65.8049900  15.5799910  65.5414390  65.0140810  32.3426130
  64.7760060  65.5825810  32.2580800  65.7230350  64.7217020  31.4494360
  68.6302800  65.3904040  16.9678890  68.0812900  65.8373340  17.6121630
  69.2522060  64.8853290  17.4916560  72.6837740  66.7446140  32.9001150
  73.4247210  67.0821900  32.3968610  71.9210420  66.9138200  32.3470920
  60.5199530  61.7499410  33.7040680  60.5604870  61.4513280  34.6125910
  61.3745030  62.1507020  33.5448200  64.2977920  64.3494960  18.8644190
  64.7194340  64.1834830  19.7075580  64.4228760  63.5395190  18.3699330
  62.4605340  60.3291510  31.6715170  61.9301800  59.8382460  31.0438510
  63.1293410  60.7575710  31.1373100  66.8105560  63.3732570  16.1121290
  67.3311220  62.6581590  15.7462440  67.4573960  64.0118440  16.4121800
  71.3583400  64.7960970  31.4356360  71.7724420  64.9506050  32.2846780
  70.4234400  64.9216190  31.5982140  71.8305570  62.1357130  33.4395510
  72.4126340  61.3809450  33.3515990  72.0067340  62.6664570  32.6626990
  62.9477640  57.2953880  31.7512460  62.8534510  56.6774630  31.0263330
  62.3675030  58.0220170  31.5242370  65.7139080  55.8527120  28.7839850
  65.2656380  55.8751380  27.9385400  65.0804280  55.4546140  29.3810150
  66.1198630  64.7481450  29.4052290  66.5386740  65.5914180  29.2328530
  65.2007260  64.8853490  29.1759070  68.4562530  62.4797630  30.7890130
  68.5758740  61.8838770  31.5284970  69.3156530  62.5167320  30.3691430
  70.7950430  63.0334820  29.3652640  70.2685650  63.5577440  28.7617780
  71.1381770  63.6662210  29.9962370  63.1936820  60.4228190  15.8102350
  62.9925880  59.5595550  16.1715690  63.0228870  60.3361550  14.8723950
  63.9706050  71.0534460  30.5210020  63.4327140  71.7780520  30.2018720
  64.2240010  70.5764800  29.7307360  65.2231300  59.0218980  32.0465950
  65.8130990  58.7134830  32.7343770  64.4051540  58.5498730  32.2025850
  70.0424730  58.6384790  32.2798970  69.3540250  57.9766330  32.2148960
  70.7630750  58.1923060  32.7247430  70.6725130  55.2336420  18.3389230
  70.9527420  54.3904320  18.6948650  69.8990860  55.4659530  18.8527980
  61.9919620  57.5228810  15.7980230  62.2945520  57.5296240  14.8899380
  62.7314210  57.1726670  16.2947890  66.8268260  72.2885670  30.7796670
  66.7526960  73.1920810  31.0869040  65.9247100  71.9697570  30.7518740
  65.2104550  56.4663430  16.7836430  64.8626550  55.7887420  16.2038880
  65.4117320  56.0052940  17.5979820  67.3753590  71.4544180  18.4023030
  68.2704380  71.7929150  18.4241790  67.4071220  70.7323590  17.7747310
  61.0149750  66.8271230  16.6310030  61.4524620  67.3700900  17.2867610
  61.4997480  66.0018180  16.6406370  58.2295550  69.6160260  24.0830290
  58.5598560  68.7481320  23.8508930  58.6586550  69.8218780  24.9135250
  62.8257470  67.9469270  21.7432260  62.5253010  67.8234240  22.6436170
  62.7194960  67.0877860  21.3347990  58.7185760  70.4830850  26.8211920
  58.2816750  70.6631650  27.6536070  59.2863440  71.2405470  26.6793640
  74.3547940  69.9847850  31.1089230  73.7549930  70.0440410  30.3653150
  74.4841840  69.0452830  31.2386080  75.5949390  67.7265670  16.4458940
  74.7642350  67.7942320  16.9166170  75.7721220  68.6169790  16.1425800
  75.0505850  64.4713150  18.9493140  75.8124760  65.0409800  19.0552830
  75.0660220  63.9040350  19.7201450  58.5510190  62.9951080  23.1800800
  57.8959030  62.7262720  22.5360500  59.3888140  62.8855560  22.7302780
  76.0565820  65.3263250  23.7935070  76.4274650  64.5430570  23.3871040
  76.6967750  66.0152350  23.6152370  73.0399580  66.7099830  29.2065390
  72.2259420  67.1396990  29.4691180  73.4473780  67.3218240  28.5934440
  75.1025020  64.7647520  16.1065660  75.3773860  65.6726400  15.9784880
  74.9135760  64.7010050  17.0427650  71.5000630  57.7892370  17.4019290
  71.9185510  57.6023350  16.5615950  71.1936690  56.9371420  17.7122220
  74.9990360  62.7016510  21.0995090  74.6233960  61.9344440  20.6676380
  74.2693480  63.0839210  21.5870020  59.5886120  63.3803650  27.7204140
  59.9559160  63.2931050  28.6000160  59.0196940  62.6170200  27.6211000
  74.3889980  61.8488030  30.7334610  74.1576070  61.6200780  29.8332560
  74.6494530  62.7687580  30.6879500  59.1402120  60.2912740  31.6262560
  58.2458170  60.2579500  31.9656270  59.6799670  60.4899530  32.3913810
  72.8278050  57.0744460  33.5114310  73.7048230  57.0827860  33.8948310
  72.8398890  56.3375300  32.9006660  57.7648270  60.2050010  19.1226130
  56.8612350  60.4680210  18.9477790  58.2488890  60.4761180  18.3426090
  74.2741320  60.9274000  24.4002330  74.7978800  60.4336650  23.7692500
  74.8600740  61.0624360  25.1449900  74.4531040  61.0113870  27.9221880
  73.5033750  60.9777410  28.0366870  74.6344050  61.9213980  27.6871650
  60.3075480  59.2615550  17.0320510  61.0167180  58.8398770  16.5467790
  59.5915420  59.3290780  16.4003860  59.9549640  55.3154880  16.0723160
  60.6777770  55.8563820  16.3904380  60.2274160  55.0418300  15.1964700
  73.7641290  60.1847350  20.3394740  74.2600410  59.9518220  21.1243620
  73.5657360  59.3459190  19.9232380  59.6441830  54.5661070  25.9745780
  60.2918020  54.0158450  25.5340940  60.0643670  54.8204220  26.7961590
  75.1928450  58.8208300  22.8732420  75.0827730  58.6664340  23.8114690
  75.9536040  58.2929240  22.6307830  73.5394170  54.7602430  29.3315420
  74.1766390  55.3736570  29.6974610  73.6869060  54.7963090  28.3864650
  76.0818720  56.6516220  16.1138560  77.0068030  56.5197400  15.9056850
  76.0594510  56.7309040  17.0675010  76.1557210  57.4226880  18.7395270
  75.3608710  57.3572000  19.2688180  76.3600490  58.3577520  18.7280620
  73.0975630  71.4618430  22.7333660  73.6934700  71.1403000  22.0568080
  73.3553780  70.9890250  23.5246930  59.3973830  54.7216740  28.7171100
  59.0488650  55.1780560  29.4829280  59.0661530  53.8273870  28.7993530
  61.0038200  67.8936340  32.8824290  60.9607830  67.5229250  33.7638750
  61.1349210  68.8313910  33.0226110  64.7044230  69.4495930  28.4834010
  64.4635590  69.7170490  27.5964530  65.6446870  69.6201660  28.5384870
  66.9098650  55.9128620  32.2390520  66.8487540  56.5050450  32.9885930
  67.8499030  55.8054580  32.0940780  69.5473210  55.5698680  31.8782810
  70.1613620  55.8877970  31.2163890  70.0922770  55.0847270  32.4978670
  75.9648390  71.4690310  29.2844650  75.4706670  71.8659180  28.5671780
  75.3561680  70.8439520  29.6781930  60.0694470  54.2492940  31.9921870
  60.6177460  54.0680990  31.2287980  60.1349780  53.4587050  32.5278180
  60.8426230  70.8398590  30.0022070  60.2486550  70.7083290  30.7412110
  60.8350070  70.0036730  29.5364170  70.2881250  54.1330820  28.2052100
  69.4141090  54.4665930  28.0025030  70.1792000  53.6604000  29.0303970
  71.1953230  56.3401690  29.5893820  70.8666590  55.5253450  29.2095550
  72.1435530  56.2971500  29.4659510  73.6487840  72.1113730  26.5631390
  73.1890810  72.8629540  26.1889410  73.0200300  71.3920200  26.5046190
  60.4738460  68.2056970  28.9530110  59.7472520  67.5862260  28.8856060
  60.5347610  68.5997580  28.0828190  64.0783560  70.4201970  25.7379520
  64.5948580  69.8089330  25.2127780  64.7280940  70.9230750  26.2290530
  66.8179060  71.3110460  26.5648500  67.1056870  71.0564760  25.6881510
  67.3302280  70.7587820  27.1554070  68.0356070  55.0500660  27.1445010
  67.2527860  55.5246160  27.4241770  67.7419000  54.1455490  27.0358190
  72.5877140  55.7523760  25.1894100  73.0285230  55.6968860  24.3415700
  72.3184730  56.6681770  25.2604280  74.4515710  55.3839000  23.2002920
  74.3904110  54.4400220  23.0533940  75.2307740  55.4919090  23.7456380
  58.7568460  71.5231360  22.1626870  58.5890500  70.8902040  22.8608760
  57.8902970  71.7290760  21.8121060  59.3796480  55.3548140  19.6658730
  60.1375840  55.4677020  19.0922760  58.9173650  56.1917340  19.6202160
  65.9210290  57.4687410  22.6561040  65.1084800  57.0944300  22.3156920
  66.4251930  56.7132490  22.9582230  70.4235270  54.1329860  23.8944110
  71.0264640  54.7050070  24.3692630  69.6828260  54.6969300  23.6718010
  73.5669870  54.5351420  19.1684390  73.7620500  55.4334870  19.4351820
  72.7799740  54.3038500  19.6617340  60.3631160  70.2164590  19.6077010
  59.8378780  70.5972620  18.9038970  60.2875740  70.8415360  20.3286720
  61.7521630  55.8812190  18.2060700  62.2814390  55.0941990  18.0768650
  62.3849950  56.5603380  18.4396230  63.9459470  55.6187330  21.2606090
  63.3162210  54.9174640  21.4276220  63.4064610  56.3791460  21.0439250
  66.8851420  72.2326560  33.9316700  67.8118730  71.9970830  33.9752660
  66.8701850  73.0598560  33.4502730  75.1196480  71.7752130  20.9290950
  75.2948670  71.0889870  20.2851870  74.4218050  72.2999180  20.5367620
  64.0715030  54.8971310  33.6958580  63.7899300  55.4004910  32.9319400
  64.4534730  54.0993060  33.3300710  62.9624130  72.1646970  18.4826260
  63.6942950  71.8806250  17.9350150  63.2217800  71.9260250  19.3725640
  62.1238920  68.2811700  18.4872590  61.4947800  68.7496800  19.0358420
  62.2386750  67.4360920  18.9218780  70.6730490  54.3124890  34.2739050
  70.5595940  54.6319500  35.1690570  71.4900230  54.7137400  33.9776330
  73.4528980  71.4596420  33.7557740  74.2454300  70.9645650  33.5483700
  73.7462130  72.1386560  34.3633350  69.5788640  62.3317360   4.6373790
  69.4982690  61.4171970   4.3665500  69.1653060  62.8284430   3.9313500
  67.7106680  64.1096380   6.5183060  66.9348780  63.6296820   6.8081630
  68.3619610  63.4302030   6.3439220  61.7272510  64.4216190   7.3958820
  60.8957390  64.1664900   7.7955330  62.3353490  64.4926960   8.1316740
  71.7314110  68.5156570   5.2982190  71.2695640  67.7443810   5.6269360
  72.5439660  68.5422640   5.8034640  61.7073770  68.4556280   7.5916840
  62.0101810  67.5654020   7.4127060  62.4517360  69.0126500   7.3639090
  58.0997470  61.9823730   7.0640910  58.6713580  61.2145930   7.0644550
  58.0999010  62.2812490   6.1547520  67.9577420  70.8014580   4.9186180
  67.3388860  71.2572080   4.3480620  68.8129200  70.9566040   4.5175880
  67.1515670  66.7853570   6.5253220  67.0823950  65.8443510   6.3642350
  67.9135530  66.8754980   7.0975790  59.3422340  57.3908090   8.8509840
  59.1625180  56.4933840   9.1312600  58.9402420  57.9379960   9.5256790
  68.1820840  59.5923950   6.7522150  68.5585660  58.7195830   6.6395820
  68.0840350  59.9282650   5.8612590  62.3125850  57.9649580   2.2139590
  62.4192600  58.8653310   2.5208350  61.4018210  57.9167550   1.9234240
  71.9644960  57.0874390   3.6850490  72.7854580  56.5970960   3.7275970
  71.9979040  57.6772050   4.4382330  59.9609010  59.8868590   7.4592180
  60.6419120  60.1506960   8.0779580  59.6457060  59.0469460   7.7930190
  64.1533580  60.9335950   6.5464770  64.6611800  61.4316920   7.1869790
  64.6846820  60.1571150   6.3704130  76.2544510  59.1041140  10.2494120
  75.5496680  59.4922850   9.7309230  76.5202430  59.7991430  10.8515050
  62.4369680  55.5734510  10.8128190  62.4388120  56.0906900  10.0074090
  61.6073990  55.0964690  10.7898120  68.8240770  65.6853820   2.3118090
  68.2058040  66.1503270   1.7480810  69.3364020  66.3781300   2.7287600
  63.6872530  65.2129690   8.9901690  63.3541910  65.8398610   9.6322760
  63.8639210  65.7391570   8.2103360  72.2006440  59.0274770   6.4578030
  71.4962010  59.3159660   7.0381140  72.5618600  59.8374880   6.0977590
  62.1185010  57.2844470   8.8198640  62.4601820  58.1286520   8.5252510
  61.1800820  57.4328210   8.9363980  62.8991630  67.1810490  10.8050870
  63.5165630  67.8561570  10.5235320  62.0384750  67.5898470  10.7138370
  73.8169220  68.6449900   8.7205510  73.1332740  69.3149010   8.7122180
  74.3563510  68.8430550   7.9550370  75.2693360  58.4729560   6.8487240
  74.3218270  58.5068540   6.9802670  75.5943350  59.2868510   7.2336600
  65.8012900  54.7726740   5.1443230  66.1087880  54.2173630   4.4278730
  64.8713600  54.9071200   4.9616220  71.3527960  70.4894030   7.4350690
  71.3655120  70.0856320   6.5672950  70.8003180  71.2641320   7.3312120
  72.6473380  67.2110250   2.5240860  72.5369710  66.2684580   2.6490280
  72.6441630  67.5725890   3.4103620  70.7513400  65.3923870   8.7633300
  71.1682190  65.1783980   7.9286760  71.4753220  65.6496660   9.3341920
  68.1893660  62.8375570   1.8803350  67.2622940  62.7712950   2.1091820
  68.3418480  63.7755700   1.7658590  74.6975500  63.7911090   8.8549540
  73.8694130  63.8604180   8.3799670  75.2925980  64.3765400   8.3865370
  72.2190950  64.3995870   2.3838600  71.6003370  64.0615420   1.7364900
  72.2015400  63.7555630   3.0917790  71.6617510  60.5780410   9.8004410
  71.2488690  61.4034120  10.0544400  70.9293460  59.9925450   9.6080770
  63.7950300  63.3640310   4.6623080  63.3907300  62.6517560   4.1668980
  63.8813420  63.0193550   5.5511120  64.2632000  67.0507870   6.8262290
  63.9660290  66.4453340   6.1470070  65.2131820  67.0885180   6.7151650
  62.5078920  60.1383520   8.4422120  63.0593510  60.2478860   7.6675370
  63.0222430  60.5121120   9.1577350  72.3517610  70.6239740  10.4885390
  71.8748170  71.4311930  10.2958000  71.6679400  69.9718070  10.6411600
  63.3550430  66.7889560  13.4770090  62.4578960  67.0129530  13.7243490
  63.3803300  66.9124500  12.5281490  62.1821650  63.6602880  12.0527460
  62.0429420  64.5325680  12.4214860  61.3003010  63.3175690  11.9075400
  68.5051030  68.5778750   3.3592590  68.9446940  69.3203080   2.9447980
  68.4437920  68.8205320   4.2831550  63.9802000  69.6024580  14.2612610
  63.9517430  70.0067530  13.3941040  63.8166970  68.6734940  14.0984210
  75.9316820  70.3851680  15.5576780  76.4076540  70.8634570  16.2365860
  76.5523980  70.3169170  14.8322280  58.1340300  65.4300430   7.9698370
  58.2120720  65.5649200   7.0254090  58.7481980  64.7216320   8.1626490
  59.3787930  67.1300620   4.3804550  58.9716010  67.2715210   3.5258150
  60.2700940  66.8460780   4.1775760  75.3350070  67.5764530  12.7176790
  75.4613130  67.3376410  11.7993970  75.3771450  66.7449070  13.1898870
  69.1966810  71.2792530  11.2871600  69.7111480  71.1900540  12.0894030
  68.3535890  71.6252230  11.5799510  63.6509590  71.3446400   2.4927220
  63.4752070  70.4281940   2.2795020  62.7965330  71.7033690   2.7325020
  70.4397270  70.6998140   3.3502090  70.8954220  69.9187520   3.6640710
  70.7789790  71.4104960   3.8943270  75.1874080  59.6296990  13.6826530
  74.5718350  60.1376660  13.1541990  74.8670500  58.7295320  13.6252470
  58.1899820  66.4714600  10.5092830  58.3530860  66.0019960   9.6912200
  58.6552270  65.9638160  11.1741670  62.9618590  55.6020360   5.5453400
  62.5186740  56.3829900   5.2137920  63.5203580  55.9250250   6.2524340
  67.2488400  58.4688880  11.1488720  66.7867770  58.6771900  11.9608660
  66.8466510  57.6548230  10.8459390  72.2492910  59.6897830  12.2785380
  71.3986500  59.3903580  12.5994450  72.0894700  59.9339840  11.3669200
  69.3442620  61.1899580  14.3784170  69.6696030  60.3563330  14.0386400
  70.1322950  61.7128100  14.5262500  64.9994490  56.1467690   7.4043000
  65.2966820  57.0530520   7.3235020  65.5480050  55.6586470   6.7902570
  62.7532810  60.7253930   3.2734650  62.5273730  60.5091100   4.1781270
  61.9725340  61.1582390   2.9280620  65.1932020  61.6239510  13.9394920
  65.0975620  60.6834240  13.7895320  66.0364000  61.8454580  13.5442990
  68.5895440  59.3680840   3.9028580  68.9825010  59.6853040   3.0897270
  68.9512290  58.4892720   4.0173100  60.3242560  58.0353180  12.0928700
  59.9305950  58.8828390  12.3001480  59.6360960  57.3979550  12.2837340
  66.8987610  58.1188150  15.1625440  66.2085930  57.9260350  15.7971530
  67.6419910  58.4022790  15.6949740  57.6259610  55.9581640   6.1258780
  57.3372660  56.5284500   6.8383760  58.3705370  55.4786090   6.4890010
  69.1750580  61.9586590   7.9979360  68.4431700  62.4673400   8.3469460
  68.7774920  61.1416570   7.6968140  65.6127970  58.6340790   6.4031850
  65.6164030  58.1930740   5.5536390  66.5079090  58.9558120   6.5103670
  61.4630350  58.5167280   5.3626060  61.1230400  58.9942510   6.1193110
  60.7007670  58.0632400   5.0027160  69.6376490  57.4120270   7.4102300
  69.6549230  57.8628920   8.2544150  69.3892070  56.5125910   7.6235740
  73.0647240  54.8252450  13.2488680  73.3893010  54.0942110  13.7746660
  73.1003750  54.5066090  12.3469670  59.7638800  65.8466030  12.6688640
  59.3793590  65.2059700  13.2671600  60.0750990  66.5502150  13.2383370
  65.9135940  62.6942570   8.1497260  66.2806070  62.2201140   8.8958600
  65.7241000  63.5684140   8.4905600  58.7776430  57.4386260   4.2790730
  58.4923350  57.0741930   5.1169350  58.7155290  56.7066720   3.6653870
  63.7035310  61.7351210  10.4681470  63.3992380  62.6143190  10.6931830
  64.6581770  61.7951000  10.5038910  72.9905080  64.9377560   6.8574710
  73.7104200  65.4332850   6.4670820  72.7886900  64.2595450   6.2128580
  68.3723880  65.0086620  12.7443710  68.3061190  64.0882290  12.4901300
  67.7429020  65.1062060  13.4588350  62.2754500  65.6092580   4.7027130
  62.7933170  64.8060840   4.6484020  61.8238520  65.5471720   5.5443960
  59.7599040  62.5753950  11.6152830  59.4013980  63.2407800  12.2026170
  59.4653600  61.7437500  11.9865450  62.9612160  63.0338190  14.4992380
  62.6612300  63.1795370  13.6020200  63.7323400  62.4743480  14.4065770
  68.3040610  67.8307190  12.4947510  68.3185150  66.8988150  12.2766420
  67.5965710  67.9166950  13.1337280  74.5151820  64.4714530  11.8416090
  73.7900010  65.0643310  11.6445480  75.0427280  64.4638070  11.0429460
  70.0451410  66.1974700   5.3399940  70.3975230  65.6002830   4.6801310
  69.1613740  65.8718930   5.5108190  66.1314690  66.9572390   2.7470350
  66.8185820  67.5041600   3.1277940  65.3447110  67.5013120   2.7819960
  65.4341900  63.9618420   2.3595710  65.8904680  64.7723670   2.5855900
  65.0830110  63.6441560   3.1914200  67.7374510  69.4724760   9.5888010
  68.3816730  69.6784140  10.2661430  68.1003950  68.7113160   9.1358860
  61.3353680  54.3056070   2.8318230  61.2068310  54.2973970   3.7803150
  60.5115700  54.6439160   2.4809240  69.0106590  67.4757110   8.3065460
  69.6528820  66.7750270   8.4197630  69.5355940  68.2555550   8.1262350
  70.7844210  68.2752010  11.5101520  71.1200450  68.8618700  12.1879440
  69.8644550  68.1444720  11.7399310  58.3347610  56.0647190  12.2924930
  57.6206130  56.2644110  12.8977540  58.7542650  55.2886760  12.6639730
  58.6220200  70.0527450  13.2791460  58.7311320  69.1122190  13.1386850
  57.9700760  70.3182200  12.6305190  66.6132790  68.3243340  14.6789580
  66.2929660  67.6052580  15.2235270  65.9391150  68.9998410  14.7525640
  69.8286390  58.5569500  10.0426380  70.1967210  57.7364710  10.3705950
  68.9684590  58.6171390  10.4582030  65.1632450  59.7912390   2.2671820
  64.4548600  60.2598730   2.7085430  65.4476930  59.1334400   2.9017010
  66.7888380  61.2109090  10.2664350  67.2873630  61.6854910  10.9316200
  66.9311330  60.2872610  10.4734380  69.1947880  56.5163050   3.7067610
  69.0715660  56.5349180   2.7577120  70.1432440  56.5641990   3.8266010
  66.2824670  71.7518350   2.9795590  66.5366170  71.7139740   2.0574960
  65.3337150  71.6251680   2.9723840  73.9955240  57.4277050  11.1092740
  73.4928840  58.1682450  11.4486550  74.8111900  57.8161050  10.7929530
  72.2877250  62.6710230   4.5554100  71.3467390  62.6860460   4.7301790
  72.6021320  61.8846190   5.0014400  74.2902830  69.8419080   6.2308360
  74.4150250  70.6650250   6.7032170  75.1568390  69.6309810   5.8832510
  61.7620360  71.9350290   5.9025490  62.4982840  71.3865750   6.1734060
  62.1461280  72.8006300   5.7631480  58.6465840  68.0023860   1.7767000
  57.7205620  68.2445000   1.7672410  59.1122270  68.8298120   1.6551750
  60.7678640  71.1196360  15.0911070  61.5691370  71.4408410  15.5046470
  60.2530460  70.7591940  15.8130980  69.6043270  67.2276230  15.0386480
  68.9981430  67.2507830  14.2982230  69.2997380  66.4959270  15.5753730
  71.0343640  70.9556520  13.6495890  71.9865390  70.8714540  13.5996130
  70.8871860  71.6198230  14.3229680  58.4876450  63.6069820  14.0347120
  58.9915470  63.0277100  14.6063350  57.7483870  63.8910050  14.5723490
  65.5414390  65.0140810  13.5682640  64.7760060  65.5825810  13.4837310
  65.7230350  64.7217020  12.6750870  72.6837740  66.7446140  14.1257660
  73.4247210  67.0821900  13.6225120  71.9210420  66.9138200  13.5727430
  60.5199530  61.7499410  14.9297190  60.5604870  61.4513280  15.8382420
  61.3745030  62.1507020  14.7704710  62.4605340  60.3291510  12.8971680
  61.9301800  59.8382460  12.2695020  63.1293410  60.7575710  12.3629610
  71.3583400  64.7960970  12.6612870  71.7724420  64.9506050  13.5103290
  70.4234400  64.9216190  12.8238650  71.8305570  62.1357130  14.6652020
  72.4126340  61.3809450  14.5772500  72.0067340  62.6664570  13.8883500
  62.9477640  57.2953880  12.9768970  62.8534510  56.6774630  12.2519840
  62.3675030  58.0220170  12.7498880  65.7139080  55.8527120  10.0096360
  65.2656380  55.8751380   9.1641910  65.0804280  55.4546140  10.6066660
  66.1198630  64.7481450  10.6308800  66.5386740  65.5914180  10.4585040
  65.2007260  64.8853490  10.4015580  68.4562530  62.4797630  12.0146640
  68.5758740  61.8838770  12.7541480  69.3156530  62.5167320  11.5947940
  70.7950430  63.0334820  10.5909150  70.2685650  63.5577440   9.9874290
  71.1381770  63.6662210  11.2218880  63.9706050  71.0534460  11.7466530
  63.4327140  71.7780520  11.4275230  64.2240010  70.5764800  10.9563870
  65.2231300  59.0218980  13.2722460  65.8130990  58.7134830  13.9600280
  64.4051540  58.5498730  13.4282360  70.0424730  58.6384790  13.5055480
  69.3540250  57.9766330  13.4405470  70.7630750  58.1923060  13.9503940
  66.8268260  72.2885670  12.0053180  66.7526960  73.1920810  12.3125550
  65.9247100  71.9697570  11.9775250  58.2295550  69.6160260   5.3086800
  58.5598560  68.7481320   5.0765440  58.6586550  69.8218780   6.1391760
  62.8257470  67.9469270   2.9688770  62.5253010  67.8234240   3.8692680
  62.7194960  67.0877860   2.5604500  58.7185760  70.4830850   8.0468430
  58.2816750  70.6631650   8.8792580  59.2863440  71.2405470   7.9050150
  74.3547940  69.9847850  12.3345740  73.7549930  70.0440410  11.5909660
  74.4841840  69.0452830  12.4642590  58.5510190  62.9951080   4.4057310
  57.8959030  62.7262720   3.7617010  59.3888140  62.8855560   3.9559290
  76.0565820  65.3263250   5.0191580  76.4274650  64.5430570   4.6127550
  76.6967750  66.0152350   4.8408880  73.0399580  66.7099830  10.4321900
  72.2259420  67.1396990  10.6947690  73.4473780  67.3218240   9.8190950
  74.9990360  62.7016510   2.3251600  74.6233960  61.9344440   1.8932890
  74.2693480  63.0839210   2.8126530  59.5886120  63.3803650   8.9460650
  59.9559160  63.2931050   9.8256670  59.0196940  62.6170200   8.8467510
  74.3889980  61.8488030  11.9591120  74.1576070  61.6200780  11.0589070
  74.6494530  62.7687580  11.9136010  59.1402120  60.2912740  12.8519070
  58.2458170  60.2579500  13.1912780  59.6799670  60.4899530  13.6170320
  72.8278050  57.0744460  14.7370820  73.7048230  57.0827860  15.1204820
  72.8398890  56.3375300  14.1263170  74.2741320  60.9274000   5.6258840
  74.7978800  60.4336650   4.9949010  74.8600740  61.0624360   6.3706410
  74.4531040  61.0113870   9.1478390  73.5033750  60.9777410   9.2623380
  74.6344050  61.9213980   8.9128160  59.6441830  54.5661070   7.2002290
  60.2918020  54.0158450   6.7597450  60.0643670  54.8204220   8.0218100
  75.1928450  58.8208300   4.0988930  75.0827730  58.6664340   5.0371200
  75.9536040  58.2929240   3.8564340  73.5394170  54.7602430  10.5571930
  74.1766390  55.3736570  10.9231120  73.6869060  54.7963090   9.6121160
  73.0975630  71.4618430   3.9590170  73.6934700  71.1403000   3.2824590
  73.3553780  70.9890250   4.7503440  59.3973830  54.7216740   9.9427610
  59.0488650  55.1780560  10.7085790  59.0661530  53.8273870  10.0250040
  61.0038200  67.8936340  14.1080800  60.9607830  67.5229250  14.9895260
  61.1349210  68.8313910  14.2482620  64.7044230  69.4495930   9.7090520
  64.4635590  69.7170490   8.8221040  65.6446870  69.6201660   9.7641380
  66.9098650  55.9128620  13.4647030  66.8487540  56.5050450  14.2142440
  67.8499030  55.8054580  13.3197290  69.5473210  55.5698680  13.1039320
  70.1613620  55.8877970  12.4420400  70.0922770  55.0847270  13.7235180
  75.9648390  71.4690310  10.5101160  75.4706670  71.8659180   9.7928290
  75.3561680  70.8439520  10.9038440  60.0694470  54.2492940  13.2178380
  60.6177460  54.0680990  12.4544490  60.1349780  53.4587050  13.7534690
  60.8426230  70.8398590  11.2278580  60.2486550  70.7083290  11.9668620
  60.8350070  70.0036730  10.7620680  70.2881250  54.1330820   9.4308610
  69.4141090  54.4665930   9.2281540  70.1792000  53.6604000  10.2560480
  71.1953230  56.3401690  10.8150330  70.8666590  55.5253450  10.4352060
  72.1435530  56.2971500  10.6916020  73.6487840  72.1113730   7.7887900
  73.1890810  72.8629540   7.4145920  73.0200300  71.3920200   7.7302700
  60.4738460  68.2056970  10.1786620  59.7472520  67.5862260  10.1112570
  60.5347610  68.5997580   9.3084700  64.0783560  70.4201970   6.9636030
  64.5948580  69.8089330   6.4384290  64.7280940  70.9230750   7.4547040
  66.8179060  71.3110460   7.7905010  67.1056870  71.0564760   6.9138020
  67.3302280  70.7587820   8.3810580  68.0356070  55.0500660   8.3701520
  67.2527860  55.5246160   8.6498280  67.7419000  54.1455490   8.2614700
  72.5877140  55.7523760   6.4150610  73.0285230  55.6968860   5.5672210
  72.3184730  56.6681770   6.4860790  74.4515710  55.3839000   4.4259430
  74.3904110  54.4400220   4.2790450  75.2307740  55.4919090   4.9712890
  58.7568460  71.5231360   3.3883380  58.5890500  70.8902040   4.0865270
  57.8902970  71.7290760   3.0377570  65.9210290  57.4687410   3.8817550
  65.1084800  57.0944300   3.5413430  66.4251930  56.7132490   4.1838740
  70.4235270  54.1329860   5.1200620  71.0264640  54.7050070   5.5949140
  69.6828260  54.6969300   4.8974520  63.9459470  55.6187330   2.4862600
  63.3162210  54.9174640   2.6532730  63.4064610  56.3791460   2.2695760
  66.8851420  72.2326560  15.1573210  67.8118730  71.9970830  15.2009170
  66.8701850  73.0598560  14.6759240  64.0715030  54.8971310  14.9215090
  63.7899300  55.4004910  14.1575910  64.4534730  54.0993060  14.5557220
  70.6730490  54.3124890  15.4995560  70.5595940  54.6319500  16.3947080
  71.4900230  54.7137400  15.2032840  73.4528980  71.4596420  14.9814250
  74.2454300  70.9645650  14.7740210  73.7462130  72.1386560  15.5889860
  69.5788640  43.5573870  79.7347750  69.4982690  42.6428480  79.4639460
  69.1653060  44.0540940  79.0287460  67.7106680  45.3352890  81.6157020
  66.9348780  44.8553330  81.9055590  68.3619610  44.6558540  81.4413180
  61.7272510  45.6472700  82.4932780  60.8957390  45.3921410  82.8929290
  62.3353490  45.7183470  83.2290700  71.7314110  49.7413080  80.3956150
  71.2695640  48.9700320  80.7243320  72.5439660  49.7679150  80.9008600
  61.7073770  49.6812790  82.6890800  62.0101810  48.7910530  82.5101020
  62.4517360  50.2383010  82.4613050  60.1364460  40.6074590  76.2775170
  59.2481160  40.9490560  76.1755050  60.4205650  40.4074910  75.3856000
  58.0997470  43.2080240  82.1614870  58.6713580  42.4402440  82.1618510
  58.0999010  43.5069000  81.2521480  67.9577420  52.0271090  80.0160140
  67.3388860  52.4828590  79.4454580  68.8129200  52.1822550  79.6149840
  67.1515670  48.0110080  81.6227180  67.0823950  47.0700020  81.4616310
  67.9135530  48.1011490  82.1949750  59.3422340  38.6164600  83.9483800
  59.1625180  37.7190350  84.2286560  58.9402420  39.1636470  84.6230750
  68.1820840  40.8180460  81.8496110  68.5585660  39.9452340  81.7369780
  68.0840350  41.1539160  80.9586550  62.3125850  39.1906090  77.3113550
  62.4192600  40.0909820  77.6182310  61.4018210  39.1424060  77.0208200
  71.9644960  38.3130900  78.7824450  72.7854580  37.8227470  78.8249930
  71.9979040  38.9028560  79.5356290  59.9609010  41.1125100  82.5566140
  60.6419120  41.3763470  83.1753540  59.6457060  40.2725970  82.8904150
  64.1533580  42.1592460  81.6438730  64.6611800  42.6573430  82.2843750
  64.6846820  41.3827660  81.4678090  76.2544510  40.3297650  85.3468080
  75.5496680  40.7179360  84.8283190  76.5202430  41.0247940  85.9489010
  62.4369680  36.7991020  85.9102150  62.4388120  37.3163410  85.1048050
  61.6073990  36.3221200  85.8872080  68.8240770  46.9110330  77.4092050
  68.2058040  47.3759780  76.8454770  69.3364020  47.6037810  77.8261560
  63.6872530  46.4386200  84.0875650  63.3541910  47.0655120  84.7296720
  63.8639210  46.9648080  83.3077320  72.2006440  40.2531280  81.5551990
  71.4962010  40.5416170  82.1355100  72.5618600  41.0631390  81.1951550
  62.1185010  38.5100980  83.9172600  62.4601820  39.3543030  83.6226470
  61.1800820  38.6584720  84.0337940  62.8991630  48.4067000  85.9024830
  63.5165630  49.0818080  85.6209280  62.0384750  48.8154980  85.8112330
  58.1923970  47.5966860  74.7831680  57.8151950  48.0853960  74.0516580
  58.4497040  48.2692140  75.4138210  73.8169220  49.8706410  83.8179470
  73.1332740  50.5405520  83.8096140  74.3563510  50.0687060  83.0524330
  75.2693360  39.6986070  81.9461200  74.3218270  39.7325050  82.0776630
  75.5943350  40.5125020  82.3310560  65.8012900  35.9983250  80.2417190
  66.1087880  35.4430140  79.5252690  64.8713600  36.1327710  80.0590180
  71.3527960  51.7150540  82.5324650  71.3655120  51.3112830  81.6646910
  70.8003180  52.4897830  82.4286080  72.6473380  48.4366760  77.6214820
  72.5369710  47.4941090  77.7464240  72.6441630  48.7982400  78.5077580
  70.7513400  46.6180380  83.8607260  71.1682190  46.4040490  83.0260720
  71.4753220  46.8753170  84.4315880  68.1893660  44.0632080  76.9777310
  67.2622940  43.9969460  77.2065780  68.3418480  45.0012210  76.8632550
  68.1762740  40.3349080  73.9744470  67.2366410  40.4963040  74.0596930
  68.4946000  41.0534760  73.4280460  74.6975500  45.0167600  83.9523500
  73.8694130  45.0860690  83.4773630  75.2925980  45.6021910  83.4839330
  72.2190950  45.6252380  77.4812560  71.6003370  45.2871930  76.8338860
  72.2015400  44.9812140  78.1891750  71.6617510  41.8036920  84.8978370
  71.2488690  42.6290630  85.1518360  70.9293460  41.2181960  84.7054730
  63.7950300  44.5896820  79.7597040  63.3907300  43.8774070  79.2642940
  63.8813420  44.2450060  80.6485080  64.2632000  48.2764380  81.9236250
  63.9660290  47.6709850  81.2444030  65.2131820  48.3141690  81.8125610
  62.5078920  41.3640030  83.5396080  63.0593510  41.4735370  82.7649330
  63.0222430  41.7377630  84.2551310  72.3517610  51.8496250  85.5859350
  71.8748170  52.6568440  85.3931960  71.6679400  51.1974580  85.7385560
  70.3955650  44.8639190  74.4885310  70.8348930  44.0261620  74.3423130
  71.1084070  45.4968590  74.5749450  68.5051030  49.8035260  78.4566550
  68.9446940  50.5459590  78.0421940  68.4437920  50.0461830  79.3805510
  73.9772790  36.1182000  72.8026350  73.6645450  36.2108830  73.7025420
  74.7385260  36.6963030  72.7523780  60.4954930  43.4841800  77.2603690
  60.3752530  44.2103890  76.6484960  60.1855820  42.7144710  76.7831600
  58.1340300  46.6556940  83.0672330  58.2120720  46.7905710  82.1228050
  58.7481980  45.9472830  83.2600450  59.3787930  48.3557130  79.4778510
  58.9716010  48.4971720  78.6232110  60.2700940  48.0717290  79.2749720
  71.1721210  52.7904380  75.8129560  71.0122350  52.5007320  76.7111390
  71.0067920  52.0144510  75.2774790  63.6509590  52.5702910  77.5901180
  63.4752070  51.6538450  77.3768980  62.7965330  52.9290200  77.8298980
  70.8747340  50.2991940  74.3727560  70.1812500  50.2969230  73.7129840
  71.6170200  49.8751260  73.9421730  70.4397270  51.9254650  78.4476050
  70.8954220  51.1444030  78.7614670  70.7789790  52.6361470  78.9917230
  62.9618590  36.8276870  80.6427360  62.5186740  37.6086410  80.3111880
  63.5203580  37.1506760  81.3498300  66.0777410  36.4487570  75.5233190
  65.4531590  36.4447440  76.2486500  65.9907530  35.5818530  75.1269160
  64.9994490  37.3724200  82.5016960  65.2966820  38.2787030  82.4208980
  65.5480050  36.8842980  81.8876530  62.7532810  41.9510440  78.3708610
  62.5273730  41.7347610  79.2755230  61.9725340  42.3838900  78.0254580
  69.9830570  41.9573810  76.9699260  69.3839460  42.6809610  76.7862880
  70.5310180  41.8950590  76.1875710  68.5895440  40.5937350  79.0002540
  68.9825010  40.9109550  78.1871230  68.9512290  39.7149230  79.1147060
  57.6259610  37.1838150  81.2232740  57.3372660  37.7541010  81.9357720
  58.3705370  36.7042600  81.5863970  57.8129840  41.1258270  72.4335460
  57.7304510  42.0689030  72.5750450  57.4612900  40.9833180  71.5547810
  69.1750580  43.1843100  83.0953320  68.4431700  43.6929910  83.4443420
  68.7774920  42.3673080  82.7942100  65.6127970  39.8597300  81.5005810
  65.6164030  39.4187250  80.6510350  66.5079090  40.1814630  81.6077630
  61.4630350  39.7423790  80.4600020  61.1230400  40.2199020  81.2167070
  60.7007670  39.2888910  80.1001120  65.6748120  40.8609380  74.4912570
  65.7960940  40.8195860  75.4398390  65.2896630  41.7233530  74.3359300
  69.6376490  38.6376780  82.5076260  69.6549230  39.0885430  83.3518110
  69.3892070  37.7382420  82.7209700  64.6869620  43.1710520  73.8895870
  64.1186520  42.7228770  73.2631780  65.3958620  43.5303300  73.3561020
  65.9135940  43.9199080  83.2471220  66.2806070  43.4457650  83.9932560
  65.7241000  44.7940650  83.5879560  58.7776430  38.6642770  79.3764690
  58.4923350  38.2998440  80.2143310  58.7155290  37.9323230  78.7627830
  63.7035310  42.9607720  85.5655430  63.3992380  43.8399700  85.7905790
  64.6581770  43.0207510  85.6012870  62.2317100  47.1668710  76.1622280
  61.4579360  46.6266330  76.0021000  62.9611730  46.6475320  75.8240040
  72.9905080  46.1634070  81.9548670  73.7104200  46.6589360  81.5644780
  72.7886900  45.4851960  81.3102540  68.4515020  37.5572030  76.0978060
  67.6379630  37.0585200  76.0223370  68.2576970  38.3970280  75.6814410
  71.1663410  41.9291680  74.3940220  72.0543030  42.2408910  74.2191560
  71.1368500  41.0563930  74.0020800  62.2754500  46.8349090  79.8001090
  62.7933170  46.0317350  79.7457980  61.8238520  46.7728230  80.6417920
  67.1624000  48.1015370  75.0728390  67.5039700  48.8457600  74.5771710
  66.3336710  48.4146490  75.4353220  73.4377680  43.2403520  73.8620080
  73.3541400  43.6717740  73.0116520  74.1571870  43.7001870  74.2946900
  74.4664930  50.0945780  76.5902210  73.8241090  49.4401400  76.8645930
  74.0795590  50.5000870  75.8142880  70.0451410  47.4231210  80.4373900
  70.3975230  46.8259340  79.7775270  69.1613740  47.0975440  80.6082150
  66.1314690  48.1828900  77.8444310  66.8185820  48.7298110  78.2251900
  65.3447110  48.7269630  77.8793920  58.2707090  43.8001720  73.3361390
  59.1401940  44.0826520  73.6197310  57.7797410  44.6137590  73.2210200
  65.4341900  45.1874930  77.4569670  65.8904680  45.9980180  77.6829860
  65.0830110  44.8698070  78.2888160  67.7374510  50.6981270  84.6861970
  68.3816730  50.9040650  85.3635390  68.1003950  49.9369670  84.2332820
  61.3353680  35.5312580  77.9292190  61.2068310  35.5230480  78.8777110
  60.5115700  35.8695670  77.5783200  69.0106590  48.7013620  83.4039420
  69.6528820  48.0006780  83.5171590  69.5355940  49.4812060  83.2236310
  72.8562310  48.9862240  73.1278560  72.6299890  48.2692680  73.7203200
  72.4658510  48.7374680  72.2900310  58.6378340  53.0129100  73.9023020
  58.9975980  53.6118440  73.2480290  58.4970680  53.5588990  74.6758050
  72.4378560  46.9034180  74.7892720  72.1500260  47.3646870  75.5770600
  73.2330730  46.4431950  75.0576940  64.6546960  50.3960300  74.7196690
  64.6457060  51.1289990  74.1041200  63.7345320  50.1491880  74.8123650
  60.2553600  45.6175190  75.4643450  59.6481550  46.3574090  75.4738750
  60.7302950  45.7074550  74.6381650  69.8286390  39.7826010  85.1400340
  70.1967210  38.9621220  85.4679910  68.9684590  39.8427900  85.5555990
  73.1948420  38.7382950  75.9487900  72.5661580  38.8428620  75.2346130
  72.7000340  38.9579730  76.7381780  67.6406560  50.4588540  73.3821880
  67.7418540  50.2552530  72.4523860  66.7408300  50.2046820  73.5869660
  65.1632450  41.0168900  77.3645780  64.4548600  41.4855240  77.8059390
  65.4476930  40.3590910  77.9990970  69.1947880  37.7419560  78.8041570
  69.0715660  37.7605690  77.8551080  70.1432440  37.7898500  78.9239970
  66.2824670  52.9774860  78.0769550  66.5366170  52.9396250  77.1548920
  65.3337150  52.8508190  78.0697800  63.3667470  39.3253980  74.7396490
  64.2158000  39.7624130  74.6736680  62.9998740  39.6374240  75.5668550
  72.2877250  43.8966740  79.6528060  71.3467390  43.9116970  79.8275750
  72.6021320  43.1102700  80.0988360  62.2658890  45.5786340  73.2132020
  63.0322160  45.4667700  73.7757450  62.3433580  44.8824310  72.5608790
  60.9605650  43.0111410  73.8964910  61.0409240  42.0638920  74.0082310
  61.8525400  43.3418290  74.0025570  74.2902830  51.0675590  81.3282320
  74.4150250  51.8906760  81.8006130  75.1568390  50.8566320  80.9806470
  61.7620360  53.1606800  80.9999450  62.4982840  52.6122260  81.2708020
  62.1461280  54.0262810  80.8605440  58.6465840  49.2280370  76.8740960
  57.7205620  49.4701510  76.8646370  59.1122270  50.0554630  76.7525710
  64.8722670  52.3337110  72.8225020  65.6651280  52.6225940  72.3706810
  64.3527020  51.9029280  72.1437500  73.9252840  51.5607240  74.2461760
  73.6394350  51.1472380  73.4315940  73.7272390  52.4894950  74.1262280
  65.3900070  47.5540520  72.6867370  65.2850710  46.9392870  73.4128750
  65.2224290  47.0306410  71.9030380  68.6302800  46.6160550  73.2909360
  68.0812900  47.0629850  73.9352100  69.2522060  46.1109800  73.8147030
  64.2977920  45.5751470  75.1874660  64.7194340  45.4091340  76.0306050
  64.4228760  44.7651700  74.6929800  66.8105560  44.5989080  72.4351760
  67.3311220  43.8838100  72.0692910  67.4573960  45.2374950  72.7352270
  65.7139080  37.0783630  85.1070320  65.2656380  37.1007890  84.2615870
  65.0804280  36.6802650  85.7040620  66.1198630  45.9737960  85.7282760
  66.5386740  46.8170690  85.5559000  65.2007260  46.1110000  85.4989540
  63.1936820  41.6484700  72.1332820  62.9925880  40.7852060  72.4946160
  63.0228870  41.5618060  71.1954420  70.6725130  36.4592930  74.6619700
  70.9527420  35.6160830  75.0179120  69.8990860  36.6916040  75.1758450
  61.9919620  38.7485320  72.1210700  62.2945520  38.7552750  71.2129850
  62.7314210  38.3983180  72.6178360  65.2104550  37.6919940  73.1066900
  64.8626550  37.0143930  72.5269350  65.4117320  37.2309450  73.9210290
  67.3753590  52.6800690  74.7253500  68.2704380  53.0185660  74.7472260
  67.4071220  51.9580100  74.0977780  61.0149750  48.0527740  72.9540500
  61.4524620  48.5957410  73.6098080  61.4997480  47.2274690  72.9636840
  58.2295550  50.8416770  80.4060760  58.5598560  49.9737830  80.1739400
  58.6586550  51.0475290  81.2365720  62.8257470  49.1725780  78.0662730
  62.5253010  49.0490750  78.9666640  62.7194960  48.3134370  77.6578460
  58.7185760  51.7087360  83.1442390  58.2816750  51.8888160  83.9766540
  59.2863440  52.4661980  83.0024110  75.5949390  48.9522180  72.7689410
  74.7642350  49.0198830  73.2396640  75.7721220  49.8426300  72.4656270
  75.0505850  45.6969660  75.2723610  75.8124760  46.2666310  75.3783300
  75.0660220  45.1296860  76.0431920  58.5510190  44.2207590  79.5031270
  57.8959030  43.9519230  78.8590970  59.3888140  44.1112070  79.0533250
  76.0565820  46.5519760  80.1165540  76.4274650  45.7687080  79.7101510
  76.6967750  47.2408860  79.9382840  73.0399580  47.9356340  85.5295860
  72.2259420  48.3653500  85.7921650  73.4473780  48.5474750  84.9164910
  75.1025020  45.9904030  72.4296130  75.3773860  46.8982910  72.3015350
  74.9135760  45.9266560  73.3658120  71.5000630  39.0148880  73.7249760
  71.9185510  38.8279860  72.8846420  71.1936690  38.1627930  74.0352690
  74.9990360  43.9273020  77.4225560  74.6233960  43.1600950  76.9906850
  74.2693480  44.3095720  77.9100490  59.5886120  44.6060160  84.0434610
  59.9559160  44.5187560  84.9230630  59.0196940  43.8426710  83.9441470
  57.7648270  41.4306520  75.4456600  56.8612350  41.6936720  75.2708260
  58.2488890  41.7017690  74.6656560  74.2741320  42.1530510  80.7232800
  74.7978800  41.6593160  80.0922970  74.8600740  42.2880870  81.4680370
  74.4531040  42.2370380  84.2452350  73.5033750  42.2033920  84.3597340
  74.6344050  43.1470490  84.0102120  60.3075480  40.4872060  73.3550980
  61.0167180  40.0655280  72.8698260  59.5915420  40.5547290  72.7234330
  59.9549640  36.5411390  72.3953630  60.6777770  37.0820330  72.7134850
  60.2274160  36.2674810  71.5195170  73.7641290  41.4103860  76.6625210
  74.2600410  41.1774730  77.4474090  73.5657360  40.5715700  76.2462850
  59.6441830  35.7917580  82.2976250  60.2918020  35.2414960  81.8571410
  60.0643670  36.0460730  83.1192060  75.1928450  40.0464810  79.1962890
  75.0827730  39.8920850  80.1345160  75.9536040  39.5185750  78.9538300
  76.0818720  37.8772730  72.4369030  77.0068030  37.7453910  72.2287320
  76.0594510  37.9565550  73.3905480  76.1557210  38.6483390  75.0625740
  75.3608710  38.5828510  75.5918650  76.3600490  39.5834030  75.0511090
  73.0975630  52.6874940  79.0564130  73.6934700  52.3659510  78.3798550
  73.3553780  52.2146760  79.8477400  59.3973830  35.9473250  85.0401570
  59.0488650  36.4037070  85.8059750  59.0661530  35.0530380  85.1224000
  64.7044230  50.6752440  84.8064480  64.4635590  50.9427000  83.9195000
  65.6446870  50.8458170  84.8615340  70.2881250  35.3587330  84.5282570
  69.4141090  35.6922440  84.3255500  70.1792000  34.8860510  85.3534440
  71.1953230  37.5658200  85.9124290  70.8666590  36.7509960  85.5326020
  72.1435530  37.5228010  85.7889980  73.6487840  53.3370240  82.8861860
  73.1890810  54.0886050  82.5119880  73.0200300  52.6176710  82.8276660
  60.4738460  49.4313480  85.2760580  59.7472520  48.8118770  85.2086530
  60.5347610  49.8254090  84.4058660  64.0783560  51.6458480  82.0609990
  64.5948580  51.0345840  81.5358250  64.7280940  52.1487260  82.5521000
  66.8179060  52.5366970  82.8878970  67.1056870  52.2821270  82.0111980
  67.3302280  51.9844330  83.4784540  68.0356070  36.2757170  83.4675480
  67.2527860  36.7502670  83.7472240  67.7419000  35.3712000  83.3588660
  72.5877140  36.9780270  81.5124570  73.0285230  36.9225370  80.6646170
  72.3184730  37.8938280  81.5834750  74.4515710  36.6095510  79.5233390
  74.3904110  35.6656730  79.3764410  75.2307740  36.7175600  80.0686850
  58.7568460  52.7487870  78.4857340  58.5890500  52.1158550  79.1839230
  57.8902970  52.9547270  78.1351530  59.3796480  36.5804650  75.9889200
  60.1375840  36.6933530  75.4153230  58.9173650  37.4173850  75.9432630
  65.9210290  38.6943920  78.9791510  65.1084800  38.3200810  78.6387390
  66.4251930  37.9389000  79.2812700  70.4235270  35.3586370  80.2174580
  71.0264640  35.9306580  80.6923100  69.6828260  35.9225810  79.9948480
  73.5669870  35.7607930  75.4914860  73.7620500  36.6591380  75.7582290
  72.7799740  35.5295010  75.9847810  60.3631160  51.4421100  75.9307480
  59.8378780  51.8229130  75.2269440  60.2875740  52.0671870  76.6517190
  61.7521630  37.1068700  74.5291170  62.2814390  36.3198500  74.3999120
  62.3849950  37.7859890  74.7626700  63.9459470  36.8443840  77.5836560
  63.3162210  36.1431150  77.7506690  63.4064610  37.6047970  77.3669720
  75.1196480  53.0008640  77.2521420  75.2948670  52.3146380  76.6082340
  74.4218050  53.5255690  76.8598090  62.9624130  53.3903480  74.8056730
  63.6942950  53.1062760  74.2580620  63.2217800  53.1516760  75.6956110
  62.1238920  49.5068210  74.8103060  61.4947800  49.9753310  75.3588890
  62.2386750  48.6617430  75.2449250  69.5788640  43.5573870  60.9604260
  69.4982690  42.6428480  60.6895970  69.1653060  44.0540940  60.2543970
  67.7106680  45.3352890  62.8413530  66.9348780  44.8553330  63.1312100
  68.3619610  44.6558540  62.6669690  61.7272510  45.6472700  63.7189290
  60.8957390  45.3921410  64.1185800  62.3353490  45.7183470  64.4547210
  71.7314110  49.7413080  61.6212660  71.2695640  48.9700320  61.9499830
  72.5439660  49.7679150  62.1265110  61.7073770  49.6812790  63.9147310
  62.0101810  48.7910530  63.7357530  62.4517360  50.2383010  63.6869560
  60.1364460  40.6074590  57.5031680  59.2481160  40.9490560  57.4011560
  60.4205650  40.4074910  56.6112510  58.0997470  43.2080240  63.3871380
  58.6713580  42.4402440  63.3875020  58.0999010  43.5069000  62.4777990
  67.9577420  52.0271090  61.2416650  67.3388860  52.4828590  60.6711090
  68.8129200  52.1822550  60.8406350  67.1515670  48.0110080  62.8483690
  67.0823950  47.0700020  62.6872820  67.9135530  48.1011490  63.4206260
  59.3422340  38.6164600  65.1740310  59.1625180  37.7190350  65.4543070
  58.9402420  39.1636470  65.8487260  68.1820840  40.8180460  63.0752620
  68.5585660  39.9452340  62.9626290  68.0840350  41.1539160  62.1843060
  62.3125850  39.1906090  58.5370060  62.4192600  40.0909820  58.8438820
  61.4018210  39.1424060  58.2464710  71.9644960  38.3130900  60.0080960
  72.7854580  37.8227470  60.0506440  71.9979040  38.9028560  60.7612800
  59.9609010  41.1125100  63.7822650  60.6419120  41.3763470  64.4010050
  59.6457060  40.2725970  64.1160660  64.1533580  42.1592460  62.8695240
  64.6611800  42.6573430  63.5100260  64.6846820  41.3827660  62.6934600
  76.2544510  40.3297650  66.5724590  75.5496680  40.7179360  66.0539700
  76.5202430  41.0247940  67.1745520  62.4369680  36.7991020  67.1358660
  62.4388120  37.3163410  66.3304560  61.6073990  36.3221200  67.1128590
  68.8240770  46.9110330  58.6348560  68.2058040  47.3759780  58.0711280
  69.3364020  47.6037810  59.0518070  63.6872530  46.4386200  65.3132160
  63.3541910  47.0655120  65.9553230  63.8639210  46.9648080  64.5333830
  72.2006440  40.2531280  62.7808500  71.4962010  40.5416170  63.3611610
  72.5618600  41.0631390  62.4208060  62.1185010  38.5100980  65.1429110
  62.4601820  39.3543030  64.8482980  61.1800820  38.6584720  65.2594450
  62.8991630  48.4067000  67.1281340  63.5165630  49.0818080  66.8465790
  62.0384750  48.8154980  67.0368840  58.1923970  47.5966860  56.0088190
  57.8151950  48.0853960  55.2773090  58.4497040  48.2692140  56.6394720
  73.8169220  49.8706410  65.0435980  73.1332740  50.5405520  65.0352650
  74.3563510  50.0687060  64.2780840  75.2693360  39.6986070  63.1717710
  74.3218270  39.7325050  63.3033140  75.5943350  40.5125020  63.5567070
  65.8012900  35.9983250  61.4673700  66.1087880  35.4430140  60.7509200
  64.8713600  36.1327710  61.2846690  71.3527960  51.7150540  63.7581160
  71.3655120  51.3112830  62.8903420  70.8003180  52.4897830  63.6542590
  72.6473380  48.4366760  58.8471330  72.5369710  47.4941090  58.9720750
  72.6441630  48.7982400  59.7334090  70.7513400  46.6180380  65.0863770
  71.1682190  46.4040490  64.2517230  71.4753220  46.8753170  65.6572390
  68.1893660  44.0632080  58.2033820  67.2622940  43.9969460  58.4322290
  68.3418480  45.0012210  58.0889060  68.1762740  40.3349080  55.2000980
  67.2366410  40.4963040  55.2853440  68.4946000  41.0534760  54.6536970
  74.6975500  45.0167600  65.1780010  73.8694130  45.0860690  64.7030140
  75.2925980  45.6021910  64.7095840  72.2190950  45.6252380  58.7069070
  71.6003370  45.2871930  58.0595370  72.2015400  44.9812140  59.4148260
  71.6617510  41.8036920  66.1234880  71.2488690  42.6290630  66.3774870
  70.9293460  41.2181960  65.9311240  63.7950300  44.5896820  60.9853550
  63.3907300  43.8774070  60.4899450  63.8813420  44.2450060  61.8741590
  64.2632000  48.2764380  63.1492760  63.9660290  47.6709850  62.4700540
  65.2131820  48.3141690  63.0382120  62.5078920  41.3640030  64.7652590
  63.0593510  41.4735370  63.9905840  63.0222430  41.7377630  65.4807820
  72.3517610  51.8496250  66.8115860  71.8748170  52.6568440  66.6188470
  71.6679400  51.1974580  66.9642070  63.3550430  48.0146070  69.8000560
  62.4578960  48.2386040  70.0473960  63.3803300  48.1381010  68.8511960
  70.3955650  44.8639190  55.7141820  70.8348930  44.0261620  55.5679640
  71.1084070  45.4968590  55.8005960  62.1821650  44.8859390  68.3757930
  62.0429420  45.7582190  68.7445330  61.3003010  44.5432200  68.2305870
  68.5051030  49.8035260  59.6823060  68.9446940  50.5459590  59.2678450
  68.4437920  50.0461830  60.6062020  63.9802000  50.8281090  70.5843080
  63.9517430  51.2324040  69.7171510  63.8166970  49.8991450  70.4214680
  73.9772790  36.1182000  54.0282860  73.6645450  36.2108830  54.9281930
  74.7385260  36.6963030  53.9780290  60.4954930  43.4841800  58.4860200
  60.3752530  44.2103890  57.8741470  60.1855820  42.7144710  58.0088110
  75.9316820  51.6108190  71.8807250  76.4076540  52.0891080  72.5596330
  76.5523980  51.5425680  71.1552750  58.1340300  46.6556940  64.2928840
  58.2120720  46.7905710  63.3484560  58.7481980  45.9472830  64.4856960
  59.3787930  48.3557130  60.7035020  58.9716010  48.4971720  59.8488620
  60.2700940  48.0717290  60.5006230  75.3350070  48.8021040  69.0407260
  75.4613130  48.5632920  68.1224440  75.3771450  47.9705580  69.5129340
  69.1966810  52.5049040  67.6102070  69.7111480  52.4157050  68.4124500
  68.3535890  52.8508740  67.9029980  71.1721210  52.7904380  57.0386070
  71.0122350  52.5007320  57.9367900  71.0067920  52.0144510  56.5031300
  63.6509590  52.5702910  58.8157690  63.4752070  51.6538450  58.6025490
  62.7965330  52.9290200  59.0555490  70.8747340  50.2991940  55.5984070
  70.1812500  50.2969230  54.9386350  71.6170200  49.8751260  55.1678240
  70.4397270  51.9254650  59.6732560  70.8954220  51.1444030  59.9871180
  70.7789790  52.6361470  60.2173740  75.1874080  40.8553500  70.0057000
  74.5718350  41.3633170  69.4772460  74.8670500  39.9551830  69.9482940
  58.1899820  47.6971110  66.8323300  58.3530860  47.2276470  66.0142670
  58.6552270  47.1894670  67.4972140  62.9618590  36.8276870  61.8683870
  62.5186740  37.6086410  61.5368390  63.5203580  37.1506760  62.5754810
  67.2488400  39.6945390  67.4719190  66.7867770  39.9028410  68.2839130
  66.8466510  38.8804740  67.1689860  72.2492910  40.9154340  68.6015850
  71.3986500  40.6160090  68.9224920  72.0894700  41.1596350  67.6899670
  69.3442620  42.4156090  70.7014640  69.6696030  41.5819840  70.3616870
  70.1322950  42.9384610  70.8492970  66.0777410  36.4487570  56.7489700
  65.4531590  36.4447440  57.4743010  65.9907530  35.5818530  56.3525670
  64.9994490  37.3724200  63.7273470  65.2966820  38.2787030  63.6465490
  65.5480050  36.8842980  63.1133040  62.7532810  41.9510440  59.5965120
  62.5273730  41.7347610  60.5011740  61.9725340  42.3838900  59.2511090
  69.9830570  41.9573810  58.1955770  69.3839460  42.6809610  58.0119390
  70.5310180  41.8950590  57.4132220  65.1932020  42.8496020  70.2625390
  65.0975620  41.9090750  70.1125790  66.0364000  43.0711090  69.8673460
  68.5895440  40.5937350  60.2259050  68.9825010  40.9109550  59.4127740
  68.9512290  39.7149230  60.3403570  60.3242560  39.2609690  68.4159170
  59.9305950  40.1084900  68.6231950  59.6360960  38.6236060  68.6067810
  66.8987610  39.3444660  71.4855910  66.2085930  39.1516860  72.1202000
  67.6419910  39.6279300  72.0180210  57.6259610  37.1838150  62.4489250
  57.3372660  37.7541010  63.1614230  58.3705370  36.7042600  62.8120480
  57.8129840  41.1258270  53.6591970  57.7304510  42.0689030  53.8006960
  57.4612900  40.9833180  52.7804320  69.1750580  43.1843100  64.3209830
  68.4431700  43.6929910  64.6699930  68.7774920  42.3673080  64.0198610
  65.6127970  39.8597300  62.7262320  65.6164030  39.4187250  61.8766860
  66.5079090  40.1814630  62.8334140  61.4630350  39.7423790  61.6856530
  61.1230400  40.2199020  62.4423580  60.7007670  39.2888910  61.3257630
  65.6748120  40.8609380  55.7169080  65.7960940  40.8195860  56.6654900
  65.2896630  41.7233530  55.5615810  69.6376490  38.6376780  63.7332770
  69.6549230  39.0885430  64.5774620  69.3892070  37.7382420  63.9466210
  64.6869620  43.1710520  55.1152380  64.1186520  42.7228770  54.4888290
  65.3958620  43.5303300  54.5817530  73.0647240  36.0508960  69.5719150
  73.3893010  35.3198620  70.0977130  73.1003750  35.7322600  68.6700140
  59.7638800  47.0722540  68.9919110  59.3793590  46.4316210  69.5902070
  60.0750990  47.7758660  69.5613840  65.9135940  43.9199080  64.4727730
  66.2806070  43.4457650  65.2189070  65.7241000  44.7940650  64.8136070
  58.7776430  38.6642770  60.6021200  58.4923350  38.2998440  61.4399820
  58.7155290  37.9323230  59.9884340  63.7035310  42.9607720  66.7911940
  63.3992380  43.8399700  67.0162300  64.6581770  43.0207510  66.8269380
  62.2317100  47.1668710  57.3878790  61.4579360  46.6266330  57.2277510
  62.9611730  46.6475320  57.0496550  72.9905080  46.1634070  63.1805180
  73.7104200  46.6589360  62.7901290  72.7886900  45.4851960  62.5359050
  68.4515020  37.5572030  57.3234570  67.6379630  37.0585200  57.2479880
  68.2576970  38.3970280  56.9070920  68.3723880  46.2343130  69.0674180
  68.3061190  45.3138800  68.8131770  67.7429020  46.3318570  69.7818820
  71.1663410  41.9291680  55.6196730  72.0543030  42.2408910  55.4448070
  71.1368500  41.0563930  55.2277310  62.2754500  46.8349090  61.0257600
  62.7933170  46.0317350  60.9714490  61.8238520  46.7728230  61.8674430
  67.1624000  48.1015370  56.2984900  67.5039700  48.8457600  55.8028220
  66.3336710  48.4146490  56.6609730  59.7599040  43.8010460  67.9383300
  59.4013980  44.4664310  68.5256640  59.4653600  42.9694010  68.3095920
  62.9612160  44.2594700  70.8222850  62.6612300  44.4051880  69.9250670
  63.7323400  43.6999990  70.7296240  68.3040610  49.0563700  68.8177980
  68.3185150  48.1244660  68.5996890  67.5965710  49.1423460  69.4567750
  73.4377680  43.2403520  55.0876590  73.3541400  43.6717740  54.2373030
  74.1571870  43.7001870  55.5203410  74.5151820  45.6971040  68.1646560
  73.7900010  46.2899820  67.9675950  75.0427280  45.6894580  67.3659930
  74.4664930  50.0945780  57.8158720  73.8241090  49.4401400  58.0902440
  74.0795590  50.5000870  57.0399390  70.0451410  47.4231210  61.6630410
  70.3975230  46.8259340  61.0031780  69.1613740  47.0975440  61.8338660
  66.1314690  48.1828900  59.0700820  66.8185820  48.7298110  59.4508410
  65.3447110  48.7269630  59.1050430  58.2707090  43.8001720  54.5617900
  59.1401940  44.0826520  54.8453820  57.7797410  44.6137590  54.4466710
  65.4341900  45.1874930  58.6826180  65.8904680  45.9980180  58.9086370
  65.0830110  44.8698070  59.5144670  67.7374510  50.6981270  65.9118480
  68.3816730  50.9040650  66.5891900  68.1003950  49.9369670  65.4589330
  61.3353680  35.5312580  59.1548700  61.2068310  35.5230480  60.1033620
  60.5115700  35.8695670  58.8039710  69.0106590  48.7013620  64.6295930
  69.6528820  48.0006780  64.7428100  69.5355940  49.4812060  64.4492820
  72.8562310  48.9862240  54.3535070  72.6299890  48.2692680  54.9459710
  72.4658510  48.7374680  53.5156820  70.7844210  49.5008520  67.8331990
  71.1200450  50.0875210  68.5109910  69.8644550  49.3701230  68.0629780
  58.6378340  53.0129100  55.1279530  58.9975980  53.6118440  54.4736800
  58.4970680  53.5588990  55.9014560  58.3347610  37.2903700  68.6155400
  57.6206130  37.4900620  69.2208010  58.7542650  36.5143270  68.9870200
  72.4378560  46.9034180  56.0149230  72.1500260  47.3646870  56.8027110
  73.2330730  46.4431950  56.2833450  58.6220200  51.2783960  69.6021930
  58.7311320  50.3378700  69.4617320  57.9700760  51.5438710  68.9535660
  66.6132790  49.5499850  71.0020050  66.2929660  48.8309090  71.5465740
  65.9391150  50.2254920  71.0756110  64.6546960  50.3960300  55.9453200
  64.6457060  51.1289990  55.3297710  63.7345320  50.1491880  56.0380160
  60.2553600  45.6175190  56.6899960  59.6481550  46.3574090  56.6995260
  60.7302950  45.7074550  55.8638160  69.8286390  39.7826010  66.3656850
  70.1967210  38.9621220  66.6936420  68.9684590  39.8427900  66.7812500
  73.1948420  38.7382950  57.1744410  72.5661580  38.8428620  56.4602640
  72.7000340  38.9579730  57.9638290  67.6406560  50.4588540  54.6078390
  67.7418540  50.2552530  53.6780370  66.7408300  50.2046820  54.8126170
  65.1632450  41.0168900  58.5902290  64.4548600  41.4855240  59.0315900
  65.4476930  40.3590910  59.2247480  66.7888380  42.4365600  66.5894820
  67.2873630  42.9111420  67.2546670  66.9311330  41.5129120  66.7964850
  69.1947880  37.7419560  60.0298080  69.0715660  37.7605690  59.0807590
  70.1432440  37.7898500  60.1496480  66.2824670  52.9774860  59.3026060
  66.5366170  52.9396250  58.3805430  65.3337150  52.8508190  59.2954310
  63.3667470  39.3253980  55.9653000  64.2158000  39.7624130  55.8993190
  62.9998740  39.6374240  56.7925060  73.9955240  38.6533560  67.4323210
  73.4928840  39.3938960  67.7717020  74.8111900  39.0417560  67.1160000
  72.2877250  43.8966740  60.8784570  71.3467390  43.9116970  61.0532260
  72.6021320  43.1102700  61.3244870  62.2658890  45.5786340  54.4388530
  63.0322160  45.4667700  55.0013960  62.3433580  44.8824310  53.7865300
  60.9605650  43.0111410  55.1221420  61.0409240  42.0638920  55.2338820
  61.8525400  43.3418290  55.2282080  74.2902830  51.0675590  62.5538830
  74.4150250  51.8906760  63.0262640  75.1568390  50.8566320  62.2062980
  61.7620360  53.1606800  62.2255960  62.4982840  52.6122260  62.4964530
  62.1461280  54.0262810  62.0861950  58.6465840  49.2280370  58.0997470
  57.7205620  49.4701510  58.0902880  59.1122270  50.0554630  57.9782220
  60.7678640  52.3452870  71.4141540  61.5691370  52.6664920  71.8276940
  60.2530460  51.9848450  72.1361450  64.8722670  52.3337110  54.0481530
  65.6651280  52.6225940  53.5963320  64.3527020  51.9029280  53.3694010
  69.6043270  48.4532740  71.3616950  68.9981430  48.4764340  70.6212700
  69.2997380  47.7215780  71.8984200  71.0343640  52.1813030  69.9726360
  71.9865390  52.0971050  69.9226600  70.8871860  52.8454740  70.6460150
  73.9252840  51.5607240  55.4718270  73.6394350  51.1472380  54.6572450
  73.7272390  52.4894950  55.3518790  58.4876450  44.8326330  70.3577590
  58.9915470  44.2533610  70.9293820  57.7483870  45.1166560  70.8953960
  65.3900070  47.5540520  53.9123880  65.2850710  46.9392870  54.6385260
  65.2224290  47.0306410  53.1286890  65.5414390  46.2397320  69.8913110
  64.7760060  46.8082320  69.8067780  65.7230350  45.9473530  68.9981340
  68.6302800  46.6160550  54.5165870  68.0812900  47.0629850  55.1608610
  69.2522060  46.1109800  55.0403540  72.6837740  47.9702650  70.4488130
  73.4247210  48.3078410  69.9455590  71.9210420  48.1394710  69.8957900
  60.5199530  42.9755920  71.2527660  60.5604870  42.6769790  72.1612890
  61.3745030  43.3763530  71.0935180  64.2977920  45.5751470  56.4131170
  64.7194340  45.4091340  57.2562560  64.4228760  44.7651700  55.9186310
  62.4605340  41.5548020  69.2202150  61.9301800  41.0638970  68.5925490
  63.1293410  41.9832220  68.6860080  66.8105560  44.5989080  53.6608270
  67.3311220  43.8838100  53.2949420  67.4573960  45.2374950  53.9608780
  71.3583400  46.0217480  68.9843340  71.7724420  46.1762560  69.8333760
  70.4234400  46.1472700  69.1469120  71.8305570  43.3613640  70.9882490
  72.4126340  42.6065960  70.9002970  72.0067340  43.8921080  70.2113970
  62.9477640  38.5210390  69.2999440  62.8534510  37.9031140  68.5750310
  62.3675030  39.2476680  69.0729350  65.7139080  37.0783630  66.3326830
  65.2656380  37.1007890  65.4872380  65.0804280  36.6802650  66.9297130
  66.1198630  45.9737960  66.9539270  66.5386740  46.8170690  66.7815510
  65.2007260  46.1110000  66.7246050  68.4562530  43.7054140  68.3377110
  68.5758740  43.1095280  69.0771950  69.3156530  43.7423830  67.9178410
  70.7950430  44.2591330  66.9139620  70.2685650  44.7833950  66.3104760
  71.1381770  44.8918720  67.5449350  63.1936820  41.6484700  53.3589330
  62.9925880  40.7852060  53.7202670  63.0228870  41.5618060  52.4210930
  63.9706050  52.2790970  68.0697000  63.4327140  53.0037030  67.7505700
  64.2240010  51.8021310  67.2794340  65.2231300  40.2475490  69.5952930
  65.8130990  39.9391340  70.2830750  64.4051540  39.7755240  69.7512830
  70.0424730  39.8641300  69.8285950  69.3540250  39.2022840  69.7635940
  70.7630750  39.4179570  70.2734410  70.6725130  36.4592930  55.8876210
  70.9527420  35.6160830  56.2435630  69.8990860  36.6916040  56.4014960
  61.9919620  38.7485320  53.3467210  62.2945520  38.7552750  52.4386360
  62.7314210  38.3983180  53.8434870  66.8268260  53.5142180  68.3283650
  66.7526960  54.4177320  68.6356020  65.9247100  53.1954080  68.3005720
  65.2104550  37.6919940  54.3323410  64.8626550  37.0143930  53.7525860
  65.4117320  37.2309450  55.1466800  67.3753590  52.6800690  55.9510010
  68.2704380  53.0185660  55.9728770  67.4071220  51.9580100  55.3234290
  61.0149750  48.0527740  54.1797010  61.4524620  48.5957410  54.8354590
  61.4997480  47.2274690  54.1893350  58.2295550  50.8416770  61.6317270
  58.5598560  49.9737830  61.3995910  58.6586550  51.0475290  62.4622230
  62.8257470  49.1725780  59.2919240  62.5253010  49.0490750  60.1923150
  62.7194960  48.3134370  58.8834970  58.7185760  51.7087360  64.3698900
  58.2816750  51.8888160  65.2023050  59.2863440  52.4661980  64.2280620
  74.3547940  51.2104360  68.6576210  73.7549930  51.2696920  67.9140130
  74.4841840  50.2709340  68.7873060  75.5949390  48.9522180  53.9945920
  74.7642350  49.0198830  54.4653150  75.7721220  49.8426300  53.6912780
  75.0505850  45.6969660  56.4980120  75.8124760  46.2666310  56.6039810
  75.0660220  45.1296860  57.2688430  58.5510190  44.2207590  60.7287780
  57.8959030  43.9519230  60.0847480  59.3888140  44.1112070  60.2789760
  76.0565820  46.5519760  61.3422050  76.4274650  45.7687080  60.9358020
  76.6967750  47.2408860  61.1639350  73.0399580  47.9356340  66.7552370
  72.2259420  48.3653500  67.0178160  73.4473780  48.5474750  66.1421420
  75.1025020  45.9904030  53.6552640  75.3773860  46.8982910  53.5271860
  74.9135760  45.9266560  54.5914630  71.5000630  39.0148880  54.9506270
  71.9185510  38.8279860  54.1102930  71.1936690  38.1627930  55.2609200
  74.9990360  43.9273020  58.6482070  74.6233960  43.1600950  58.2163360
  74.2693480  44.3095720  59.1357000  59.5886120  44.6060160  65.2691120
  59.9559160  44.5187560  66.1487140  59.0196940  43.8426710  65.1697980
  74.3889980  43.0744540  68.2821590  74.1576070  42.8457290  67.3819540
  74.6494530  43.9944090  68.2366480  59.1402120  41.5169250  69.1749540
  58.2458170  41.4836010  69.5143250  59.6799670  41.7156040  69.9400790
  72.8278050  38.3000970  71.0601290  73.7048230  38.3084370  71.4435290
  72.8398890  37.5631810  70.4493640  57.7648270  41.4306520  56.6713110
  56.8612350  41.6936720  56.4964770  58.2488890  41.7017690  55.8913070
  74.2741320  42.1530510  61.9489310  74.7978800  41.6593160  61.3179480
  74.8600740  42.2880870  62.6936880  74.4531040  42.2370380  65.4708860
  73.5033750  42.2033920  65.5853850  74.6344050  43.1470490  65.2358630
  60.3075480  40.4872060  54.5807490  61.0167180  40.0655280  54.0954770
  59.5915420  40.5547290  53.9490840  59.9549640  36.5411390  53.6210140
  60.6777770  37.0820330  53.9391360  60.2274160  36.2674810  52.7451680
  73.7641290  41.4103860  57.8881720  74.2600410  41.1774730  58.6730600
  73.5657360  40.5715700  57.4719360  59.6441830  35.7917580  63.5232760
  60.2918020  35.2414960  63.0827920  60.0643670  36.0460730  64.3448570
  75.1928450  40.0464810  60.4219400  75.0827730  39.8920850  61.3601670
  75.9536040  39.5185750  60.1794810  73.5394170  35.9858940  66.8802400
  74.1766390  36.5993080  67.2461590  73.6869060  36.0219600  65.9351630
  76.0818720  37.8772730  53.6625540  77.0068030  37.7453910  53.4543830
  76.0594510  37.9565550  54.6161990  76.1557210  38.6483390  56.2882250
  75.3608710  38.5828510  56.8175160  76.3600490  39.5834030  56.2767600
  73.0975630  52.6874940  60.2820640  73.6934700  52.3659510  59.6055060
  73.3553780  52.2146760  61.0733910  59.3973830  35.9473250  66.2658080
  59.0488650  36.4037070  67.0316260  59.0661530  35.0530380  66.3480510
  61.0038200  49.1192850  70.4311270  60.9607830  48.7485760  71.3125730
  61.1349210  50.0570420  70.5713090  64.7044230  50.6752440  66.0320990
  64.4635590  50.9427000  65.1451510  65.6446870  50.8458170  66.0871850
  66.9098650  37.1385130  69.7877500  66.8487540  37.7306960  70.5372910
  67.8499030  37.0311090  69.6427760  69.5473210  36.7955190  69.4269790
  70.1613620  37.1134480  68.7650870  70.0922770  36.3103780  70.0465650
  75.9648390  52.6946820  66.8331630  75.4706670  53.0915690  66.1158760
  75.3561680  52.0696030  67.2268910  60.0694470  35.4749450  69.5408850
  60.6177460  35.2937500  68.7774960  60.1349780  34.6843560  70.0765160
  60.8426230  52.0655100  67.5509050  60.2486550  51.9339800  68.2899090
  60.8350070  51.2293240  67.0851150  70.2881250  35.3587330  65.7539080
  69.4141090  35.6922440  65.5512010  70.1792000  34.8860510  66.5790950
  71.1953230  37.5658200  67.1380800  70.8666590  36.7509960  66.7582530
  72.1435530  37.5228010  67.0146490  73.6487840  53.3370240  64.1118370
  73.1890810  54.0886050  63.7376390  73.0200300  52.6176710  64.0533170
  60.4738460  49.4313480  66.5017090  59.7472520  48.8118770  66.4343040
  60.5347610  49.8254090  65.6315170  64.0783560  51.6458480  63.2866500
  64.5948580  51.0345840  62.7614760  64.7280940  52.1487260  63.7777510
  66.8179060  52.5366970  64.1135480  67.1056870  52.2821270  63.2368490
  67.3302280  51.9844330  64.7041050  68.0356070  36.2757170  64.6931990
  67.2527860  36.7502670  64.9728750  67.7419000  35.3712000  64.5845170
  72.5877140  36.9780270  62.7381080  73.0285230  36.9225370  61.8902680
  72.3184730  37.8938280  62.8091260  74.4515710  36.6095510  60.7489900
  74.3904110  35.6656730  60.6020920  75.2307740  36.7175600  61.2943360
  58.7568460  52.7487870  59.7113850  58.5890500  52.1158550  60.4095740
  57.8902970  52.9547270  59.3608040  59.3796480  36.5804650  57.2145710
  60.1375840  36.6933530  56.6409740  58.9173650  37.4173850  57.1689140
  65.9210290  38.6943920  60.2048020  65.1084800  38.3200810  59.8643900
  66.4251930  37.9389000  60.5069210  70.4235270  35.3586370  61.4431090
  71.0264640  35.9306580  61.9179610  69.6828260  35.9225810  61.2204990
  73.5669870  35.7607930  56.7171370  73.7620500  36.6591380  56.9838800
  72.7799740  35.5295010  57.2104320  60.3631160  51.4421100  57.1563990
  59.8378780  51.8229130  56.4525950  60.2875740  52.0671870  57.8773700
  61.7521630  37.1068700  55.7547680  62.2814390  36.3198500  55.6255630
  62.3849950  37.7859890  55.9883210  63.9459470  36.8443840  58.8093070
  63.3162210  36.1431150  58.9763200  63.4064610  37.6047970  58.5926230
  66.8851420  53.4583070  71.4803680  67.8118730  53.2227340  71.5239640
  66.8701850  54.2855070  70.9989710  75.1196480  53.0008640  58.4777930
  75.2948670  52.3146380  57.8338850  74.4218050  53.5255690  58.0854600
  64.0715030  36.1227820  71.2445560  63.7899300  36.6261420  70.4806380
  64.4534730  35.3249570  70.8787690  62.9624130  53.3903480  56.0313240
  63.6942950  53.1062760  55.4837130  63.2217800  53.1516760  56.9212620
  62.1238920  49.5068210  56.0359570  61.4947800  49.9753310  56.5845400
  62.2386750  48.6617430  56.4705760  70.6730490  35.5381400  71.8226030
  70.5595940  35.8576010  72.7177550  71.4900230  35.9393910  71.5263310
  73.4528980  52.6852930  71.3044720  74.2454300  52.1902160  71.0970680
  73.7462130  53.3643070  71.9120330  69.5788640  43.5573870  42.1860770
  69.4982690  42.6428480  41.9152480  69.1653060  44.0540940  41.4800480
  67.7106680  45.3352890  44.0670040  66.9348780  44.8553330  44.3568610
  68.3619610  44.6558540  43.8926200  61.7272510  45.6472700  44.9445800
  60.8957390  45.3921410  45.3442310  62.3353490  45.7183470  45.6803720
  71.7314110  49.7413080  42.8469170  71.2695640  48.9700320  43.1756340
  72.5439660  49.7679150  43.3521620  61.7073770  49.6812790  45.1403820
  62.0101810  48.7910530  44.9614040  62.4517360  50.2383010  44.9126070
  60.1364460  40.6074590  38.7288190  59.2481160  40.9490560  38.6268070
  60.4205650  40.4074910  37.8369020  58.0997470  43.2080240  44.6127890
  58.6713580  42.4402440  44.6131530  58.0999010  43.5069000  43.7034500
  67.9577420  52.0271090  42.4673160  67.3388860  52.4828590  41.8967600
  68.8129200  52.1822550  42.0662860  67.1515670  48.0110080  44.0740200
  67.0823950  47.0700020  43.9129330  67.9135530  48.1011490  44.6462770
  59.3422340  38.6164600  46.3996820  59.1625180  37.7190350  46.6799580
  58.9402420  39.1636470  47.0743770  68.1820840  40.8180460  44.3009130
  68.5585660  39.9452340  44.1882800  68.0840350  41.1539160  43.4099570
  62.3125850  39.1906090  39.7626570  62.4192600  40.0909820  40.0695330
  61.4018210  39.1424060  39.4721220  71.9644960  38.3130900  41.2337470
  72.7854580  37.8227470  41.2762950  71.9979040  38.9028560  41.9869310
  59.9609010  41.1125100  45.0079160  60.6419120  41.3763470  45.6266560
  59.6457060  40.2725970  45.3417170  64.1533580  42.1592460  44.0951750
  64.6611800  42.6573430  44.7356770  64.6846820  41.3827660  43.9191110
  76.2544510  40.3297650  47.7981100  75.5496680  40.7179360  47.2796210
  76.5202430  41.0247940  48.4002030  62.4369680  36.7991020  48.3615170
  62.4388120  37.3163410  47.5561070  61.6073990  36.3221200  48.3385100
  68.8240770  46.9110330  39.8605070  68.2058040  47.3759780  39.2967790
  69.3364020  47.6037810  40.2774580  63.6872530  46.4386200  46.5388670
  63.3541910  47.0655120  47.1809740  63.8639210  46.9648080  45.7590340
  72.2006440  40.2531280  44.0065010  71.4962010  40.5416170  44.5868120
  72.5618600  41.0631390  43.6464570  62.1185010  38.5100980  46.3685620
  62.4601820  39.3543030  46.0739490  61.1800820  38.6584720  46.4850960
  62.8991630  48.4067000  48.3537850  63.5165630  49.0818080  48.0722300
  62.0384750  48.8154980  48.2625350  58.1923970  47.5966860  37.2344700
  57.8151950  48.0853960  36.5029600  58.4497040  48.2692140  37.8651230
  73.8169220  49.8706410  46.2692490  73.1332740  50.5405520  46.2609160
  74.3563510  50.0687060  45.5037350  75.2693360  39.6986070  44.3974220
  74.3218270  39.7325050  44.5289650  75.5943350  40.5125020  44.7823580
  65.8012900  35.9983250  42.6930210  66.1087880  35.4430140  41.9765710
  64.8713600  36.1327710  42.5103200  71.3527960  51.7150540  44.9837670
  71.3655120  51.3112830  44.1159930  70.8003180  52.4897830  44.8799100
  72.6473380  48.4366760  40.0727840  72.5369710  47.4941090  40.1977260
  72.6441630  48.7982400  40.9590600  70.7513400  46.6180380  46.3120280
  71.1682190  46.4040490  45.4773740  71.4753220  46.8753170  46.8828900
  68.1893660  44.0632080  39.4290330  67.2622940  43.9969460  39.6578800
  68.3418480  45.0012210  39.3145570  68.1762740  40.3349080  36.4257490
  67.2366410  40.4963040  36.5109950  68.4946000  41.0534760  35.8793480
  74.6975500  45.0167600  46.4036520  73.8694130  45.0860690  45.9286650
  75.2925980  45.6021910  45.9352350  72.2190950  45.6252380  39.9325580
  71.6003370  45.2871930  39.2851880  72.2015400  44.9812140  40.6404770
  71.6617510  41.8036920  47.3491390  71.2488690  42.6290630  47.6031380
  70.9293460  41.2181960  47.1567750  63.7950300  44.5896820  42.2110060
  63.3907300  43.8774070  41.7155960  63.8813420  44.2450060  43.0998100
  64.2632000  48.2764380  44.3749270  63.9660290  47.6709850  43.6957050
  65.2131820  48.3141690  44.2638630  62.5078920  41.3640030  45.9909100
  63.0593510  41.4735370  45.2162350  63.0222430  41.7377630  46.7064330
  72.3517610  51.8496250  48.0372370  71.8748170  52.6568440  47.8444980
  71.6679400  51.1974580  48.1898580  63.3550430  48.0146070  51.0257070
  62.4578960  48.2386040  51.2730470  63.3803300  48.1381010  50.0768470
  70.3955650  44.8639190  36.9398330  70.8348930  44.0261620  36.7936150
  71.1084070  45.4968590  37.0262470  62.1821650  44.8859390  49.6014440
  62.0429420  45.7582190  49.9701840  61.3003010  44.5432200  49.4562380
  68.5051030  49.8035260  40.9079570  68.9446940  50.5459590  40.4934960
  68.4437920  50.0461830  41.8318530  63.9802000  50.8281090  51.8099590
  63.9517430  51.2324040  50.9428020  63.8166970  49.8991450  51.6471190
  73.9772790  36.1182000  35.2539370  73.6645450  36.2108830  36.1538440
  74.7385260  36.6963030  35.2036800  60.4954930  43.4841800  39.7116710
  60.3752530  44.2103890  39.0997980  60.1855820  42.7144710  39.2344620
  75.9316820  51.6108190  53.1063760  76.4076540  52.0891080  53.7852840
  76.5523980  51.5425680  52.3809260  58.1340300  46.6556940  45.5185350
  58.2120720  46.7905710  44.5741070  58.7481980  45.9472830  45.7113470
  59.3787930  48.3557130  41.9291530  58.9716010  48.4971720  41.0745130
  60.2700940  48.0717290  41.7262740  75.3350070  48.8021040  50.2663770
  75.4613130  48.5632920  49.3480950  75.3771450  47.9705580  50.7385850
  69.1966810  52.5049040  48.8358580  69.7111480  52.4157050  49.6381010
  68.3535890  52.8508740  49.1286490  71.1721210  52.7904380  38.2642580
  71.0122350  52.5007320  39.1624410  71.0067920  52.0144510  37.7287810
  63.6509590  52.5702910  40.0414200  63.4752070  51.6538450  39.8282000
  62.7965330  52.9290200  40.2812000  70.8747340  50.2991940  36.8240580
  70.1812500  50.2969230  36.1642860  71.6170200  49.8751260  36.3934750
  70.4397270  51.9254650  40.8989070  70.8954220  51.1444030  41.2127690
  70.7789790  52.6361470  41.4430250  75.1874080  40.8553500  51.2313510
  74.5718350  41.3633170  50.7028970  74.8670500  39.9551830  51.1739450
  58.1899820  47.6971110  48.0579810  58.3530860  47.2276470  47.2399180
  58.6552270  47.1894670  48.7228650  62.9618590  36.8276870  43.0940380
  62.5186740  37.6086410  42.7624900  63.5203580  37.1506760  43.8011320
  67.2488400  39.6945390  48.6975700  66.7867770  39.9028410  49.5095640
  66.8466510  38.8804740  48.3946370  72.2492910  40.9154340  49.8272360
  71.3986500  40.6160090  50.1481430  72.0894700  41.1596350  48.9156180
  69.3442620  42.4156090  51.9271150  69.6696030  41.5819840  51.5873380
  70.1322950  42.9384610  52.0749480  66.0777410  36.4487570  37.9746210
  65.4531590  36.4447440  38.6999520  65.9907530  35.5818530  37.5782180
  64.9994490  37.3724200  44.9529980  65.2966820  38.2787030  44.8722000
  65.5480050  36.8842980  44.3389550  62.7532810  41.9510440  40.8221630
  62.5273730  41.7347610  41.7268250  61.9725340  42.3838900  40.4767600
  69.9830570  41.9573810  39.4212280  69.3839460  42.6809610  39.2375900
  70.5310180  41.8950590  38.6388730  65.1932020  42.8496020  51.4881900
  65.0975620  41.9090750  51.3382300  66.0364000  43.0711090  51.0929970
  68.5895440  40.5937350  41.4515560  68.9825010  40.9109550  40.6384250
  68.9512290  39.7149230  41.5660080  60.3242560  39.2609690  49.6415680
  59.9305950  40.1084900  49.8488460  59.6360960  38.6236060  49.8324320
  66.8987610  39.3444660  52.7112420  66.2085930  39.1516860  53.3458510
  67.6419910  39.6279300  53.2436720  57.6259610  37.1838150  43.6745760
  57.3372660  37.7541010  44.3870740  58.3705370  36.7042600  44.0376990
  57.8129840  41.1258270  34.8848480  57.7304510  42.0689030  35.0263470
  57.4612900  40.9833180  34.0060830  69.1750580  43.1843100  45.5466340
  68.4431700  43.6929910  45.8956440  68.7774920  42.3673080  45.2455120
  65.6127970  39.8597300  43.9518830  65.6164030  39.4187250  43.1023370
  66.5079090  40.1814630  44.0590650  61.4630350  39.7423790  42.9113040
  61.1230400  40.2199020  43.6680090  60.7007670  39.2888910  42.5514140
  65.6748120  40.8609380  36.9425590  65.7960940  40.8195860  37.8911410
  65.2896630  41.7233530  36.7872320  69.6376490  38.6376780  44.9589280
  69.6549230  39.0885430  45.8031130  69.3892070  37.7382420  45.1722720
  64.6869620  43.1710520  36.3408890  64.1186520  42.7228770  35.7144800
  65.3958620  43.5303300  35.8074040  73.0647240  36.0508960  50.7975660
  73.3893010  35.3198620  51.3233640  73.1003750  35.7322600  49.8956650
  59.7638800  47.0722540  50.2175620  59.3793590  46.4316210  50.8158580
  60.0750990  47.7758660  50.7870350  65.9135940  43.9199080  45.6984240
  66.2806070  43.4457650  46.4445580  65.7241000  44.7940650  46.0392580
  58.7776430  38.6642770  41.8277710  58.4923350  38.2998440  42.6656330
  58.7155290  37.9323230  41.2140850  63.7035310  42.9607720  48.0168450
  63.3992380  43.8399700  48.2418810  64.6581770  43.0207510  48.0525890
  62.2317100  47.1668710  38.6135300  61.4579360  46.6266330  38.4534020
  62.9611730  46.6475320  38.2753060  72.9905080  46.1634070  44.4061690
  73.7104200  46.6589360  44.0157800  72.7886900  45.4851960  43.7615560
  68.4515020  37.5572030  38.5491080  67.6379630  37.0585200  38.4736390
  68.2576970  38.3970280  38.1327430  68.3723880  46.2343130  50.2930690
  68.3061190  45.3138800  50.0388280  67.7429020  46.3318570  51.0075330
  71.1663410  41.9291680  36.8453240  72.0543030  42.2408910  36.6704580
  71.1368500  41.0563930  36.4533820  62.2754500  46.8349090  42.2514110
  62.7933170  46.0317350  42.1971000  61.8238520  46.7728230  43.0930940
  67.1624000  48.1015370  37.5241410  67.5039700  48.8457600  37.0284730
  66.3336710  48.4146490  37.8866240  59.7599040  43.8010460  49.1639810
  59.4013980  44.4664310  49.7513150  59.4653600  42.9694010  49.5352430
  62.9612160  44.2594700  52.0479360  62.6612300  44.4051880  51.1507180
  63.7323400  43.6999990  51.9552750  68.3040610  49.0563700  50.0434490
  68.3185150  48.1244660  49.8253400  67.5965710  49.1423460  50.6824260
  73.4377680  43.2403520  36.3133100  73.3541400  43.6717740  35.4629540
  74.1571870  43.7001870  36.7459920  74.5151820  45.6971040  49.3903070
  73.7900010  46.2899820  49.1932460  75.0427280  45.6894580  48.5916440
  74.4664930  50.0945780  39.0415230  73.8241090  49.4401400  39.3158950
  74.0795590  50.5000870  38.2655900  70.0451410  47.4231210  42.8886920
  70.3975230  46.8259340  42.2288290  69.1613740  47.0975440  43.0595170
  66.1314690  48.1828900  40.2957330  66.8185820  48.7298110  40.6764920
  65.3447110  48.7269630  40.3306940  58.2707090  43.8001720  35.7874410
  59.1401940  44.0826520  36.0710330  57.7797410  44.6137590  35.6723220
  65.4341900  45.1874930  39.9082690  65.8904680  45.9980180  40.1342880
  65.0830110  44.8698070  40.7401180  67.7374510  50.6981270  47.1374990
  68.3816730  50.9040650  47.8148410  68.1003950  49.9369670  46.6845840
  61.3353680  35.5312580  40.3805210  61.2068310  35.5230480  41.3290130
  60.5115700  35.8695670  40.0296220  69.0106590  48.7013620  45.8552440
  69.6528820  48.0006780  45.9684610  69.5355940  49.4812060  45.6749330
  72.8562310  48.9862240  35.5791580  72.6299890  48.2692680  36.1716220
  72.4658510  48.7374680  34.7413330  70.7844210  49.5008520  49.0588500
  71.1200450  50.0875210  49.7366420  69.8644550  49.3701230  49.2886290
  58.6378340  53.0129100  36.3536040  58.9975980  53.6118440  35.6993310
  58.4970680  53.5588990  37.1271070  58.3347610  37.2903700  49.8411910
  57.6206130  37.4900620  50.4464520  58.7542650  36.5143270  50.2126710
  72.4378560  46.9034180  37.2405740  72.1500260  47.3646870  38.0283620
  73.2330730  46.4431950  37.5089960  58.6220200  51.2783960  50.8278440
  58.7311320  50.3378700  50.6873830  57.9700760  51.5438710  50.1792170
  66.6132790  49.5499850  52.2276560  66.2929660  48.8309090  52.7722250
  65.9391150  50.2254920  52.3012620  64.6546960  50.3960300  37.1709710
  64.6457060  51.1289990  36.5554220  63.7345320  50.1491880  37.2636670
  60.2553600  45.6175190  37.9156470  59.6481550  46.3574090  37.9251770
  60.7302950  45.7074550  37.0894670  69.8286390  39.7826010  47.5913360
  70.1967210  38.9621220  47.9192930  68.9684590  39.8427900  48.0069010
  73.1948420  38.7382950  38.4000920  72.5661580  38.8428620  37.6859150
  72.7000340  38.9579730  39.1894800  67.6406560  50.4588540  35.8334900
  67.7418540  50.2552530  34.9036880  66.7408300  50.2046820  36.0382680
  65.1632450  41.0168900  39.8158800  64.4548600  41.4855240  40.2572410
  65.4476930  40.3590910  40.4503990  66.7888380  42.4365600  47.8151330
  67.2873630  42.9111420  48.4803180  66.9311330  41.5129120  48.0221360
  69.1947880  37.7419560  41.2554590  69.0715660  37.7605690  40.3064100
  70.1432440  37.7898500  41.3752990  66.2824670  52.9774860  40.5282570
  66.5366170  52.9396250  39.6061940  65.3337150  52.8508190  40.5210820
  63.3667470  39.3253980  37.1909510  64.2158000  39.7624130  37.1249700
  62.9998740  39.6374240  38.0181570  73.9955240  38.6533560  48.6579720
  73.4928840  39.3938960  48.9973530  74.8111900  39.0417560  48.3416510
  72.2877250  43.8966740  42.1041080  71.3467390  43.9116970  42.2788770
  72.6021320  43.1102700  42.5501380  62.2658890  45.5786340  35.6645040
  63.0322160  45.4667700  36.2270470  62.3433580  44.8824310  35.0121810
  60.9605650  43.0111410  36.3477930  61.0409240  42.0638920  36.4595330
  61.8525400  43.3418290  36.4538590  74.2902830  51.0675590  43.7795340
  74.4150250  51.8906760  44.2519150  75.1568390  50.8566320  43.4319490
  61.7620360  53.1606800  43.4512470  62.4982840  52.6122260  43.7221040
  62.1461280  54.0262810  43.3118460  58.6465840  49.2280370  39.3253980
  57.7205620  49.4701510  39.3159390  59.1122270  50.0554630  39.2038730
  60.7678640  52.3452870  52.6398050  61.5691370  52.6664920  53.0533450
  60.2530460  51.9848450  53.3617960  64.8722670  52.3337110  35.2738040
  65.6651280  52.6225940  34.8219830  64.3527020  51.9029280  34.5950520
  69.6043270  48.4532740  52.5873460  68.9981430  48.4764340  51.8469210
  69.2997380  47.7215780  53.1240710  71.0343640  52.1813030  51.1982870
  71.9865390  52.0971050  51.1483110  70.8871860  52.8454740  51.8716660
  73.9252840  51.5607240  36.6974780  73.6394350  51.1472380  35.8828960
  73.7272390  52.4894950  36.5775300  58.4876450  44.8326330  51.5834100
  58.9915470  44.2533610  52.1550330  57.7483870  45.1166560  52.1210470
  65.3900070  47.5540520  35.1380390  65.2850710  46.9392870  35.8641770
  65.2224290  47.0306410  34.3543400  65.5414390  46.2397320  51.1169620
  64.7760060  46.8082320  51.0324290  65.7230350  45.9473530  50.2237850
  68.6302800  46.6160550  35.7422380  68.0812900  47.0629850  36.3865120
  69.2522060  46.1109800  36.2660050  72.6837740  47.9702650  51.6744640
  73.4247210  48.3078410  51.1712100  71.9210420  48.1394710  51.1214410
  60.5199530  42.9755920  52.4784170  60.5604870  42.6769790  53.3869400
  61.3745030  43.3763530  52.3191690  64.2977920  45.5751470  37.6387680
  64.7194340  45.4091340  38.4819070  64.4228760  44.7651700  37.1442820
  62.4605340  41.5548020  50.4458660  61.9301800  41.0638970  49.8182000
  63.1293410  41.9832220  49.9116590  66.8105560  44.5989080  34.8864780
  67.3311220  43.8838100  34.5205930  67.4573960  45.2374950  35.1865290
  71.3583400  46.0217480  50.2099850  71.7724420  46.1762560  51.0590270
  70.4234400  46.1472700  50.3725630  71.8305570  43.3613640  52.2139000
  72.4126340  42.6065960  52.1259480  72.0067340  43.8921080  51.4370480
  62.9477640  38.5210390  50.5255950  62.8534510  37.9031140  49.8006820
  62.3675030  39.2476680  50.2985860  65.7139080  37.0783630  47.5583340
  65.2656380  37.1007890  46.7128890  65.0804280  36.6802650  48.1553640
  66.1198630  45.9737960  48.1795780  66.5386740  46.8170690  48.0072020
  65.2007260  46.1110000  47.9502560  68.4562530  43.7054140  49.5633620
  68.5758740  43.1095280  50.3028460  69.3156530  43.7423830  49.1434920
  70.7950430  44.2591330  48.1396130  70.2685650  44.7833950  47.5361270
  71.1381770  44.8918720  48.7705860  63.1936820  41.6484700  34.5845840
  62.9925880  40.7852060  34.9459180  63.0228870  41.5618060  33.6467440
  63.9706050  52.2790970  49.2953510  63.4327140  53.0037030  48.9762210
  64.2240010  51.8021310  48.5050850  65.2231300  40.2475490  50.8209440
  65.8130990  39.9391340  51.5087260  64.4051540  39.7755240  50.9769340
  70.0424730  39.8641300  51.0542460  69.3540250  39.2022840  50.9892450
  70.7630750  39.4179570  51.4990920  70.6725130  36.4592930  37.1132720
  70.9527420  35.6160830  37.4692140  69.8990860  36.6916040  37.6271470
  61.9919620  38.7485320  34.5723720  62.2945520  38.7552750  33.6642870
  62.7314210  38.3983180  35.0691380  66.8268260  53.5142180  49.5540160
  66.7526960  54.4177320  49.8612530  65.9247100  53.1954080  49.5262230
  65.2104550  37.6919940  35.5579920  64.8626550  37.0143930  34.9782370
  65.4117320  37.2309450  36.3723310  67.3753590  52.6800690  37.1766520
  68.2704380  53.0185660  37.1985280  67.4071220  51.9580100  36.5490800
  61.0149750  48.0527740  35.4053520  61.4524620  48.5957410  36.0611100
  61.4997480  47.2274690  35.4149860  58.2295550  50.8416770  42.8573780
  58.5598560  49.9737830  42.6252420  58.6586550  51.0475290  43.6878740
  62.8257470  49.1725780  40.5175750  62.5253010  49.0490750  41.4179660
  62.7194960  48.3134370  40.1091480  58.7185760  51.7087360  45.5955410
  58.2816750  51.8888160  46.4279560  59.2863440  52.4661980  45.4537130
  74.3547940  51.2104360  49.8832720  73.7549930  51.2696920  49.1396640
  74.4841840  50.2709340  50.0129570  75.5949390  48.9522180  35.2202430
  74.7642350  49.0198830  35.6909660  75.7721220  49.8426300  34.9169290
  75.0505850  45.6969660  37.7236630  75.8124760  46.2666310  37.8296320
  75.0660220  45.1296860  38.4944940  58.5510190  44.2207590  41.9544290
  57.8959030  43.9519230  41.3103990  59.3888140  44.1112070  41.5046270
  76.0565820  46.5519760  42.5678560  76.4274650  45.7687080  42.1614530
  76.6967750  47.2408860  42.3895860  73.0399580  47.9356340  47.9808880
  72.2259420  48.3653500  48.2434670  73.4473780  48.5474750  47.3677930
  75.1025020  45.9904030  34.8809150  75.3773860  46.8982910  34.7528370
  74.9135760  45.9266560  35.8171140  71.5000630  39.0148880  36.1762780
  71.9185510  38.8279860  35.3359440  71.1936690  38.1627930  36.4865710
  74.9990360  43.9273020  39.8738580  74.6233960  43.1600950  39.4419870
  74.2693480  44.3095720  40.3613510  59.5886120  44.6060160  46.4947630
  59.9559160  44.5187560  47.3743650  59.0196940  43.8426710  46.3954490
  74.3889980  43.0744540  49.5078100  74.1576070  42.8457290  48.6076050
  74.6494530  43.9944090  49.4622990  59.1402120  41.5169250  50.4006050
  58.2458170  41.4836010  50.7399760  59.6799670  41.7156040  51.1657300
  72.8278050  38.3000970  52.2857800  73.7048230  38.3084370  52.6691800
  72.8398890  37.5631810  51.6750150  57.7648270  41.4306520  37.8969620
  56.8612350  41.6936720  37.7221280  58.2488890  41.7017690  37.1169580
  74.2741320  42.1530510  43.1745820  74.7978800  41.6593160  42.5435990
  74.8600740  42.2880870  43.9193390  74.4531040  42.2370380  46.6965370
  73.5033750  42.2033920  46.8110360  74.6344050  43.1470490  46.4615140
  60.3075480  40.4872060  35.8064000  61.0167180  40.0655280  35.3211280
  59.5915420  40.5547290  35.1747350  59.9549640  36.5411390  34.8466650
  60.6777770  37.0820330  35.1647870  60.2274160  36.2674810  33.9708190
  73.7641290  41.4103860  39.1138230  74.2600410  41.1774730  39.8987110
  73.5657360  40.5715700  38.6975870  59.6441830  35.7917580  44.7489270
  60.2918020  35.2414960  44.3084430  60.0643670  36.0460730  45.5705080
  75.1928450  40.0464810  41.6475910  75.0827730  39.8920850  42.5858180
  75.9536040  39.5185750  41.4051320  73.5394170  35.9858940  48.1058910
  74.1766390  36.5993080  48.4718100  73.6869060  36.0219600  47.1608140
  76.0818720  37.8772730  34.8882050  77.0068030  37.7453910  34.6800340
  76.0594510  37.9565550  35.8418500  76.1557210  38.6483390  37.5138760
  75.3608710  38.5828510  38.0431670  76.3600490  39.5834030  37.5024110
  73.0975630  52.6874940  41.5077150  73.6934700  52.3659510  40.8311570
  73.3553780  52.2146760  42.2990420  59.3973830  35.9473250  47.4914590
  59.0488650  36.4037070  48.2572770  59.0661530  35.0530380  47.5737020
  61.0038200  49.1192850  51.6567780  60.9607830  48.7485760  52.5382240
  61.1349210  50.0570420  51.7969600  64.7044230  50.6752440  47.2577500
  64.4635590  50.9427000  46.3708020  65.6446870  50.8458170  47.3128360
  66.9098650  37.1385130  51.0134010  66.8487540  37.7306960  51.7629420
  67.8499030  37.0311090  50.8684270  69.5473210  36.7955190  50.6526300
  70.1613620  37.1134480  49.9907380  70.0922770  36.3103780  51.2722160
  75.9648390  52.6946820  48.0588140  75.4706670  53.0915690  47.3415270
  75.3561680  52.0696030  48.4525420  60.0694470  35.4749450  50.7665360
  60.6177460  35.2937500  50.0031470  60.1349780  34.6843560  51.3021670
  60.8426230  52.0655100  48.7765560  60.2486550  51.9339800  49.5155600
  60.8350070  51.2293240  48.3107660  70.2881250  35.3587330  46.9795590
  69.4141090  35.6922440  46.7768520  70.1792000  34.8860510  47.8047460
  71.1953230  37.5658200  48.3637310  70.8666590  36.7509960  47.9839040
  72.1435530  37.5228010  48.2403000  73.6487840  53.3370240  45.3374880
  73.1890810  54.0886050  44.9632900  73.0200300  52.6176710  45.2789680
  60.4738460  49.4313480  47.7273600  59.7472520  48.8118770  47.6599550
  60.5347610  49.8254090  46.8571680  64.0783560  51.6458480  44.5123010
  64.5948580  51.0345840  43.9871270  64.7280940  52.1487260  45.0034020
  66.8179060  52.5366970  45.3391990  67.1056870  52.2821270  44.4625000
  67.3302280  51.9844330  45.9297560  68.0356070  36.2757170  45.9188500
  67.2527860  36.7502670  46.1985260  67.7419000  35.3712000  45.8101680
  72.5877140  36.9780270  43.9637590  73.0285230  36.9225370  43.1159190
  72.3184730  37.8938280  44.0347770  74.4515710  36.6095510  41.9746410
  74.3904110  35.6656730  41.8277430  75.2307740  36.7175600  42.5199870
  58.7568460  52.7487870  40.9370360  58.5890500  52.1158550  41.6352250
  57.8902970  52.9547270  40.5864550  59.3796480  36.5804650  38.4402220
  60.1375840  36.6933530  37.8666250  58.9173650  37.4173850  38.3945650
  65.9210290  38.6943920  41.4304530  65.1084800  38.3200810  41.0900410
  66.4251930  37.9389000  41.7325720  70.4235270  35.3586370  42.6687600
  71.0264640  35.9306580  43.1436120  69.6828260  35.9225810  42.4461500
  73.5669870  35.7607930  37.9427880  73.7620500  36.6591380  38.2095310
  72.7799740  35.5295010  38.4360830  60.3631160  51.4421100  38.3820500
  59.8378780  51.8229130  37.6782460  60.2875740  52.0671870  39.1030210
  61.7521630  37.1068700  36.9804190  62.2814390  36.3198500  36.8512140
  62.3849950  37.7859890  37.2139720  63.9459470  36.8443840  40.0349580
  63.3162210  36.1431150  40.2019710  63.4064610  37.6047970  39.8182740
  66.8851420  53.4583070  52.7060190  67.8118730  53.2227340  52.7496150
  66.8701850  54.2855070  52.2246220  75.1196480  53.0008640  39.7034440
  75.2948670  52.3146380  39.0595360  74.4218050  53.5255690  39.3111110
  64.0715030  36.1227820  52.4702070  63.7899300  36.6261420  51.7062890
  64.4534730  35.3249570  52.1044200  62.9624130  53.3903480  37.2569750
  63.6942950  53.1062760  36.7093640  63.2217800  53.1516760  38.1469130
  62.1238920  49.5068210  37.2616080  61.4947800  49.9753310  37.8101910
  62.2386750  48.6617430  37.6962270  70.6730490  35.5381400  53.0482540
  70.5595940  35.8576010  53.9434060  71.4900230  35.9393910  52.7519820
  73.4528980  52.6852930  52.5301230  74.2454300  52.1902160  52.3227190
  73.7462130  53.3643070  53.1376840  69.5788640  43.5573870  23.4117280
  69.4982690  42.6428480  23.1408990  69.1653060  44.0540940  22.7056990
  67.7106680  45.3352890  25.2926550  66.9348780  44.8553330  25.5825120
  68.3619610  44.6558540  25.1182710  61.7272510  45.6472700  26.1702310
  60.8957390  45.3921410  26.5698820  62.3353490  45.7183470  26.9060230
  71.7314110  49.7413080  24.0725680  71.2695640  48.9700320  24.4012850
  72.5439660  49.7679150  24.5778130  61.7073770  49.6812790  26.3660330
  62.0101810  48.7910530  26.1870550  62.4517360  50.2383010  26.1382580
  60.1364460  40.6074590  19.9544700  59.2481160  40.9490560  19.8524580
  60.4205650  40.4074910  19.0625530  58.0997470  43.2080240  25.8384400
  58.6713580  42.4402440  25.8388040  58.0999010  43.5069000  24.9291010
  67.9577420  52.0271090  23.6929670  67.3388860  52.4828590  23.1224110
  68.8129200  52.1822550  23.2919370  67.1515670  48.0110080  25.2996710
  67.0823950  47.0700020  25.1385840  67.9135530  48.1011490  25.8719280
  59.3422340  38.6164600  27.6253330  59.1625180  37.7190350  27.9056090
  58.9402420  39.1636470  28.3000280  68.1820840  40.8180460  25.5265640
  68.5585660  39.9452340  25.4139310  68.0840350  41.1539160  24.6356080
  62.3125850  39.1906090  20.9883080  62.4192600  40.0909820  21.2951840
  61.4018210  39.1424060  20.6977730  71.9644960  38.3130900  22.4593980
  72.7854580  37.8227470  22.5019460  71.9979040  38.9028560  23.2125820
  59.9609010  41.1125100  26.2335670  60.6419120  41.3763470  26.8523070
  59.6457060  40.2725970  26.5673680  64.1533580  42.1592460  25.3208260
  64.6611800  42.6573430  25.9613280  64.6846820  41.3827660  25.1447620
  76.2544510  40.3297650  29.0237610  75.5496680  40.7179360  28.5052720
  76.5202430  41.0247940  29.6258540  62.4369680  36.7991020  29.5871680
  62.4388120  37.3163410  28.7817580  61.6073990  36.3221200  29.5641610
  68.8240770  46.9110330  21.0861580  68.2058040  47.3759780  20.5224300
  69.3364020  47.6037810  21.5031090  63.6872530  46.4386200  27.7645180
  63.3541910  47.0655120  28.4066250  63.8639210  46.9648080  26.9846850
  72.2006440  40.2531280  25.2321520  71.4962010  40.5416170  25.8124630
  72.5618600  41.0631390  24.8721080  62.1185010  38.5100980  27.5942130
  62.4601820  39.3543030  27.2996000  61.1800820  38.6584720  27.7107470
  62.8991630  48.4067000  29.5794360  63.5165630  49.0818080  29.2978810
  62.0384750  48.8154980  29.4881860  58.1923970  47.5966860  18.4601210
  57.8151950  48.0853960  17.7286110  58.4497040  48.2692140  19.0907740
  73.8169220  49.8706410  27.4949000  73.1332740  50.5405520  27.4865670
  74.3563510  50.0687060  26.7293860  75.2693360  39.6986070  25.6230730
  74.3218270  39.7325050  25.7546160  75.5943350  40.5125020  26.0080090
  65.8012900  35.9983250  23.9186720  66.1087880  35.4430140  23.2022220
  64.8713600  36.1327710  23.7359710  71.3527960  51.7150540  26.2094180
  71.3655120  51.3112830  25.3416440  70.8003180  52.4897830  26.1055610
  72.6473380  48.4366760  21.2984350  72.5369710  47.4941090  21.4233770
  72.6441630  48.7982400  22.1847110  70.7513400  46.6180380  27.5376790
  71.1682190  46.4040490  26.7030250  71.4753220  46.8753170  28.1085410
  68.1893660  44.0632080  20.6546840  67.2622940  43.9969460  20.8835310
  68.3418480  45.0012210  20.5402080  68.1762740  40.3349080  17.6514000
  67.2366410  40.4963040  17.7366460  68.4946000  41.0534760  17.1049990
  74.6975500  45.0167600  27.6293030  73.8694130  45.0860690  27.1543160
  75.2925980  45.6021910  27.1608860  72.2190950  45.6252380  21.1582090
  71.6003370  45.2871930  20.5108390  72.2015400  44.9812140  21.8661280
  71.6617510  41.8036920  28.5747900  71.2488690  42.6290630  28.8287890
  70.9293460  41.2181960  28.3824260  63.7950300  44.5896820  23.4366570
  63.3907300  43.8774070  22.9412470  63.8813420  44.2450060  24.3254610
  64.2632000  48.2764380  25.6005780  63.9660290  47.6709850  24.9213560
  65.2131820  48.3141690  25.4895140  62.5078920  41.3640030  27.2165610
  63.0593510  41.4735370  26.4418860  63.0222430  41.7377630  27.9320840
  72.3517610  51.8496250  29.2628880  71.8748170  52.6568440  29.0701490
  71.6679400  51.1974580  29.4155090  63.3550430  48.0146070  32.2513580
  62.4578960  48.2386040  32.4986980  63.3803300  48.1381010  31.3024980
  70.3955650  44.8639190  18.1654840  70.8348930  44.0261620  18.0192660
  71.1084070  45.4968590  18.2518980  62.1821650  44.8859390  30.8270950
  62.0429420  45.7582190  31.1958350  61.3003010  44.5432200  30.6818890
  68.5051030  49.8035260  22.1336080  68.9446940  50.5459590  21.7191470
  68.4437920  50.0461830  23.0575040  63.9802000  50.8281090  33.0356100
  63.9517430  51.2324040  32.1684530  63.8166970  49.8991450  32.8727700
  73.9772790  36.1182000  16.4795880  73.6645450  36.2108830  17.3794950
  74.7385260  36.6963030  16.4293310  60.4954930  43.4841800  20.9373220
  60.3752530  44.2103890  20.3254490  60.1855820  42.7144710  20.4601130
  75.9316820  51.6108190  34.3320270  76.4076540  52.0891080  35.0109350
  76.5523980  51.5425680  33.6065770  58.1340300  46.6556940  26.7441860
  58.2120720  46.7905710  25.7997580  58.7481980  45.9472830  26.9369980
  59.3787930  48.3557130  23.1548040  58.9716010  48.4971720  22.3001640
  60.2700940  48.0717290  22.9519250  75.3350070  48.8021040  31.4920280
  75.4613130  48.5632920  30.5737460  75.3771450  47.9705580  31.9642360
  69.1966810  52.5049040  30.0615090  69.7111480  52.4157050  30.8637520
  68.3535890  52.8508740  30.3543000  71.1721210  52.7904380  19.4899090
  71.0122350  52.5007320  20.3880920  71.0067920  52.0144510  18.9544320
  63.6509590  52.5702910  21.2670710  63.4752070  51.6538450  21.0538510
  62.7965330  52.9290200  21.5068510  70.8747340  50.2991940  18.0497090
  70.1812500  50.2969230  17.3899370  71.6170200  49.8751260  17.6191260
  70.4397270  51.9254650  22.1245580  70.8954220  51.1444030  22.4384200
  70.7789790  52.6361470  22.6686760  75.1874080  40.8553500  32.4570020
  74.5718350  41.3633170  31.9285480  74.8670500  39.9551830  32.3995960
  58.1899820  47.6971110  29.2836320  58.3530860  47.2276470  28.4655690
  58.6552270  47.1894670  29.9485160  62.9618590  36.8276870  24.3196890
  62.5186740  37.6086410  23.9881410  63.5203580  37.1506760  25.0267830
  67.2488400  39.6945390  29.9232210  66.7867770  39.9028410  30.7352150
  66.8466510  38.8804740  29.6202880  72.2492910  40.9154340  31.0528870
  71.3986500  40.6160090  31.3737940  72.0894700  41.1596350  30.1412690
  69.3442620  42.4156090  33.1527660  69.6696030  41.5819840  32.8129890
  70.1322950  42.9384610  33.3005990  66.0777410  36.4487570  19.2002720
  65.4531590  36.4447440  19.9256030  65.9907530  35.5818530  18.8038690
  64.9994490  37.3724200  26.1786490  65.2966820  38.2787030  26.0978510
  65.5480050  36.8842980  25.5646060  62.7532810  41.9510440  22.0478140
  62.5273730  41.7347610  22.9524760  61.9725340  42.3838900  21.7024110
  69.9830570  41.9573810  20.6468790  69.3839460  42.6809610  20.4632410
  70.5310180  41.8950590  19.8645240  65.1932020  42.8496020  32.7138410
  65.0975620  41.9090750  32.5638810  66.0364000  43.0711090  32.3186480
  68.5895440  40.5937350  22.6772070  68.9825010  40.9109550  21.8640760
  68.9512290  39.7149230  22.7916590  60.3242560  39.2609690  30.8672190
  59.9305950  40.1084900  31.0744970  59.6360960  38.6236060  31.0580830
  66.8987610  39.3444660  33.9368930  66.2085930  39.1516860  34.5715020
  67.6419910  39.6279300  34.4693230  57.6259610  37.1838150  24.9002270
  57.3372660  37.7541010  25.6127250  58.3705370  36.7042600  25.2633500
  57.8129840  41.1258270  16.1104990  57.7304510  42.0689030  16.2519980
  57.4612900  40.9833180  15.2317340  69.1750580  43.1843100  26.7722850
  68.4431700  43.6929910  27.1212950  68.7774920  42.3673080  26.4711630
  65.6127970  39.8597300  25.1775340  65.6164030  39.4187250  24.3279880
  66.5079090  40.1814630  25.2847160  61.4630350  39.7423790  24.1369550
  61.1230400  40.2199020  24.8936600  60.7007670  39.2888910  23.7770650
  65.6748120  40.8609380  18.1682100  65.7960940  40.8195860  19.1167920
  65.2896630  41.7233530  18.0128830  69.6376490  38.6376780  26.1845790
  69.6549230  39.0885430  27.0287640  69.3892070  37.7382420  26.3979230
  64.6869620  43.1710520  17.5665400  64.1186520  42.7228770  16.9401310
  65.3958620  43.5303300  17.0330550  73.0647240  36.0508960  32.0232170
  73.3893010  35.3198620  32.5490150  73.1003750  35.7322600  31.1213160
  59.7638800  47.0722540  31.4432130  59.3793590  46.4316210  32.0415090
  60.0750990  47.7758660  32.0126860  65.9135940  43.9199080  26.9240750
  66.2806070  43.4457650  27.6702090  65.7241000  44.7940650  27.2649090
  58.7776430  38.6642770  23.0534220  58.4923350  38.2998440  23.8912840
  58.7155290  37.9323230  22.4397360  63.7035310  42.9607720  29.2424960
  63.3992380  43.8399700  29.4675320  64.6581770  43.0207510  29.2782400
  62.2317100  47.1668710  19.8391810  61.4579360  46.6266330  19.6790530
  62.9611730  46.6475320  19.5009570  72.9905080  46.1634070  25.6318200
  73.7104200  46.6589360  25.2414310  72.7886900  45.4851960  24.9872070
  68.4515020  37.5572030  19.7747590  67.6379630  37.0585200  19.6992900
  68.2576970  38.3970280  19.3583940  68.3723880  46.2343130  31.5187200
  68.3061190  45.3138800  31.2644790  67.7429020  46.3318570  32.2331840
  71.1663410  41.9291680  18.0709750  72.0543030  42.2408910  17.8961090
  71.1368500  41.0563930  17.6790330  62.2754500  46.8349090  23.4770620
  62.7933170  46.0317350  23.4227510  61.8238520  46.7728230  24.3187450
  67.1624000  48.1015370  18.7497920  67.5039700  48.8457600  18.2541240
  66.3336710  48.4146490  19.1122750  59.7599040  43.8010460  30.3896320
  59.4013980  44.4664310  30.9769660  59.4653600  42.9694010  30.7608940
  62.9612160  44.2594700  33.2735870  62.6612300  44.4051880  32.3763690
  63.7323400  43.6999990  33.1809260  68.3040610  49.0563700  31.2691000
  68.3185150  48.1244660  31.0509910  67.5965710  49.1423460  31.9080770
  73.4377680  43.2403520  17.5389610  73.3541400  43.6717740  16.6886050
  74.1571870  43.7001870  17.9716430  74.5151820  45.6971040  30.6159580
  73.7900010  46.2899820  30.4188970  75.0427280  45.6894580  29.8172950
  74.4664930  50.0945780  20.2671740  73.8241090  49.4401400  20.5415460
  74.0795590  50.5000870  19.4912410  70.0451410  47.4231210  24.1143430
  70.3975230  46.8259340  23.4544800  69.1613740  47.0975440  24.2851680
  66.1314690  48.1828900  21.5213840  66.8185820  48.7298110  21.9021430
  65.3447110  48.7269630  21.5563450  58.2707090  43.8001720  17.0130920
  59.1401940  44.0826520  17.2966840  57.7797410  44.6137590  16.8979730
  65.4341900  45.1874930  21.1339200  65.8904680  45.9980180  21.3599390
  65.0830110  44.8698070  21.9657690  67.7374510  50.6981270  28.3631500
  68.3816730  50.9040650  29.0404920  68.1003950  49.9369670  27.9102350
  61.3353680  35.5312580  21.6061720  61.2068310  35.5230480  22.5546640
  60.5115700  35.8695670  21.2552730  69.0106590  48.7013620  27.0808950
  69.6528820  48.0006780  27.1941120  69.5355940  49.4812060  26.9005840
  72.8562310  48.9862240  16.8048090  72.6299890  48.2692680  17.3972730
  72.4658510  48.7374680  15.9669840  70.7844210  49.5008520  30.2845010
  71.1200450  50.0875210  30.9622930  69.8644550  49.3701230  30.5142800
  58.6378340  53.0129100  17.5792550  58.9975980  53.6118440  16.9249820
  58.4970680  53.5588990  18.3527580  58.3347610  37.2903700  31.0668420
  57.6206130  37.4900620  31.6721030  58.7542650  36.5143270  31.4383220
  72.4378560  46.9034180  18.4662250  72.1500260  47.3646870  19.2540130
  73.2330730  46.4431950  18.7346470  58.6220200  51.2783960  32.0534950
  58.7311320  50.3378700  31.9130340  57.9700760  51.5438710  31.4048680
  66.6132790  49.5499850  33.4533070  66.2929660  48.8309090  33.9978760
  65.9391150  50.2254920  33.5269130  64.6546960  50.3960300  18.3966220
  64.6457060  51.1289990  17.7810730  63.7345320  50.1491880  18.4893180
  60.2553600  45.6175190  19.1412980  59.6481550  46.3574090  19.1508280
  60.7302950  45.7074550  18.3151180  69.8286390  39.7826010  28.8169870
  70.1967210  38.9621220  29.1449440  68.9684590  39.8427900  29.2325520
  73.1948420  38.7382950  19.6257430  72.5661580  38.8428620  18.9115660
  72.7000340  38.9579730  20.4151310  67.6406560  50.4588540  17.0591410
  67.7418540  50.2552530  16.1293390  66.7408300  50.2046820  17.2639190
  65.1632450  41.0168900  21.0415310  64.4548600  41.4855240  21.4828920
  65.4476930  40.3590910  21.6760500  66.7888380  42.4365600  29.0407840
  67.2873630  42.9111420  29.7059690  66.9311330  41.5129120  29.2477870
  69.1947880  37.7419560  22.4811100  69.0715660  37.7605690  21.5320610
  70.1432440  37.7898500  22.6009500  66.2824670  52.9774860  21.7539080
  66.5366170  52.9396250  20.8318450  65.3337150  52.8508190  21.7467330
  63.3667470  39.3253980  18.4166020  64.2158000  39.7624130  18.3506210
  62.9998740  39.6374240  19.2438080  73.9955240  38.6533560  29.8836230
  73.4928840  39.3938960  30.2230040  74.8111900  39.0417560  29.5673020
  72.2877250  43.8966740  23.3297590  71.3467390  43.9116970  23.5045280
  72.6021320  43.1102700  23.7757890  62.2658890  45.5786340  16.8901550
  63.0322160  45.4667700  17.4526980  62.3433580  44.8824310  16.2378320
  60.9605650  43.0111410  17.5734440  61.0409240  42.0638920  17.6851840
  61.8525400  43.3418290  17.6795100  74.2902830  51.0675590  25.0051850
  74.4150250  51.8906760  25.4775660  75.1568390  50.8566320  24.6576000
  61.7620360  53.1606800  24.6768980  62.4982840  52.6122260  24.9477550
  62.1461280  54.0262810  24.5374970  58.6465840  49.2280370  20.5510490
  57.7205620  49.4701510  20.5415900  59.1122270  50.0554630  20.4295240
  60.7678640  52.3452870  33.8654560  61.5691370  52.6664920  34.2789960
  60.2530460  51.9848450  34.5874470  64.8722670  52.3337110  16.4994550
  65.6651280  52.6225940  16.0476340  64.3527020  51.9029280  15.8207030
  69.6043270  48.4532740  33.8129970  68.9981430  48.4764340  33.0725720
  69.2997380  47.7215780  34.3497220  71.0343640  52.1813030  32.4239380
  71.9865390  52.0971050  32.3739620  70.8871860  52.8454740  33.0973170
  73.9252840  51.5607240  17.9231290  73.6394350  51.1472380  17.1085470
  73.7272390  52.4894950  17.8031810  58.4876450  44.8326330  32.8090610
  58.9915470  44.2533610  33.3806840  57.7483870  45.1166560  33.3466980
  65.3900070  47.5540520  16.3636900  65.2850710  46.9392870  17.0898280
  65.2224290  47.0306410  15.5799910  65.5414390  46.2397320  32.3426130
  64.7760060  46.8082320  32.2580800  65.7230350  45.9473530  31.4494360
  68.6302800  46.6160550  16.9678890  68.0812900  47.0629850  17.6121630
  69.2522060  46.1109800  17.4916560  72.6837740  47.9702650  32.9001150
  73.4247210  48.3078410  32.3968610  71.9210420  48.1394710  32.3470920
  60.5199530  42.9755920  33.7040680  60.5604870  42.6769790  34.6125910
  61.3745030  43.3763530  33.5448200  64.2977920  45.5751470  18.8644190
  64.7194340  45.4091340  19.7075580  64.4228760  44.7651700  18.3699330
  62.4605340  41.5548020  31.6715170  61.9301800  41.0638970  31.0438510
  63.1293410  41.9832220  31.1373100  66.8105560  44.5989080  16.1121290
  67.3311220  43.8838100  15.7462440  67.4573960  45.2374950  16.4121800
  71.3583400  46.0217480  31.4356360  71.7724420  46.1762560  32.2846780
  70.4234400  46.1472700  31.5982140  71.8305570  43.3613640  33.4395510
  72.4126340  42.6065960  33.3515990  72.0067340  43.8921080  32.6626990
  62.9477640  38.5210390  31.7512460  62.8534510  37.9031140  31.0263330
  62.3675030  39.2476680  31.5242370  65.7139080  37.0783630  28.7839850
  65.2656380  37.1007890  27.9385400  65.0804280  36.6802650  29.3810150
  66.1198630  45.9737960  29.4052290  66.5386740  46.8170690  29.2328530
  65.2007260  46.1110000  29.1759070  68.4562530  43.7054140  30.7890130
  68.5758740  43.1095280  31.5284970  69.3156530  43.7423830  30.3691430
  70.7950430  44.2591330  29.3652640  70.2685650  44.7833950  28.7617780
  71.1381770  44.8918720  29.9962370  63.1936820  41.6484700  15.8102350
  62.9925880  40.7852060  16.1715690  63.0228870  41.5618060  14.8723950
  63.9706050  52.2790970  30.5210020  63.4327140  53.0037030  30.2018720
  64.2240010  51.8021310  29.7307360  65.2231300  40.2475490  32.0465950
  65.8130990  39.9391340  32.7343770  64.4051540  39.7755240  32.2025850
  70.0424730  39.8641300  32.2798970  69.3540250  39.2022840  32.2148960
  70.7630750  39.4179570  32.7247430  70.6725130  36.4592930  18.3389230
  70.9527420  35.6160830  18.6948650  69.8990860  36.6916040  18.8527980
  61.9919620  38.7485320  15.7980230  62.2945520  38.7552750  14.8899380
  62.7314210  38.3983180  16.2947890  66.8268260  53.5142180  30.7796670
  66.7526960  54.4177320  31.0869040  65.9247100  53.1954080  30.7518740
  65.2104550  37.6919940  16.7836430  64.8626550  37.0143930  16.2038880
  65.4117320  37.2309450  17.5979820  67.3753590  52.6800690  18.4023030
  68.2704380  53.0185660  18.4241790  67.4071220  51.9580100  17.7747310
  61.0149750  48.0527740  16.6310030  61.4524620  48.5957410  17.2867610
  61.4997480  47.2274690  16.6406370  58.2295550  50.8416770  24.0830290
  58.5598560  49.9737830  23.8508930  58.6586550  51.0475290  24.9135250
  62.8257470  49.1725780  21.7432260  62.5253010  49.0490750  22.6436170
  62.7194960  48.3134370  21.3347990  58.7185760  51.7087360  26.8211920
  58.2816750  51.8888160  27.6536070  59.2863440  52.4661980  26.6793640
  74.3547940  51.2104360  31.1089230  73.7549930  51.2696920  30.3653150
  74.4841840  50.2709340  31.2386080  75.5949390  48.9522180  16.4458940
  74.7642350  49.0198830  16.9166170  75.7721220  49.8426300  16.1425800
  75.0505850  45.6969660  18.9493140  75.8124760  46.2666310  19.0552830
  75.0660220  45.1296860  19.7201450  58.5510190  44.2207590  23.1800800
  57.8959030  43.9519230  22.5360500  59.3888140  44.1112070  22.7302780
  76.0565820  46.5519760  23.7935070  76.4274650  45.7687080  23.3871040
  76.6967750  47.2408860  23.6152370  73.0399580  47.9356340  29.2065390
  72.2259420  48.3653500  29.4691180  73.4473780  48.5474750  28.5934440
  75.1025020  45.9904030  16.1065660  75.3773860  46.8982910  15.9784880
  74.9135760  45.9266560  17.0427650  71.5000630  39.0148880  17.4019290
  71.9185510  38.8279860  16.5615950  71.1936690  38.1627930  17.7122220
  74.9990360  43.9273020  21.0995090  74.6233960  43.1600950  20.6676380
  74.2693480  44.3095720  21.5870020  59.5886120  44.6060160  27.7204140
  59.9559160  44.5187560  28.6000160  59.0196940  43.8426710  27.6211000
  74.3889980  43.0744540  30.7334610  74.1576070  42.8457290  29.8332560
  74.6494530  43.9944090  30.6879500  59.1402120  41.5169250  31.6262560
  58.2458170  41.4836010  31.9656270  59.6799670  41.7156040  32.3913810
  72.8278050  38.3000970  33.5114310  73.7048230  38.3084370  33.8948310
  72.8398890  37.5631810  32.9006660  57.7648270  41.4306520  19.1226130
  56.8612350  41.6936720  18.9477790  58.2488890  41.7017690  18.3426090
  74.2741320  42.1530510  24.4002330  74.7978800  41.6593160  23.7692500
  74.8600740  42.2880870  25.1449900  74.4531040  42.2370380  27.9221880
  73.5033750  42.2033920  28.0366870  74.6344050  43.1470490  27.6871650
  60.3075480  40.4872060  17.0320510  61.0167180  40.0655280  16.5467790
  59.5915420  40.5547290  16.4003860  59.9549640  36.5411390  16.0723160
  60.6777770  37.0820330  16.3904380  60.2274160  36.2674810  15.1964700
  73.7641290  41.4103860  20.3394740  74.2600410  41.1774730  21.1243620
  73.5657360  40.5715700  19.9232380  59.6441830  35.7917580  25.9745780
  60.2918020  35.2414960  25.5340940  60.0643670  36.0460730  26.7961590
  75.1928450  40.0464810  22.8732420  75.0827730  39.8920850  23.8114690
  75.9536040  39.5185750  22.6307830  73.5394170  35.9858940  29.3315420
  74.1766390  36.5993080  29.6974610  73.6869060  36.0219600  28.3864650
  76.0818720  37.8772730  16.1138560  77.0068030  37.7453910  15.9056850
  76.0594510  37.9565550  17.0675010  76.1557210  38.6483390  18.7395270
  75.3608710  38.5828510  19.2688180  76.3600490  39.5834030  18.7280620
  73.0975630  52.6874940  22.7333660  73.6934700  52.3659510  22.0568080
  73.3553780  52.2146760  23.5246930  59.3973830  35.9473250  28.7171100
  59.0488650  36.4037070  29.4829280  59.0661530  35.0530380  28.7993530
  61.0038200  49.1192850  32.8824290  60.9607830  48.7485760  33.7638750
  61.1349210  50.0570420  33.0226110  64.7044230  50.6752440  28.4834010
  64.4635590  50.9427000  27.5964530  65.6446870  50.8458170  28.5384870
  66.9098650  37.1385130  32.2390520  66.8487540  37.7306960  32.9885930
  67.8499030  37.0311090  32.0940780  69.5473210  36.7955190  31.8782810
  70.1613620  37.1134480  31.2163890  70.0922770  36.3103780  32.4978670
  75.9648390  52.6946820  29.2844650  75.4706670  53.0915690  28.5671780
  75.3561680  52.0696030  29.6781930  60.0694470  35.4749450  31.9921870
  60.6177460  35.2937500  31.2287980  60.1349780  34.6843560  32.5278180
  60.8426230  52.0655100  30.0022070  60.2486550  51.9339800  30.7412110
  60.8350070  51.2293240  29.5364170  70.2881250  35.3587330  28.2052100
  69.4141090  35.6922440  28.0025030  70.1792000  34.8860510  29.0303970
  71.1953230  37.5658200  29.5893820  70.8666590  36.7509960  29.2095550
  72.1435530  37.5228010  29.4659510  73.6487840  53.3370240  26.5631390
  73.1890810  54.0886050  26.1889410  73.0200300  52.6176710  26.5046190
  60.4738460  49.4313480  28.9530110  59.7472520  48.8118770  28.8856060
  60.5347610  49.8254090  28.0828190  64.0783560  51.6458480  25.7379520
  64.5948580  51.0345840  25.2127780  64.7280940  52.1487260  26.2290530
  66.8179060  52.5366970  26.5648500  67.1056870  52.2821270  25.6881510
  67.3302280  51.9844330  27.1554070  68.0356070  36.2757170  27.1445010
  67.2527860  36.7502670  27.4241770  67.7419000  35.3712000  27.0358190
  72.5877140  36.9780270  25.1894100  73.0285230  36.9225370  24.3415700
  72.3184730  37.8938280  25.2604280  74.4515710  36.6095510  23.2002920
  74.3904110  35.6656730  23.0533940  75.2307740  36.7175600  23.7456380
  58.7568460  52.7487870  22.1626870  58.5890500  52.1158550  22.8608760
  57.8902970  52.9547270  21.8121060  59.3796480  36.5804650  19.6658730
  60.1375840  36.6933530  19.0922760  58.9173650  37.4173850  19.6202160
  65.9210290  38.6943920  22.6561040  65.1084800  38.3200810  22.3156920
  66.4251930  37.9389000  22.9582230  70.4235270  35.3586370  23.8944110
  71.0264640  35.9306580  24.3692630  69.6828260  35.9225810  23.6718010
  73.5669870  35.7607930  19.1684390  73.7620500  36.6591380  19.4351820
  72.7799740  35.5295010  19.6617340  60.3631160  51.4421100  19.6077010
  59.8378780  51.8229130  18.9038970  60.2875740  52.0671870  20.3286720
  61.7521630  37.1068700  18.2060700  62.2814390  36.3198500  18.0768650
  62.3849950  37.7859890  18.4396230  63.9459470  36.8443840  21.2606090
  63.3162210  36.1431150  21.4276220  63.4064610  37.6047970  21.0439250
  66.8851420  53.4583070  33.9316700  67.8118730  53.2227340  33.9752660
  66.8701850  54.2855070  33.4502730  75.1196480  53.0008640  20.9290950
  75.2948670  52.3146380  20.2851870  74.4218050  53.5255690  20.5367620
  64.0715030  36.1227820  33.6958580  63.7899300  36.6261420  32.9319400
  64.4534730  35.3249570  33.3300710  62.9624130  53.3903480  18.4826260
  63.6942950  53.1062760  17.9350150  63.2217800  53.1516760  19.3725640
  62.1238920  49.5068210  18.4872590  61.4947800  49.9753310  19.0358420
  62.2386750  48.6617430  18.9218780  70.6730490  35.5381400  34.2739050
  70.5595940  35.8576010  35.1690570  71.4900230  35.9393910  33.9776330
  73.4528980  52.6852930  33.7557740  74.2454300  52.1902160  33.5483700
  73.7462130  53.3643070  34.3633350  69.5788640  43.5573870   4.6373790
  69.4982690  42.6428480   4.3665500  69.1653060  44.0540940   3.9313500
  67.7106680  45.3352890   6.5183060  66.9348780  44.8553330   6.8081630
  68.3619610  44.6558540   6.3439220  61.7272510  45.6472700   7.3958820
  60.8957390  45.3921410   7.7955330  62.3353490  45.7183470   8.1316740
  71.7314110  49.7413080   5.2982190  71.2695640  48.9700320   5.6269360
  72.5439660  49.7679150   5.8034640  61.7073770  49.6812790   7.5916840
  62.0101810  48.7910530   7.4127060  62.4517360  50.2383010   7.3639090
  58.0997470  43.2080240   7.0640910  58.6713580  42.4402440   7.0644550
  58.0999010  43.5069000   6.1547520  67.9577420  52.0271090   4.9186180
  67.3388860  52.4828590   4.3480620  68.8129200  52.1822550   4.5175880
  67.1515670  48.0110080   6.5253220  67.0823950  47.0700020   6.3642350
  67.9135530  48.1011490   7.0975790  59.3422340  38.6164600   8.8509840
  59.1625180  37.7190350   9.1312600  58.9402420  39.1636470   9.5256790
  68.1820840  40.8180460   6.7522150  68.5585660  39.9452340   6.6395820
  68.0840350  41.1539160   5.8612590  62.3125850  39.1906090   2.2139590
  62.4192600  40.0909820   2.5208350  61.4018210  39.1424060   1.9234240
  71.9644960  38.3130900   3.6850490  72.7854580  37.8227470   3.7275970
  71.9979040  38.9028560   4.4382330  59.9609010  41.1125100   7.4592180
  60.6419120  41.3763470   8.0779580  59.6457060  40.2725970   7.7930190
  64.1533580  42.1592460   6.5464770  64.6611800  42.6573430   7.1869790
  64.6846820  41.3827660   6.3704130  76.2544510  40.3297650  10.2494120
  75.5496680  40.7179360   9.7309230  76.5202430  41.0247940  10.8515050
  62.4369680  36.7991020  10.8128190  62.4388120  37.3163410  10.0074090
  61.6073990  36.3221200  10.7898120  68.8240770  46.9110330   2.3118090
  68.2058040  47.3759780   1.7480810  69.3364020  47.6037810   2.7287600
  63.6872530  46.4386200   8.9901690  63.3541910  47.0655120   9.6322760
  63.8639210  46.9648080   8.2103360  72.2006440  40.2531280   6.4578030
  71.4962010  40.5416170   7.0381140  72.5618600  41.0631390   6.0977590
  62.1185010  38.5100980   8.8198640  62.4601820  39.3543030   8.5252510
  61.1800820  38.6584720   8.9363980  62.8991630  48.4067000  10.8050870
  63.5165630  49.0818080  10.5235320  62.0384750  48.8154980  10.7138370
  73.8169220  49.8706410   8.7205510  73.1332740  50.5405520   8.7122180
  74.3563510  50.0687060   7.9550370  75.2693360  39.6986070   6.8487240
  74.3218270  39.7325050   6.9802670  75.5943350  40.5125020   7.2336600
  65.8012900  35.9983250   5.1443230  66.1087880  35.4430140   4.4278730
  64.8713600  36.1327710   4.9616220  71.3527960  51.7150540   7.4350690
  71.3655120  51.3112830   6.5672950  70.8003180  52.4897830   7.3312120
  72.6473380  48.4366760   2.5240860  72.5369710  47.4941090   2.6490280
  72.6441630  48.7982400   3.4103620  70.7513400  46.6180380   8.7633300
  71.1682190  46.4040490   7.9286760  71.4753220  46.8753170   9.3341920
  68.1893660  44.0632080   1.8803350  67.2622940  43.9969460   2.1091820
  68.3418480  45.0012210   1.7658590  74.6975500  45.0167600   8.8549540
  73.8694130  45.0860690   8.3799670  75.2925980  45.6021910   8.3865370
  72.2190950  45.6252380   2.3838600  71.6003370  45.2871930   1.7364900
  72.2015400  44.9812140   3.0917790  71.6617510  41.8036920   9.8004410
  71.2488690  42.6290630  10.0544400  70.9293460  41.2181960   9.6080770
  63.7950300  44.5896820   4.6623080  63.3907300  43.8774070   4.1668980
  63.8813420  44.2450060   5.5511120  64.2632000  48.2764380   6.8262290
  63.9660290  47.6709850   6.1470070  65.2131820  48.3141690   6.7151650
  62.5078920  41.3640030   8.4422120  63.0593510  41.4735370   7.6675370
  63.0222430  41.7377630   9.1577350  72.3517610  51.8496250  10.4885390
  71.8748170  52.6568440  10.2958000  71.6679400  51.1974580  10.6411600
  63.3550430  48.0146070  13.4770090  62.4578960  48.2386040  13.7243490
  63.3803300  48.1381010  12.5281490  62.1821650  44.8859390  12.0527460
  62.0429420  45.7582190  12.4214860  61.3003010  44.5432200  11.9075400
  68.5051030  49.8035260   3.3592590  68.9446940  50.5459590   2.9447980
  68.4437920  50.0461830   4.2831550  63.9802000  50.8281090  14.2612610
  63.9517430  51.2324040  13.3941040  63.8166970  49.8991450  14.0984210
  75.9316820  51.6108190  15.5576780  76.4076540  52.0891080  16.2365860
  76.5523980  51.5425680  14.8322280  58.1340300  46.6556940   7.9698370
  58.2120720  46.7905710   7.0254090  58.7481980  45.9472830   8.1626490
  59.3787930  48.3557130   4.3804550  58.9716010  48.4971720   3.5258150
  60.2700940  48.0717290   4.1775760  75.3350070  48.8021040  12.7176790
  75.4613130  48.5632920  11.7993970  75.3771450  47.9705580  13.1898870
  69.1966810  52.5049040  11.2871600  69.7111480  52.4157050  12.0894030
  68.3535890  52.8508740  11.5799510  63.6509590  52.5702910   2.4927220
  63.4752070  51.6538450   2.2795020  62.7965330  52.9290200   2.7325020
  70.4397270  51.9254650   3.3502090  70.8954220  51.1444030   3.6640710
  70.7789790  52.6361470   3.8943270  75.1874080  40.8553500  13.6826530
  74.5718350  41.3633170  13.1541990  74.8670500  39.9551830  13.6252470
  58.1899820  47.6971110  10.5092830  58.3530860  47.2276470   9.6912200
  58.6552270  47.1894670  11.1741670  62.9618590  36.8276870   5.5453400
  62.5186740  37.6086410   5.2137920  63.5203580  37.1506760   6.2524340
  67.2488400  39.6945390  11.1488720  66.7867770  39.9028410  11.9608660
  66.8466510  38.8804740  10.8459390  72.2492910  40.9154340  12.2785380
  71.3986500  40.6160090  12.5994450  72.0894700  41.1596350  11.3669200
  69.3442620  42.4156090  14.3784170  69.6696030  41.5819840  14.0386400
  70.1322950  42.9384610  14.5262500  64.9994490  37.3724200   7.4043000
  65.2966820  38.2787030   7.3235020  65.5480050  36.8842980   6.7902570
  62.7532810  41.9510440   3.2734650  62.5273730  41.7347610   4.1781270
  61.9725340  42.3838900   2.9280620  65.1932020  42.8496020  13.9394920
  65.0975620  41.9090750  13.7895320  66.0364000  43.0711090  13.5442990
  68.5895440  40.5937350   3.9028580  68.9825010  40.9109550   3.0897270
  68.9512290  39.7149230   4.0173100  60.3242560  39.2609690  12.0928700
  59.9305950  40.1084900  12.3001480  59.6360960  38.6236060  12.2837340
  66.8987610  39.3444660  15.1625440  66.2085930  39.1516860  15.7971530
  67.6419910  39.6279300  15.6949740  57.6259610  37.1838150   6.1258780
  57.3372660  37.7541010   6.8383760  58.3705370  36.7042600   6.4890010
  69.1750580  43.1843100   7.9979360  68.4431700  43.6929910   8.3469460
  68.7774920  42.3673080   7.6968140  65.6127970  39.8597300   6.4031850
  65.6164030  39.4187250   5.5536390  66.5079090  40.1814630   6.5103670
  61.4630350  39.7423790   5.3626060  61.1230400  40.2199020   6.1193110
  60.7007670  39.2888910   5.0027160  69.6376490  38.6376780   7.4102300
  69.6549230  39.0885430   8.2544150  69.3892070  37.7382420   7.6235740
  73.0647240  36.0508960  13.2488680  73.3893010  35.3198620  13.7746660
  73.1003750  35.7322600  12.3469670  59.7638800  47.0722540  12.6688640
  59.3793590  46.4316210  13.2671600  60.0750990  47.7758660  13.2383370
  65.9135940  43.9199080   8.1497260  66.2806070  43.4457650   8.8958600
  65.7241000  44.7940650   8.4905600  58.7776430  38.6642770   4.2790730
  58.4923350  38.2998440   5.1169350  58.7155290  37.9323230   3.6653870
  63.7035310  42.9607720  10.4681470  63.3992380  43.8399700  10.6931830
  64.6581770  43.0207510  10.5038910  72.9905080  46.1634070   6.8574710
  73.7104200  46.6589360   6.4670820  72.7886900  45.4851960   6.2128580
  68.3723880  46.2343130  12.7443710  68.3061190  45.3138800  12.4901300
  67.7429020  46.3318570  13.4588350  62.2754500  46.8349090   4.7027130
  62.7933170  46.0317350   4.6484020  61.8238520  46.7728230   5.5443960
  59.7599040  43.8010460  11.6152830  59.4013980  44.4664310  12.2026170
  59.4653600  42.9694010  11.9865450  62.9612160  44.2594700  14.4992380
  62.6612300  44.4051880  13.6020200  63.7323400  43.6999990  14.4065770
  68.3040610  49.0563700  12.4947510  68.3185150  48.1244660  12.2766420
  67.5965710  49.1423460  13.1337280  74.5151820  45.6971040  11.8416090
  73.7900010  46.2899820  11.6445480  75.0427280  45.6894580  11.0429460
  70.0451410  47.4231210   5.3399940  70.3975230  46.8259340   4.6801310
  69.1613740  47.0975440   5.5108190  66.1314690  48.1828900   2.7470350
  66.8185820  48.7298110   3.1277940  65.3447110  48.7269630   2.7819960
  65.4341900  45.1874930   2.3595710  65.8904680  45.9980180   2.5855900
  65.0830110  44.8698070   3.1914200  67.7374510  50.6981270   9.5888010
  68.3816730  50.9040650  10.2661430  68.1003950  49.9369670   9.1358860
  61.3353680  35.5312580   2.8318230  61.2068310  35.5230480   3.7803150
  60.5115700  35.8695670   2.4809240  69.0106590  48.7013620   8.3065460
  69.6528820  48.0006780   8.4197630  69.5355940  49.4812060   8.1262350
  70.7844210  49.5008520  11.5101520  71.1200450  50.0875210  12.1879440
  69.8644550  49.3701230  11.7399310  58.3347610  37.2903700  12.2924930
  57.6206130  37.4900620  12.8977540  58.7542650  36.5143270  12.6639730
  58.6220200  51.2783960  13.2791460  58.7311320  50.3378700  13.1386850
  57.9700760  51.5438710  12.6305190  66.6132790  49.5499850  14.6789580
  66.2929660  48.8309090  15.2235270  65.9391150  50.2254920  14.7525640
  69.8286390  39.7826010  10.0426380  70.1967210  38.9621220  10.3705950
  68.9684590  39.8427900  10.4582030  65.1632450  41.0168900   2.2671820
  64.4548600  41.4855240   2.7085430  65.4476930  40.3590910   2.9017010
  66.7888380  42.4365600  10.2664350  67.2873630  42.9111420  10.9316200
  66.9311330  41.5129120  10.4734380  69.1947880  37.7419560   3.7067610
  69.0715660  37.7605690   2.7577120  70.1432440  37.7898500   3.8266010
  66.2824670  52.9774860   2.9795590  66.5366170  52.9396250   2.0574960
  65.3337150  52.8508190   2.9723840  73.9955240  38.6533560  11.1092740
  73.4928840  39.3938960  11.4486550  74.8111900  39.0417560  10.7929530
  72.2877250  43.8966740   4.5554100  71.3467390  43.9116970   4.7301790
  72.6021320  43.1102700   5.0014400  74.2902830  51.0675590   6.2308360
  74.4150250  51.8906760   6.7032170  75.1568390  50.8566320   5.8832510
  61.7620360  53.1606800   5.9025490  62.4982840  52.6122260   6.1734060
  62.1461280  54.0262810   5.7631480  58.6465840  49.2280370   1.7767000
  57.7205620  49.4701510   1.7672410  59.1122270  50.0554630   1.6551750
  60.7678640  52.3452870  15.0911070  61.5691370  52.6664920  15.5046470
  60.2530460  51.9848450  15.8130980  69.6043270  48.4532740  15.0386480
  68.9981430  48.4764340  14.2982230  69.2997380  47.7215780  15.5753730
  71.0343640  52.1813030  13.6495890  71.9865390  52.0971050  13.5996130
  70.8871860  52.8454740  14.3229680  58.4876450  44.8326330  14.0347120
  58.9915470  44.2533610  14.6063350  57.7483870  45.1166560  14.5723490
  65.5414390  46.2397320  13.5682640  64.7760060  46.8082320  13.4837310
  65.7230350  45.9473530  12.6750870  72.6837740  47.9702650  14.1257660
  73.4247210  48.3078410  13.6225120  71.9210420  48.1394710  13.5727430
  60.5199530  42.9755920  14.9297190  60.5604870  42.6769790  15.8382420
  61.3745030  43.3763530  14.7704710  62.4605340  41.5548020  12.8971680
  61.9301800  41.0638970  12.2695020  63.1293410  41.9832220  12.3629610
  71.3583400  46.0217480  12.6612870  71.7724420  46.1762560  13.5103290
  70.4234400  46.1472700  12.8238650  71.8305570  43.3613640  14.6652020
  72.4126340  42.6065960  14.5772500  72.0067340  43.8921080  13.8883500
  62.9477640  38.5210390  12.9768970  62.8534510  37.9031140  12.2519840
  62.3675030  39.2476680  12.7498880  65.7139080  37.0783630  10.0096360
  65.2656380  37.1007890   9.1641910  65.0804280  36.6802650  10.6066660
  66.1198630  45.9737960  10.6308800  66.5386740  46.8170690  10.4585040
  65.2007260  46.1110000  10.4015580  68.4562530  43.7054140  12.0146640
  68.5758740  43.1095280  12.7541480  69.3156530  43.7423830  11.5947940
  70.7950430  44.2591330  10.5909150  70.2685650  44.7833950   9.9874290
  71.1381770  44.8918720  11.2218880  63.9706050  52.2790970  11.7466530
  63.4327140  53.0037030  11.4275230  64.2240010  51.8021310  10.9563870
  65.2231300  40.2475490  13.2722460  65.8130990  39.9391340  13.9600280
  64.4051540  39.7755240  13.4282360  70.0424730  39.8641300  13.5055480
  69.3540250  39.2022840  13.4405470  70.7630750  39.4179570  13.9503940
  66.8268260  53.5142180  12.0053180  66.7526960  54.4177320  12.3125550
  65.9247100  53.1954080  11.9775250  58.2295550  50.8416770   5.3086800
  58.5598560  49.9737830   5.0765440  58.6586550  51.0475290   6.1391760
  62.8257470  49.1725780   2.9688770  62.5253010  49.0490750   3.8692680
  62.7194960  48.3134370   2.5604500  58.7185760  51.7087360   8.0468430
  58.2816750  51.8888160   8.8792580  59.2863440  52.4661980   7.9050150
  74.3547940  51.2104360  12.3345740  73.7549930  51.2696920  11.5909660
  74.4841840  50.2709340  12.4642590  58.5510190  44.2207590   4.4057310
  57.8959030  43.9519230   3.7617010  59.3888140  44.1112070   3.9559290
  76.0565820  46.5519760   5.0191580  76.4274650  45.7687080   4.6127550
  76.6967750  47.2408860   4.8408880  73.0399580  47.9356340  10.4321900
  72.2259420  48.3653500  10.6947690  73.4473780  48.5474750   9.8190950
  74.9990360  43.9273020   2.3251600  74.6233960  43.1600950   1.8932890
  74.2693480  44.3095720   2.8126530  59.5886120  44.6060160   8.9460650
  59.9559160  44.5187560   9.8256670  59.0196940  43.8426710   8.8467510
  74.3889980  43.0744540  11.9591120  74.1576070  42.8457290  11.0589070
  74.6494530  43.9944090  11.9136010  59.1402120  41.5169250  12.8519070
  58.2458170  41.4836010  13.1912780  59.6799670  41.7156040  13.6170320
  72.8278050  38.3000970  14.7370820  73.7048230  38.3084370  15.1204820
  72.8398890  37.5631810  14.1263170  74.2741320  42.1530510   5.6258840
  74.7978800  41.6593160   4.9949010  74.8600740  42.2880870   6.3706410
  74.4531040  42.2370380   9.1478390  73.5033750  42.2033920   9.2623380
  74.6344050  43.1470490   8.9128160  59.6441830  35.7917580   7.2002290
  60.2918020  35.2414960   6.7597450  60.0643670  36.0460730   8.0218100
  75.1928450  40.0464810   4.0988930  75.0827730  39.8920850   5.0371200
  75.9536040  39.5185750   3.8564340  73.5394170  35.9858940  10.5571930
  74.1766390  36.5993080  10.9231120  73.6869060  36.0219600   9.6121160
  73.0975630  52.6874940   3.9590170  73.6934700  52.3659510   3.2824590
  73.3553780  52.2146760   4.7503440  59.3973830  35.9473250   9.9427610
  59.0488650  36.4037070  10.7085790  59.0661530  35.0530380  10.0250040
  61.0038200  49.1192850  14.1080800  60.9607830  48.7485760  14.9895260
  61.1349210  50.0570420  14.2482620  64.7044230  50.6752440   9.7090520
  64.4635590  50.9427000   8.8221040  65.6446870  50.8458170   9.7641380
  66.9098650  37.1385130  13.4647030  66.8487540  37.7306960  14.2142440
  67.8499030  37.0311090  13.3197290  69.5473210  36.7955190  13.1039320
  70.1613620  37.1134480  12.4420400  70.0922770  36.3103780  13.7235180
  75.9648390  52.6946820  10.5101160  75.4706670  53.0915690   9.7928290
  75.3561680  52.0696030  10.9038440  60.0694470  35.4749450  13.2178380
  60.6177460  35.2937500  12.4544490  60.1349780  34.6843560  13.7534690
  60.8426230  52.0655100  11.2278580  60.2486550  51.9339800  11.9668620
  60.8350070  51.2293240  10.7620680  70.2881250  35.3587330   9.4308610
  69.4141090  35.6922440   9.2281540  70.1792000  34.8860510  10.2560480
  71.1953230  37.5658200  10.8150330  70.8666590  36.7509960  10.4352060
  72.1435530  37.5228010  10.6916020  73.6487840  53.3370240   7.7887900
  73.1890810  54.0886050   7.4145920  73.0200300  52.6176710   7.7302700
  60.4738460  49.4313480  10.1786620  59.7472520  48.8118770  10.1112570
  60.5347610  49.8254090   9.3084700  64.0783560  51.6458480   6.9636030
  64.5948580  51.0345840   6.4384290  64.7280940  52.1487260   7.4547040
  66.8179060  52.5366970   7.7905010  67.1056870  52.2821270   6.9138020
  67.3302280  51.9844330   8.3810580  68.0356070  36.2757170   8.3701520
  67.2527860  36.7502670   8.6498280  67.7419000  35.3712000   8.2614700
  72.5877140  36.9780270   6.4150610  73.0285230  36.9225370   5.5672210
  72.3184730  37.8938280   6.4860790  74.4515710  36.6095510   4.4259430
  74.3904110  35.6656730   4.2790450  75.2307740  36.7175600   4.9712890
  58.7568460  52.7487870   3.3883380  58.5890500  52.1158550   4.0865270
  57.8902970  52.9547270   3.0377570  65.9210290  38.6943920   3.8817550
  65.1084800  38.3200810   3.5413430  66.4251930  37.9389000   4.1838740
  70.4235270  35.3586370   5.1200620  71.0264640  35.9306580   5.5949140
  69.6828260  35.9225810   4.8974520  63.9459470  36.8443840   2.4862600
  63.3162210  36.1431150   2.6532730  63.4064610  37.6047970   2.2695760
  66.8851420  53.4583070  15.1573210  67.8118730  53.2227340  15.2009170
  66.8701850  54.2855070  14.6759240  64.0715030  36.1227820  14.9215090
  63.7899300  36.6261420  14.1575910  64.4534730  35.3249570  14.5557220
  70.6730490  35.5381400  15.4995560  70.5595940  35.8576010  16.3947080
  71.4900230  35.9393910  15.2032840  73.4528980  52.6852930  14.9814250
  74.2454300  52.1902160  14.7740210  73.7462130  53.3643070  15.5889860
  69.5788640  24.7830380  79.7347750  69.4982690  23.8684990  79.4639460
  69.1653060  25.2797450  79.0287460  67.7106680  26.5609400  81.6157020
  66.9348780  26.0809840  81.9055590  68.3619610  25.8815050  81.4413180
  61.7272510  26.8729210  82.4932780  60.8957390  26.6177920  82.8929290
  62.3353490  26.9439980  83.2290700  71.7314110  30.9669590  80.3956150
  71.2695640  30.1956830  80.7243320  72.5439660  30.9935660  80.9008600
  61.7073770  30.9069300  82.6890800  62.0101810  30.0167040  82.5101020
  62.4517360  31.4639520  82.4613050  60.1364460  21.8331100  76.2775170
  59.2481160  22.1747070  76.1755050  60.4205650  21.6331420  75.3856000
  58.0997470  24.4336750  82.1614870  58.6713580  23.6658950  82.1618510
  58.0999010  24.7325510  81.2521480  67.9577420  33.2527600  80.0160140
  67.3388860  33.7085100  79.4454580  68.8129200  33.4079060  79.6149840
  67.1515670  29.2366590  81.6227180  67.0823950  28.2956530  81.4616310
  67.9135530  29.3268000  82.1949750  59.3422340  19.8421110  83.9483800
  59.1625180  18.9446860  84.2286560  58.9402420  20.3892980  84.6230750
  68.1820840  22.0436970  81.8496110  68.5585660  21.1708850  81.7369780
  68.0840350  22.3795670  80.9586550  62.3125850  20.4162600  77.3113550
  62.4192600  21.3166330  77.6182310  61.4018210  20.3680570  77.0208200
  71.9644960  19.5387410  78.7824450  72.7854580  19.0483980  78.8249930
  71.9979040  20.1285070  79.5356290  59.9609010  22.3381610  82.5566140
  60.6419120  22.6019980  83.1753540  59.6457060  21.4982480  82.8904150
  64.1533580  23.3848970  81.6438730  64.6611800  23.8829940  82.2843750
  64.6846820  22.6084170  81.4678090  76.2544510  21.5554160  85.3468080
  75.5496680  21.9435870  84.8283190  76.5202430  22.2504450  85.9489010
  62.4369680  18.0247530  85.9102150  62.4388120  18.5419920  85.1048050
  61.6073990  17.5477710  85.8872080  68.8240770  28.1366840  77.4092050
  68.2058040  28.6016290  76.8454770  69.3364020  28.8294320  77.8261560
  63.6872530  27.6642710  84.0875650  63.3541910  28.2911630  84.7296720
  63.8639210  28.1904590  83.3077320  72.2006440  21.4787790  81.5551990
  71.4962010  21.7672680  82.1355100  72.5618600  22.2887900  81.1951550
  62.1185010  19.7357490  83.9172600  62.4601820  20.5799540  83.6226470
  61.1800820  19.8841230  84.0337940  62.8991630  29.6323510  85.9024830
  63.5165630  30.3074590  85.6209280  62.0384750  30.0411490  85.8112330
  58.1923970  28.8223370  74.7831680  57.8151950  29.3110470  74.0516580
  58.4497040  29.4948650  75.4138210  73.8169220  31.0962920  83.8179470
  73.1332740  31.7662030  83.8096140  74.3563510  31.2943570  83.0524330
  75.2693360  20.9242580  81.9461200  74.3218270  20.9581560  82.0776630
  75.5943350  21.7381530  82.3310560  65.8012900  17.2239760  80.2417190
  66.1087880  16.6686650  79.5252690  64.8713600  17.3584220  80.0590180
  71.3527960  32.9407050  82.5324650  71.3655120  32.5369340  81.6646910
  70.8003180  33.7154340  82.4286080  72.6473380  29.6623270  77.6214820
  72.5369710  28.7197600  77.7464240  72.6441630  30.0238910  78.5077580
  70.7513400  27.8436890  83.8607260  71.1682190  27.6297000  83.0260720
  71.4753220  28.1009680  84.4315880  68.1893660  25.2888590  76.9777310
  67.2622940  25.2225970  77.2065780  68.3418480  26.2268720  76.8632550
  68.1762740  21.5605590  73.9744470  67.2366410  21.7219550  74.0596930
  68.4946000  22.2791270  73.4280460  74.6975500  26.2424110  83.9523500
  73.8694130  26.3117200  83.4773630  75.2925980  26.8278420  83.4839330
  72.2190950  26.8508890  77.4812560  71.6003370  26.5128440  76.8338860
  72.2015400  26.2068650  78.1891750  71.6617510  23.0293430  84.8978370
  71.2488690  23.8547140  85.1518360  70.9293460  22.4438470  84.7054730
  63.7950300  25.8153330  79.7597040  63.3907300  25.1030580  79.2642940
  63.8813420  25.4706570  80.6485080  64.2632000  29.5020890  81.9236250
  63.9660290  28.8966360  81.2444030  65.2131820  29.5398200  81.8125610
  62.5078920  22.5896540  83.5396080  63.0593510  22.6991880  82.7649330
  63.0222430  22.9634140  84.2551310  72.3517610  33.0752760  85.5859350
  71.8748170  33.8824950  85.3931960  71.6679400  32.4231090  85.7385560
  70.3955650  26.0895700  74.4885310  70.8348930  25.2518130  74.3423130
  71.1084070  26.7225100  74.5749450  68.5051030  31.0291770  78.4566550
  68.9446940  31.7716100  78.0421940  68.4437920  31.2718340  79.3805510
  73.9772790  17.3438510  72.8026350  73.6645450  17.4365340  73.7025420
  74.7385260  17.9219540  72.7523780  60.4954930  24.7098310  77.2603690
  60.3752530  25.4360400  76.6484960  60.1855820  23.9401220  76.7831600
  58.1340300  27.8813450  83.0672330  58.2120720  28.0162220  82.1228050
  58.7481980  27.1729340  83.2600450  59.3787930  29.5813640  79.4778510
  58.9716010  29.7228230  78.6232110  60.2700940  29.2973800  79.2749720
  71.1721210  34.0160890  75.8129560  71.0122350  33.7263830  76.7111390
  71.0067920  33.2401020  75.2774790  63.6509590  33.7959420  77.5901180
  63.4752070  32.8794960  77.3768980  62.7965330  34.1546710  77.8298980
  70.8747340  31.5248450  74.3727560  70.1812500  31.5225740  73.7129840
  71.6170200  31.1007770  73.9421730  70.4397270  33.1511160  78.4476050
  70.8954220  32.3700540  78.7614670  70.7789790  33.8617980  78.9917230
  62.9618590  18.0533380  80.6427360  62.5186740  18.8342920  80.3111880
  63.5203580  18.3763270  81.3498300  66.0777410  17.6744080  75.5233190
  65.4531590  17.6703950  76.2486500  65.9907530  16.8075040  75.1269160
  64.9994490  18.5980710  82.5016960  65.2966820  19.5043540  82.4208980
  65.5480050  18.1099490  81.8876530  62.7532810  23.1766950  78.3708610
  62.5273730  22.9604120  79.2755230  61.9725340  23.6095410  78.0254580
  69.9830570  23.1830320  76.9699260  69.3839460  23.9066120  76.7862880
  70.5310180  23.1207100  76.1875710  68.5895440  21.8193860  79.0002540
  68.9825010  22.1366060  78.1871230  68.9512290  20.9405740  79.1147060
  57.6259610  18.4094660  81.2232740  57.3372660  18.9797520  81.9357720
  58.3705370  17.9299110  81.5863970  57.8129840  22.3514780  72.4335460
  57.7304510  23.2945540  72.5750450  57.4612900  22.2089690  71.5547810
  69.1750580  24.4099610  83.0953320  68.4431700  24.9186420  83.4443420
  68.7774920  23.5929590  82.7942100  65.6127970  21.0853810  81.5005810
  65.6164030  20.6443760  80.6510350  66.5079090  21.4071140  81.6077630
  61.4630350  20.9680300  80.4600020  61.1230400  21.4455530  81.2167070
  60.7007670  20.5145420  80.1001120  65.6748120  22.0865890  74.4912570
  65.7960940  22.0452370  75.4398390  65.2896630  22.9490040  74.3359300
  69.6376490  19.8633290  82.5076260  69.6549230  20.3141940  83.3518110
  69.3892070  18.9638930  82.7209700  64.6869620  24.3967030  73.8895870
  64.1186520  23.9485280  73.2631780  65.3958620  24.7559810  73.3561020
  65.9135940  25.1455590  83.2471220  66.2806070  24.6714160  83.9932560
  65.7241000  26.0197160  83.5879560  58.7776430  19.8899280  79.3764690
  58.4923350  19.5254950  80.2143310  58.7155290  19.1579740  78.7627830
  63.7035310  24.1864230  85.5655430  63.3992380  25.0656210  85.7905790
  64.6581770  24.2464020  85.6012870  62.2317100  28.3925220  76.1622280
  61.4579360  27.8522840  76.0021000  62.9611730  27.8731830  75.8240040
  72.9905080  27.3890580  81.9548670  73.7104200  27.8845870  81.5644780
  72.7886900  26.7108470  81.3102540  68.4515020  18.7828540  76.0978060
  67.6379630  18.2841710  76.0223370  68.2576970  19.6226790  75.6814410
  71.1663410  23.1548190  74.3940220  72.0543030  23.4665420  74.2191560
  71.1368500  22.2820440  74.0020800  62.2754500  28.0605600  79.8001090
  62.7933170  27.2573860  79.7457980  61.8238520  27.9984740  80.6417920
  67.1624000  29.3271880  75.0728390  67.5039700  30.0714110  74.5771710
  66.3336710  29.6403000  75.4353220  73.4377680  24.4660030  73.8620080
  73.3541400  24.8974250  73.0116520  74.1571870  24.9258380  74.2946900
  74.4664930  31.3202290  76.5902210  73.8241090  30.6657910  76.8645930
  74.0795590  31.7257380  75.8142880  70.0451410  28.6487720  80.4373900
  70.3975230  28.0515850  79.7775270  69.1613740  28.3231950  80.6082150
  66.1314690  29.4085410  77.8444310  66.8185820  29.9554620  78.2251900
  65.3447110  29.9526140  77.8793920  58.2707090  25.0258230  73.3361390
  59.1401940  25.3083030  73.6197310  57.7797410  25.8394100  73.2210200
  65.4341900  26.4131440  77.4569670  65.8904680  27.2236690  77.6829860
  65.0830110  26.0954580  78.2888160  67.7374510  31.9237780  84.6861970
  68.3816730  32.1297160  85.3635390  68.1003950  31.1626180  84.2332820
  61.3353680  16.7569090  77.9292190  61.2068310  16.7486990  78.8777110
  60.5115700  17.0952180  77.5783200  69.0106590  29.9270130  83.4039420
  69.6528820  29.2263290  83.5171590  69.5355940  30.7068570  83.2236310
  72.8562310  30.2118750  73.1278560  72.6299890  29.4949190  73.7203200
  72.4658510  29.9631190  72.2900310  58.6378340  34.2385610  73.9023020
  58.9975980  34.8374950  73.2480290  58.4970680  34.7845500  74.6758050
  72.4378560  28.1290690  74.7892720  72.1500260  28.5903380  75.5770600
  73.2330730  27.6688460  75.0576940  64.6546960  31.6216810  74.7196690
  64.6457060  32.3546500  74.1041200  63.7345320  31.3748390  74.8123650
  60.2553600  26.8431700  75.4643450  59.6481550  27.5830600  75.4738750
  60.7302950  26.9331060  74.6381650  69.8286390  21.0082520  85.1400340
  70.1967210  20.1877730  85.4679910  68.9684590  21.0684410  85.5555990
  73.1948420  19.9639460  75.9487900  72.5661580  20.0685130  75.2346130
  72.7000340  20.1836240  76.7381780  67.6406560  31.6845050  73.3821880
  67.7418540  31.4809040  72.4523860  66.7408300  31.4303330  73.5869660
  65.1632450  22.2425410  77.3645780  64.4548600  22.7111750  77.8059390
  65.4476930  21.5847420  77.9990970  69.1947880  18.9676070  78.8041570
  69.0715660  18.9862200  77.8551080  70.1432440  19.0155010  78.9239970
  66.2824670  34.2031370  78.0769550  66.5366170  34.1652760  77.1548920
  65.3337150  34.0764700  78.0697800  63.3667470  20.5510490  74.7396490
  64.2158000  20.9880640  74.6736680  62.9998740  20.8630750  75.5668550
  72.2877250  25.1223250  79.6528060  71.3467390  25.1373480  79.8275750
  72.6021320  24.3359210  80.0988360  62.2658890  26.8042850  73.2132020
  63.0322160  26.6924210  73.7757450  62.3433580  26.1080820  72.5608790
  60.9605650  24.2367920  73.8964910  61.0409240  23.2895430  74.0082310
  61.8525400  24.5674800  74.0025570  74.2902830  32.2932100  81.3282320
  74.4150250  33.1163270  81.8006130  75.1568390  32.0822830  80.9806470
  61.7620360  34.3863310  80.9999450  62.4982840  33.8378770  81.2708020
  62.1461280  35.2519320  80.8605440  58.6465840  30.4536880  76.8740960
  57.7205620  30.6958020  76.8646370  59.1122270  31.2811140  76.7525710
  64.8722670  33.5593620  72.8225020  65.6651280  33.8482450  72.3706810
  64.3527020  33.1285790  72.1437500  73.9252840  32.7863750  74.2461760
  73.6394350  32.3728890  73.4315940  73.7272390  33.7151460  74.1262280
  65.3900070  28.7797030  72.6867370  65.2850710  28.1649380  73.4128750
  65.2224290  28.2562920  71.9030380  68.6302800  27.8417060  73.2909360
  68.0812900  28.2886360  73.9352100  69.2522060  27.3366310  73.8147030
  64.2977920  26.8007980  75.1874660  64.7194340  26.6347850  76.0306050
  64.4228760  25.9908210  74.6929800  66.8105560  25.8245590  72.4351760
  67.3311220  25.1094610  72.0692910  67.4573960  26.4631460  72.7352270
  65.7139080  18.3040140  85.1070320  65.2656380  18.3264400  84.2615870
  65.0804280  17.9059160  85.7040620  66.1198630  27.1994470  85.7282760
  66.5386740  28.0427200  85.5559000  65.2007260  27.3366510  85.4989540
  63.1936820  22.8741210  72.1332820  62.9925880  22.0108570  72.4946160
  63.0228870  22.7874570  71.1954420  70.6725130  17.6849440  74.6619700
  70.9527420  16.8417340  75.0179120  69.8990860  17.9172550  75.1758450
  61.9919620  19.9741830  72.1210700  62.2945520  19.9809260  71.2129850
  62.7314210  19.6239690  72.6178360  65.2104550  18.9176450  73.1066900
  64.8626550  18.2400440  72.5269350  65.4117320  18.4565960  73.9210290
  67.3753590  33.9057200  74.7253500  68.2704380  34.2442170  74.7472260
  67.4071220  33.1836610  74.0977780  61.0149750  29.2784250  72.9540500
  61.4524620  29.8213920  73.6098080  61.4997480  28.4531200  72.9636840
  58.2295550  32.0673280  80.4060760  58.5598560  31.1994340  80.1739400
  58.6586550  32.2731800  81.2365720  62.8257470  30.3982290  78.0662730
  62.5253010  30.2747260  78.9666640  62.7194960  29.5390880  77.6578460
  58.7185760  32.9343870  83.1442390  58.2816750  33.1144670  83.9766540
  59.2863440  33.6918490  83.0024110  75.5949390  30.1778690  72.7689410
  74.7642350  30.2455340  73.2396640  75.7721220  31.0682810  72.4656270
  75.0505850  26.9226170  75.2723610  75.8124760  27.4922820  75.3783300
  75.0660220  26.3553370  76.0431920  58.5510190  25.4464100  79.5031270
  57.8959030  25.1775740  78.8590970  59.3888140  25.3368580  79.0533250
  76.0565820  27.7776270  80.1165540  76.4274650  26.9943590  79.7101510
  76.6967750  28.4665370  79.9382840  73.0399580  29.1612850  85.5295860
  72.2259420  29.5910010  85.7921650  73.4473780  29.7731260  84.9164910
  75.1025020  27.2160540  72.4296130  75.3773860  28.1239420  72.3015350
  74.9135760  27.1523070  73.3658120  71.5000630  20.2405390  73.7249760
  71.9185510  20.0536370  72.8846420  71.1936690  19.3884440  74.0352690
  74.9990360  25.1529530  77.4225560  74.6233960  24.3857460  76.9906850
  74.2693480  25.5352230  77.9100490  59.5886120  25.8316670  84.0434610
  59.9559160  25.7444070  84.9230630  59.0196940  25.0683220  83.9441470
  57.7648270  22.6563030  75.4456600  56.8612350  22.9193230  75.2708260
  58.2488890  22.9274200  74.6656560  74.2741320  23.3787020  80.7232800
  74.7978800  22.8849670  80.0922970  74.8600740  23.5137380  81.4680370
  74.4531040  23.4626890  84.2452350  73.5033750  23.4290430  84.3597340
  74.6344050  24.3727000  84.0102120  60.3075480  21.7128570  73.3550980
  61.0167180  21.2911790  72.8698260  59.5915420  21.7803800  72.7234330
  59.9549640  17.7667900  72.3953630  60.6777770  18.3076840  72.7134850
  60.2274160  17.4931320  71.5195170  73.7641290  22.6360370  76.6625210
  74.2600410  22.4031240  77.4474090  73.5657360  21.7972210  76.2462850
  59.6441830  17.0174090  82.2976250  60.2918020  16.4671470  81.8571410
  60.0643670  17.2717240  83.1192060  75.1928450  21.2721320  79.1962890
  75.0827730  21.1177360  80.1345160  75.9536040  20.7442260  78.9538300
  76.0818720  19.1029240  72.4369030  77.0068030  18.9710420  72.2287320
  76.0594510  19.1822060  73.3905480  76.1557210  19.8739900  75.0625740
  75.3608710  19.8085020  75.5918650  76.3600490  20.8090540  75.0511090
  73.0975630  33.9131450  79.0564130  73.6934700  33.5916020  78.3798550
  73.3553780  33.4403270  79.8477400  59.3973830  17.1729760  85.0401570
  59.0488650  17.6293580  85.8059750  59.0661530  16.2786890  85.1224000
  64.7044230  31.9008950  84.8064480  64.4635590  32.1683510  83.9195000
  65.6446870  32.0714680  84.8615340  70.2881250  16.5843840  84.5282570
  69.4141090  16.9178950  84.3255500  70.1792000  16.1117020  85.3534440
  71.1953230  18.7914710  85.9124290  70.8666590  17.9766470  85.5326020
  72.1435530  18.7484520  85.7889980  73.6487840  34.5626750  82.8861860
  73.1890810  35.3142560  82.5119880  73.0200300  33.8433220  82.8276660
  60.4738460  30.6569990  85.2760580  59.7472520  30.0375280  85.2086530
  60.5347610  31.0510600  84.4058660  64.0783560  32.8714990  82.0609990
  64.5948580  32.2602350  81.5358250  64.7280940  33.3743770  82.5521000
  66.8179060  33.7623480  82.8878970  67.1056870  33.5077780  82.0111980
  67.3302280  33.2100840  83.4784540  68.0356070  17.5013680  83.4675480
  67.2527860  17.9759180  83.7472240  67.7419000  16.5968510  83.3588660
  72.5877140  18.2036780  81.5124570  73.0285230  18.1481880  80.6646170
  72.3184730  19.1194790  81.5834750  74.4515710  17.8352020  79.5233390
  74.3904110  16.8913240  79.3764410  75.2307740  17.9432110  80.0686850
  58.7568460  33.9744380  78.4857340  58.5890500  33.3415060  79.1839230
  57.8902970  34.1803780  78.1351530  59.3796480  17.8061160  75.9889200
  60.1375840  17.9190040  75.4153230  58.9173650  18.6430360  75.9432630
  65.9210290  19.9200430  78.9791510  65.1084800  19.5457320  78.6387390
  66.4251930  19.1645510  79.2812700  70.4235270  16.5842880  80.2174580
  71.0264640  17.1563090  80.6923100  69.6828260  17.1482320  79.9948480
  73.5669870  16.9864440  75.4914860  73.7620500  17.8847890  75.7582290
  72.7799740  16.7551520  75.9847810  60.3631160  32.6677610  75.9307480
  59.8378780  33.0485640  75.2269440  60.2875740  33.2928380  76.6517190
  61.7521630  18.3325210  74.5291170  62.2814390  17.5455010  74.3999120
  62.3849950  19.0116400  74.7626700  63.9459470  18.0700350  77.5836560
  63.3162210  17.3687660  77.7506690  63.4064610  18.8304480  77.3669720
  75.1196480  34.2265150  77.2521420  75.2948670  33.5402890  76.6082340
  74.4218050  34.7512200  76.8598090  62.9624130  34.6159990  74.8056730
  63.6942950  34.3319270  74.2580620  63.2217800  34.3773270  75.6956110
  62.1238920  30.7324720  74.8103060  61.4947800  31.2009820  75.3588890
  62.2386750  29.8873940  75.2449250  69.5788640  24.7830380  60.9604260
  69.4982690  23.8684990  60.6895970  69.1653060  25.2797450  60.2543970
  67.7106680  26.5609400  62.8413530  66.9348780  26.0809840  63.1312100
  68.3619610  25.8815050  62.6669690  61.7272510  26.8729210  63.7189290
  60.8957390  26.6177920  64.1185800  62.3353490  26.9439980  64.4547210
  71.7314110  30.9669590  61.6212660  71.2695640  30.1956830  61.9499830
  72.5439660  30.9935660  62.1265110  61.7073770  30.9069300  63.9147310
  62.0101810  30.0167040  63.7357530  62.4517360  31.4639520  63.6869560
  60.1364460  21.8331100  57.5031680  59.2481160  22.1747070  57.4011560
  60.4205650  21.6331420  56.6112510  58.0997470  24.4336750  63.3871380
  58.6713580  23.6658950  63.3875020  58.0999010  24.7325510  62.4777990
  67.9577420  33.2527600  61.2416650  67.3388860  33.7085100  60.6711090
  68.8129200  33.4079060  60.8406350  67.1515670  29.2366590  62.8483690
  67.0823950  28.2956530  62.6872820  67.9135530  29.3268000  63.4206260
  59.3422340  19.8421110  65.1740310  59.1625180  18.9446860  65.4543070
  58.9402420  20.3892980  65.8487260  68.1820840  22.0436970  63.0752620
  68.5585660  21.1708850  62.9626290  68.0840350  22.3795670  62.1843060
  62.3125850  20.4162600  58.5370060  62.4192600  21.3166330  58.8438820
  61.4018210  20.3680570  58.2464710  71.9644960  19.5387410  60.0080960
  72.7854580  19.0483980  60.0506440  71.9979040  20.1285070  60.7612800
  59.9609010  22.3381610  63.7822650  60.6419120  22.6019980  64.4010050
  59.6457060  21.4982480  64.1160660  64.1533580  23.3848970  62.8695240
  64.6611800  23.8829940  63.5100260  64.6846820  22.6084170  62.6934600
  76.2544510  21.5554160  66.5724590  75.5496680  21.9435870  66.0539700
  76.5202430  22.2504450  67.1745520  62.4369680  18.0247530  67.1358660
  62.4388120  18.5419920  66.3304560  61.6073990  17.5477710  67.1128590
  68.8240770  28.1366840  58.6348560  68.2058040  28.6016290  58.0711280
  69.3364020  28.8294320  59.0518070  63.6872530  27.6642710  65.3132160
  63.3541910  28.2911630  65.9553230  63.8639210  28.1904590  64.5333830
  72.2006440  21.4787790  62.7808500  71.4962010  21.7672680  63.3611610
  72.5618600  22.2887900  62.4208060  62.1185010  19.7357490  65.1429110
  62.4601820  20.5799540  64.8482980  61.1800820  19.8841230  65.2594450
  62.8991630  29.6323510  67.1281340  63.5165630  30.3074590  66.8465790
  62.0384750  30.0411490  67.0368840  58.1923970  28.8223370  56.0088190
  57.8151950  29.3110470  55.2773090  58.4497040  29.4948650  56.6394720
  73.8169220  31.0962920  65.0435980  73.1332740  31.7662030  65.0352650
  74.3563510  31.2943570  64.2780840  75.2693360  20.9242580  63.1717710
  74.3218270  20.9581560  63.3033140  75.5943350  21.7381530  63.5567070
  65.8012900  17.2239760  61.4673700  66.1087880  16.6686650  60.7509200
  64.8713600  17.3584220  61.2846690  71.3527960  32.9407050  63.7581160
  71.3655120  32.5369340  62.8903420  70.8003180  33.7154340  63.6542590
  72.6473380  29.6623270  58.8471330  72.5369710  28.7197600  58.9720750
  72.6441630  30.0238910  59.7334090  70.7513400  27.8436890  65.0863770
  71.1682190  27.6297000  64.2517230  71.4753220  28.1009680  65.6572390
  68.1893660  25.2888590  58.2033820  67.2622940  25.2225970  58.4322290
  68.3418480  26.2268720  58.0889060  68.1762740  21.5605590  55.2000980
  67.2366410  21.7219550  55.2853440  68.4946000  22.2791270  54.6536970
  74.6975500  26.2424110  65.1780010  73.8694130  26.3117200  64.7030140
  75.2925980  26.8278420  64.7095840  72.2190950  26.8508890  58.7069070
  71.6003370  26.5128440  58.0595370  72.2015400  26.2068650  59.4148260
  71.6617510  23.0293430  66.1234880  71.2488690  23.8547140  66.3774870
  70.9293460  22.4438470  65.9311240  63.7950300  25.8153330  60.9853550
  63.3907300  25.1030580  60.4899450  63.8813420  25.4706570  61.8741590
  64.2632000  29.5020890  63.1492760  63.9660290  28.8966360  62.4700540
  65.2131820  29.5398200  63.0382120  62.5078920  22.5896540  64.7652590
  63.0593510  22.6991880  63.9905840  63.0222430  22.9634140  65.4807820
  72.3517610  33.0752760  66.8115860  71.8748170  33.8824950  66.6188470
  71.6679400  32.4231090  66.9642070  63.3550430  29.2402580  69.8000560
  62.4578960  29.4642550  70.0473960  63.3803300  29.3637520  68.8511960
  70.3955650  26.0895700  55.7141820  70.8348930  25.2518130  55.5679640
  71.1084070  26.7225100  55.8005960  62.1821650  26.1115900  68.3757930
  62.0429420  26.9838700  68.7445330  61.3003010  25.7688710  68.2305870
  68.5051030  31.0291770  59.6823060  68.9446940  31.7716100  59.2678450
  68.4437920  31.2718340  60.6062020  63.9802000  32.0537600  70.5843080
  63.9517430  32.4580550  69.7171510  63.8166970  31.1247960  70.4214680
  73.9772790  17.3438510  54.0282860  73.6645450  17.4365340  54.9281930
  74.7385260  17.9219540  53.9780290  60.4954930  24.7098310  58.4860200
  60.3752530  25.4360400  57.8741470  60.1855820  23.9401220  58.0088110
  75.9316820  32.8364700  71.8807250  76.4076540  33.3147590  72.5596330
  76.5523980  32.7682190  71.1552750  58.1340300  27.8813450  64.2928840
  58.2120720  28.0162220  63.3484560  58.7481980  27.1729340  64.4856960
  59.3787930  29.5813640  60.7035020  58.9716010  29.7228230  59.8488620
  60.2700940  29.2973800  60.5006230  75.3350070  30.0277550  69.0407260
  75.4613130  29.7889430  68.1224440  75.3771450  29.1962090  69.5129340
  69.1966810  33.7305550  67.6102070  69.7111480  33.6413560  68.4124500
  68.3535890  34.0765250  67.9029980  71.1721210  34.0160890  57.0386070
  71.0122350  33.7263830  57.9367900  71.0067920  33.2401020  56.5031300
  63.6509590  33.7959420  58.8157690  63.4752070  32.8794960  58.6025490
  62.7965330  34.1546710  59.0555490  70.8747340  31.5248450  55.5984070
  70.1812500  31.5225740  54.9386350  71.6170200  31.1007770  55.1678240
  70.4397270  33.1511160  59.6732560  70.8954220  32.3700540  59.9871180
  70.7789790  33.8617980  60.2173740  75.1874080  22.0810010  70.0057000
  74.5718350  22.5889680  69.4772460  74.8670500  21.1808340  69.9482940
  58.1899820  28.9227620  66.8323300  58.3530860  28.4532980  66.0142670
  58.6552270  28.4151180  67.4972140  62.9618590  18.0533380  61.8683870
  62.5186740  18.8342920  61.5368390  63.5203580  18.3763270  62.5754810
  67.2488400  20.9201900  67.4719190  66.7867770  21.1284920  68.2839130
  66.8466510  20.1061250  67.1689860  72.2492910  22.1410850  68.6015850
  71.3986500  21.8416600  68.9224920  72.0894700  22.3852860  67.6899670
  69.3442620  23.6412600  70.7014640  69.6696030  22.8076350  70.3616870
  70.1322950  24.1641120  70.8492970  66.0777410  17.6744080  56.7489700
  65.4531590  17.6703950  57.4743010  65.9907530  16.8075040  56.3525670
  64.9994490  18.5980710  63.7273470  65.2966820  19.5043540  63.6465490
  65.5480050  18.1099490  63.1133040  62.7532810  23.1766950  59.5965120
  62.5273730  22.9604120  60.5011740  61.9725340  23.6095410  59.2511090
  69.9830570  23.1830320  58.1955770  69.3839460  23.9066120  58.0119390
  70.5310180  23.1207100  57.4132220  65.1932020  24.0752530  70.2625390
  65.0975620  23.1347260  70.1125790  66.0364000  24.2967600  69.8673460
  68.5895440  21.8193860  60.2259050  68.9825010  22.1366060  59.4127740
  68.9512290  20.9405740  60.3403570  60.3242560  20.4866200  68.4159170
  59.9305950  21.3341410  68.6231950  59.6360960  19.8492570  68.6067810
  66.8987610  20.5701170  71.4855910  66.2085930  20.3773370  72.1202000
  67.6419910  20.8535810  72.0180210  57.6259610  18.4094660  62.4489250
  57.3372660  18.9797520  63.1614230  58.3705370  17.9299110  62.8120480
  57.8129840  22.3514780  53.6591970  57.7304510  23.2945540  53.8006960
  57.4612900  22.2089690  52.7804320  69.1750580  24.4099610  64.3209830
  68.4431700  24.9186420  64.6699930  68.7774920  23.5929590  64.0198610
  65.6127970  21.0853810  62.7262320  65.6164030  20.6443760  61.8766860
  66.5079090  21.4071140  62.8334140  61.4630350  20.9680300  61.6856530
  61.1230400  21.4455530  62.4423580  60.7007670  20.5145420  61.3257630
  65.6748120  22.0865890  55.7169080  65.7960940  22.0452370  56.6654900
  65.2896630  22.9490040  55.5615810  69.6376490  19.8633290  63.7332770
  69.6549230  20.3141940  64.5774620  69.3892070  18.9638930  63.9466210
  64.6869620  24.3967030  55.1152380  64.1186520  23.9485280  54.4888290
  65.3958620  24.7559810  54.5817530  73.0647240  17.2765470  69.5719150
  73.3893010  16.5455130  70.0977130  73.1003750  16.9579110  68.6700140
  59.7638800  28.2979050  68.9919110  59.3793590  27.6572720  69.5902070
  60.0750990  29.0015170  69.5613840  65.9135940  25.1455590  64.4727730
  66.2806070  24.6714160  65.2189070  65.7241000  26.0197160  64.8136070
  58.7776430  19.8899280  60.6021200  58.4923350  19.5254950  61.4399820
  58.7155290  19.1579740  59.9884340  63.7035310  24.1864230  66.7911940
  63.3992380  25.0656210  67.0162300  64.6581770  24.2464020  66.8269380
  62.2317100  28.3925220  57.3878790  61.4579360  27.8522840  57.2277510
  62.9611730  27.8731830  57.0496550  72.9905080  27.3890580  63.1805180
  73.7104200  27.8845870  62.7901290  72.7886900  26.7108470  62.5359050
  68.4515020  18.7828540  57.3234570  67.6379630  18.2841710  57.2479880
  68.2576970  19.6226790  56.9070920  68.3723880  27.4599640  69.0674180
  68.3061190  26.5395310  68.8131770  67.7429020  27.5575080  69.7818820
  71.1663410  23.1548190  55.6196730  72.0543030  23.4665420  55.4448070
  71.1368500  22.2820440  55.2277310  62.2754500  28.0605600  61.0257600
  62.7933170  27.2573860  60.9714490  61.8238520  27.9984740  61.8674430
  67.1624000  29.3271880  56.2984900  67.5039700  30.0714110  55.8028220
  66.3336710  29.6403000  56.6609730  59.7599040  25.0266970  67.9383300
  59.4013980  25.6920820  68.5256640  59.4653600  24.1950520  68.3095920
  62.9612160  25.4851210  70.8222850  62.6612300  25.6308390  69.9250670
  63.7323400  24.9256500  70.7296240  68.3040610  30.2820210  68.8177980
  68.3185150  29.3501170  68.5996890  67.5965710  30.3679970  69.4567750
  73.4377680  24.4660030  55.0876590  73.3541400  24.8974250  54.2373030
  74.1571870  24.9258380  55.5203410  74.5151820  26.9227550  68.1646560
  73.7900010  27.5156330  67.9675950  75.0427280  26.9151090  67.3659930
  74.4664930  31.3202290  57.8158720  73.8241090  30.6657910  58.0902440
  74.0795590  31.7257380  57.0399390  70.0451410  28.6487720  61.6630410
  70.3975230  28.0515850  61.0031780  69.1613740  28.3231950  61.8338660
  66.1314690  29.4085410  59.0700820  66.8185820  29.9554620  59.4508410
  65.3447110  29.9526140  59.1050430  58.2707090  25.0258230  54.5617900
  59.1401940  25.3083030  54.8453820  57.7797410  25.8394100  54.4466710
  65.4341900  26.4131440  58.6826180  65.8904680  27.2236690  58.9086370
  65.0830110  26.0954580  59.5144670  67.7374510  31.9237780  65.9118480
  68.3816730  32.1297160  66.5891900  68.1003950  31.1626180  65.4589330
  61.3353680  16.7569090  59.1548700  61.2068310  16.7486990  60.1033620
  60.5115700  17.0952180  58.8039710  69.0106590  29.9270130  64.6295930
  69.6528820  29.2263290  64.7428100  69.5355940  30.7068570  64.4492820
  72.8562310  30.2118750  54.3535070  72.6299890  29.4949190  54.9459710
  72.4658510  29.9631190  53.5156820  70.7844210  30.7265030  67.8331990
  71.1200450  31.3131720  68.5109910  69.8644550  30.5957740  68.0629780
  58.6378340  34.2385610  55.1279530  58.9975980  34.8374950  54.4736800
  58.4970680  34.7845500  55.9014560  58.3347610  18.5160210  68.6155400
  57.6206130  18.7157130  69.2208010  58.7542650  17.7399780  68.9870200
  72.4378560  28.1290690  56.0149230  72.1500260  28.5903380  56.8027110
  73.2330730  27.6688460  56.2833450  58.6220200  32.5040470  69.6021930
  58.7311320  31.5635210  69.4617320  57.9700760  32.7695220  68.9535660
  66.6132790  30.7756360  71.0020050  66.2929660  30.0565600  71.5465740
  65.9391150  31.4511430  71.0756110  64.6546960  31.6216810  55.9453200
  64.6457060  32.3546500  55.3297710  63.7345320  31.3748390  56.0380160
  60.2553600  26.8431700  56.6899960  59.6481550  27.5830600  56.6995260
  60.7302950  26.9331060  55.8638160  69.8286390  21.0082520  66.3656850
  70.1967210  20.1877730  66.6936420  68.9684590  21.0684410  66.7812500
  73.1948420  19.9639460  57.1744410  72.5661580  20.0685130  56.4602640
  72.7000340  20.1836240  57.9638290  67.6406560  31.6845050  54.6078390
  67.7418540  31.4809040  53.6780370  66.7408300  31.4303330  54.8126170
  65.1632450  22.2425410  58.5902290  64.4548600  22.7111750  59.0315900
  65.4476930  21.5847420  59.2247480  66.7888380  23.6622110  66.5894820
  67.2873630  24.1367930  67.2546670  66.9311330  22.7385630  66.7964850
  69.1947880  18.9676070  60.0298080  69.0715660  18.9862200  59.0807590
  70.1432440  19.0155010  60.1496480  66.2824670  34.2031370  59.3026060
  66.5366170  34.1652760  58.3805430  65.3337150  34.0764700  59.2954310
  63.3667470  20.5510490  55.9653000  64.2158000  20.9880640  55.8993190
  62.9998740  20.8630750  56.7925060  73.9955240  19.8790070  67.4323210
  73.4928840  20.6195470  67.7717020  74.8111900  20.2674070  67.1160000
  72.2877250  25.1223250  60.8784570  71.3467390  25.1373480  61.0532260
  72.6021320  24.3359210  61.3244870  62.2658890  26.8042850  54.4388530
  63.0322160  26.6924210  55.0013960  62.3433580  26.1080820  53.7865300
  60.9605650  24.2367920  55.1221420  61.0409240  23.2895430  55.2338820
  61.8525400  24.5674800  55.2282080  74.2902830  32.2932100  62.5538830
  74.4150250  33.1163270  63.0262640  75.1568390  32.0822830  62.2062980
  61.7620360  34.3863310  62.2255960  62.4982840  33.8378770  62.4964530
  62.1461280  35.2519320  62.0861950  58.6465840  30.4536880  58.0997470
  57.7205620  30.6958020  58.0902880  59.1122270  31.2811140  57.9782220
  60.7678640  33.5709380  71.4141540  61.5691370  33.8921430  71.8276940
  60.2530460  33.2104960  72.1361450  64.8722670  33.5593620  54.0481530
  65.6651280  33.8482450  53.5963320  64.3527020  33.1285790  53.3694010
  69.6043270  29.6789250  71.3616950  68.9981430  29.7020850  70.6212700
  69.2997380  28.9472290  71.8984200  71.0343640  33.4069540  69.9726360
  71.9865390  33.3227560  69.9226600  70.8871860  34.0711250  70.6460150
  73.9252840  32.7863750  55.4718270  73.6394350  32.3728890  54.6572450
  73.7272390  33.7151460  55.3518790  58.4876450  26.0582840  70.3577590
  58.9915470  25.4790120  70.9293820  57.7483870  26.3423070  70.8953960
  65.3900070  28.7797030  53.9123880  65.2850710  28.1649380  54.6385260
  65.2224290  28.2562920  53.1286890  65.5414390  27.4653830  69.8913110
  64.7760060  28.0338830  69.8067780  65.7230350  27.1730040  68.9981340
  68.6302800  27.8417060  54.5165870  68.0812900  28.2886360  55.1608610
  69.2522060  27.3366310  55.0403540  72.6837740  29.1959160  70.4488130
  73.4247210  29.5334920  69.9455590  71.9210420  29.3651220  69.8957900
  60.5199530  24.2012430  71.2527660  60.5604870  23.9026300  72.1612890
  61.3745030  24.6020040  71.0935180  64.2977920  26.8007980  56.4131170
  64.7194340  26.6347850  57.2562560  64.4228760  25.9908210  55.9186310
  62.4605340  22.7804530  69.2202150  61.9301800  22.2895480  68.5925490
  63.1293410  23.2088730  68.6860080  66.8105560  25.8245590  53.6608270
  67.3311220  25.1094610  53.2949420  67.4573960  26.4631460  53.9608780
  71.3583400  27.2473990  68.9843340  71.7724420  27.4019070  69.8333760
  70.4234400  27.3729210  69.1469120  71.8305570  24.5870150  70.9882490
  72.4126340  23.8322470  70.9002970  72.0067340  25.1177590  70.2113970
  62.9477640  19.7466900  69.2999440  62.8534510  19.1287650  68.5750310
  62.3675030  20.4733190  69.0729350  65.7139080  18.3040140  66.3326830
  65.2656380  18.3264400  65.4872380  65.0804280  17.9059160  66.9297130
  66.1198630  27.1994470  66.9539270  66.5386740  28.0427200  66.7815510
  65.2007260  27.3366510  66.7246050  68.4562530  24.9310650  68.3377110
  68.5758740  24.3351790  69.0771950  69.3156530  24.9680340  67.9178410
  70.7950430  25.4847840  66.9139620  70.2685650  26.0090460  66.3104760
  71.1381770  26.1175230  67.5449350  63.1936820  22.8741210  53.3589330
  62.9925880  22.0108570  53.7202670  63.0228870  22.7874570  52.4210930
  63.9706050  33.5047480  68.0697000  63.4327140  34.2293540  67.7505700
  64.2240010  33.0277820  67.2794340  65.2231300  21.4732000  69.5952930
  65.8130990  21.1647850  70.2830750  64.4051540  21.0011750  69.7512830
  70.0424730  21.0897810  69.8285950  69.3540250  20.4279350  69.7635940
  70.7630750  20.6436080  70.2734410  70.6725130  17.6849440  55.8876210
  70.9527420  16.8417340  56.2435630  69.8990860  17.9172550  56.4014960
  61.9919620  19.9741830  53.3467210  62.2945520  19.9809260  52.4386360
  62.7314210  19.6239690  53.8434870  66.8268260  34.7398690  68.3283650
  66.7526960  35.6433830  68.6356020  65.9247100  34.4210590  68.3005720
  65.2104550  18.9176450  54.3323410  64.8626550  18.2400440  53.7525860
  65.4117320  18.4565960  55.1466800  67.3753590  33.9057200  55.9510010
  68.2704380  34.2442170  55.9728770  67.4071220  33.1836610  55.3234290
  61.0149750  29.2784250  54.1797010  61.4524620  29.8213920  54.8354590
  61.4997480  28.4531200  54.1893350  58.2295550  32.0673280  61.6317270
  58.5598560  31.1994340  61.3995910  58.6586550  32.2731800  62.4622230
  62.8257470  30.3982290  59.2919240  62.5253010  30.2747260  60.1923150
  62.7194960  29.5390880  58.8834970  58.7185760  32.9343870  64.3698900
  58.2816750  33.1144670  65.2023050  59.2863440  33.6918490  64.2280620
  74.3547940  32.4360870  68.6576210  73.7549930  32.4953430  67.9140130
  74.4841840  31.4965850  68.7873060  75.5949390  30.1778690  53.9945920
  74.7642350  30.2455340  54.4653150  75.7721220  31.0682810  53.6912780
  75.0505850  26.9226170  56.4980120  75.8124760  27.4922820  56.6039810
  75.0660220  26.3553370  57.2688430  58.5510190  25.4464100  60.7287780
  57.8959030  25.1775740  60.0847480  59.3888140  25.3368580  60.2789760
  76.0565820  27.7776270  61.3422050  76.4274650  26.9943590  60.9358020
  76.6967750  28.4665370  61.1639350  73.0399580  29.1612850  66.7552370
  72.2259420  29.5910010  67.0178160  73.4473780  29.7731260  66.1421420
  75.1025020  27.2160540  53.6552640  75.3773860  28.1239420  53.5271860
  74.9135760  27.1523070  54.5914630  71.5000630  20.2405390  54.9506270
  71.9185510  20.0536370  54.1102930  71.1936690  19.3884440  55.2609200
  74.9990360  25.1529530  58.6482070  74.6233960  24.3857460  58.2163360
  74.2693480  25.5352230  59.1357000  59.5886120  25.8316670  65.2691120
  59.9559160  25.7444070  66.1487140  59.0196940  25.0683220  65.1697980
  74.3889980  24.3001050  68.2821590  74.1576070  24.0713800  67.3819540
  74.6494530  25.2200600  68.2366480  59.1402120  22.7425760  69.1749540
  58.2458170  22.7092520  69.5143250  59.6799670  22.9412550  69.9400790
  72.8278050  19.5257480  71.0601290  73.7048230  19.5340880  71.4435290
  72.8398890  18.7888320  70.4493640  57.7648270  22.6563030  56.6713110
  56.8612350  22.9193230  56.4964770  58.2488890  22.9274200  55.8913070
  74.2741320  23.3787020  61.9489310  74.7978800  22.8849670  61.3179480
  74.8600740  23.5137380  62.6936880  74.4531040  23.4626890  65.4708860
  73.5033750  23.4290430  65.5853850  74.6344050  24.3727000  65.2358630
  60.3075480  21.7128570  54.5807490  61.0167180  21.2911790  54.0954770
  59.5915420  21.7803800  53.9490840  59.9549640  17.7667900  53.6210140
  60.6777770  18.3076840  53.9391360  60.2274160  17.4931320  52.7451680
  73.7641290  22.6360370  57.8881720  74.2600410  22.4031240  58.6730600
  73.5657360  21.7972210  57.4719360  59.6441830  17.0174090  63.5232760
  60.2918020  16.4671470  63.0827920  60.0643670  17.2717240  64.3448570
  75.1928450  21.2721320  60.4219400  75.0827730  21.1177360  61.3601670
  75.9536040  20.7442260  60.1794810  73.5394170  17.2115450  66.8802400
  74.1766390  17.8249590  67.2461590  73.6869060  17.2476110  65.9351630
  76.0818720  19.1029240  53.6625540  77.0068030  18.9710420  53.4543830
  76.0594510  19.1822060  54.6161990  76.1557210  19.8739900  56.2882250
  75.3608710  19.8085020  56.8175160  76.3600490  20.8090540  56.2767600
  73.0975630  33.9131450  60.2820640  73.6934700  33.5916020  59.6055060
  73.3553780  33.4403270  61.0733910  59.3973830  17.1729760  66.2658080
  59.0488650  17.6293580  67.0316260  59.0661530  16.2786890  66.3480510
  61.0038200  30.3449360  70.4311270  60.9607830  29.9742270  71.3125730
  61.1349210  31.2826930  70.5713090  64.7044230  31.9008950  66.0320990
  64.4635590  32.1683510  65.1451510  65.6446870  32.0714680  66.0871850
  66.9098650  18.3641640  69.7877500  66.8487540  18.9563470  70.5372910
  67.8499030  18.2567600  69.6427760  69.5473210  18.0211700  69.4269790
  70.1613620  18.3390990  68.7650870  70.0922770  17.5360290  70.0465650
  75.9648390  33.9203330  66.8331630  75.4706670  34.3172200  66.1158760
  75.3561680  33.2952540  67.2268910  60.0694470  16.7005960  69.5408850
  60.6177460  16.5194010  68.7774960  60.1349780  15.9100070  70.0765160
  60.8426230  33.2911610  67.5509050  60.2486550  33.1596310  68.2899090
  60.8350070  32.4549750  67.0851150  70.2881250  16.5843840  65.7539080
  69.4141090  16.9178950  65.5512010  70.1792000  16.1117020  66.5790950
  71.1953230  18.7914710  67.1380800  70.8666590  17.9766470  66.7582530
  72.1435530  18.7484520  67.0146490  73.6487840  34.5626750  64.1118370
  73.1890810  35.3142560  63.7376390  73.0200300  33.8433220  64.0533170
  60.4738460  30.6569990  66.5017090  59.7472520  30.0375280  66.4343040
  60.5347610  31.0510600  65.6315170  64.0783560  32.8714990  63.2866500
  64.5948580  32.2602350  62.7614760  64.7280940  33.3743770  63.7777510
  66.8179060  33.7623480  64.1135480  67.1056870  33.5077780  63.2368490
  67.3302280  33.2100840  64.7041050  68.0356070  17.5013680  64.6931990
  67.2527860  17.9759180  64.9728750  67.7419000  16.5968510  64.5845170
  72.5877140  18.2036780  62.7381080  73.0285230  18.1481880  61.8902680
  72.3184730  19.1194790  62.8091260  74.4515710  17.8352020  60.7489900
  74.3904110  16.8913240  60.6020920  75.2307740  17.9432110  61.2943360
  58.7568460  33.9744380  59.7113850  58.5890500  33.3415060  60.4095740
  57.8902970  34.1803780  59.3608040  59.3796480  17.8061160  57.2145710
  60.1375840  17.9190040  56.6409740  58.9173650  18.6430360  57.1689140
  65.9210290  19.9200430  60.2048020  65.1084800  19.5457320  59.8643900
  66.4251930  19.1645510  60.5069210  70.4235270  16.5842880  61.4431090
  71.0264640  17.1563090  61.9179610  69.6828260  17.1482320  61.2204990
  73.5669870  16.9864440  56.7171370  73.7620500  17.8847890  56.9838800
  72.7799740  16.7551520  57.2104320  60.3631160  32.6677610  57.1563990
  59.8378780  33.0485640  56.4525950  60.2875740  33.2928380  57.8773700
  61.7521630  18.3325210  55.7547680  62.2814390  17.5455010  55.6255630
  62.3849950  19.0116400  55.9883210  63.9459470  18.0700350  58.8093070
  63.3162210  17.3687660  58.9763200  63.4064610  18.8304480  58.5926230
  66.8851420  34.6839580  71.4803680  67.8118730  34.4483850  71.5239640
  66.8701850  35.5111580  70.9989710  75.1196480  34.2265150  58.4777930
  75.2948670  33.5402890  57.8338850  74.4218050  34.7512200  58.0854600
  64.0715030  17.3484330  71.2445560  63.7899300  17.8517930  70.4806380
  64.4534730  16.5506080  70.8787690  62.9624130  34.6159990  56.0313240
  63.6942950  34.3319270  55.4837130  63.2217800  34.3773270  56.9212620
  62.1238920  30.7324720  56.0359570  61.4947800  31.2009820  56.5845400
  62.2386750  29.8873940  56.4705760  70.6730490  16.7637910  71.8226030
  70.5595940  17.0832520  72.7177550  71.4900230  17.1650420  71.5263310
  73.4528980  33.9109440  71.3044720  74.2454300  33.4158670  71.0970680
  73.7462130  34.5899580  71.9120330  69.5788640  24.7830380  42.1860770
  69.4982690  23.8684990  41.9152480  69.1653060  25.2797450  41.4800480
  67.7106680  26.5609400  44.0670040  66.9348780  26.0809840  44.3568610
  68.3619610  25.8815050  43.8926200  61.7272510  26.8729210  44.9445800
  60.8957390  26.6177920  45.3442310  62.3353490  26.9439980  45.6803720
  71.7314110  30.9669590  42.8469170  71.2695640  30.1956830  43.1756340
  72.5439660  30.9935660  43.3521620  61.7073770  30.9069300  45.1403820
  62.0101810  30.0167040  44.9614040  62.4517360  31.4639520  44.9126070
  60.1364460  21.8331100  38.7288190  59.2481160  22.1747070  38.6268070
  60.4205650  21.6331420  37.8369020  58.0997470  24.4336750  44.6127890
  58.6713580  23.6658950  44.6131530  58.0999010  24.7325510  43.7034500
  67.9577420  33.2527600  42.4673160  67.3388860  33.7085100  41.8967600
  68.8129200  33.4079060  42.0662860  67.1515670  29.2366590  44.0740200
  67.0823950  28.2956530  43.9129330  67.9135530  29.3268000  44.6462770
  59.3422340  19.8421110  46.3996820  59.1625180  18.9446860  46.6799580
  58.9402420  20.3892980  47.0743770  68.1820840  22.0436970  44.3009130
  68.5585660  21.1708850  44.1882800  68.0840350  22.3795670  43.4099570
  62.3125850  20.4162600  39.7626570  62.4192600  21.3166330  40.0695330
  61.4018210  20.3680570  39.4721220  71.9644960  19.5387410  41.2337470
  72.7854580  19.0483980  41.2762950  71.9979040  20.1285070  41.9869310
  59.9609010  22.3381610  45.0079160  60.6419120  22.6019980  45.6266560
  59.6457060  21.4982480  45.3417170  64.1533580  23.3848970  44.0951750
  64.6611800  23.8829940  44.7356770  64.6846820  22.6084170  43.9191110
  76.2544510  21.5554160  47.7981100  75.5496680  21.9435870  47.2796210
  76.5202430  22.2504450  48.4002030  62.4369680  18.0247530  48.3615170
  62.4388120  18.5419920  47.5561070  61.6073990  17.5477710  48.3385100
  68.8240770  28.1366840  39.8605070  68.2058040  28.6016290  39.2967790
  69.3364020  28.8294320  40.2774580  63.6872530  27.6642710  46.5388670
  63.3541910  28.2911630  47.1809740  63.8639210  28.1904590  45.7590340
  72.2006440  21.4787790  44.0065010  71.4962010  21.7672680  44.5868120
  72.5618600  22.2887900  43.6464570  62.1185010  19.7357490  46.3685620
  62.4601820  20.5799540  46.0739490  61.1800820  19.8841230  46.4850960
  62.8991630  29.6323510  48.3537850  63.5165630  30.3074590  48.0722300
  62.0384750  30.0411490  48.2625350  58.1923970  28.8223370  37.2344700
  57.8151950  29.3110470  36.5029600  58.4497040  29.4948650  37.8651230
  73.8169220  31.0962920  46.2692490  73.1332740  31.7662030  46.2609160
  74.3563510  31.2943570  45.5037350  75.2693360  20.9242580  44.3974220
  74.3218270  20.9581560  44.5289650  75.5943350  21.7381530  44.7823580
  65.8012900  17.2239760  42.6930210  66.1087880  16.6686650  41.9765710
  64.8713600  17.3584220  42.5103200  71.3527960  32.9407050  44.9837670
  71.3655120  32.5369340  44.1159930  70.8003180  33.7154340  44.8799100
  72.6473380  29.6623270  40.0727840  72.5369710  28.7197600  40.1977260
  72.6441630  30.0238910  40.9590600  70.7513400  27.8436890  46.3120280
  71.1682190  27.6297000  45.4773740  71.4753220  28.1009680  46.8828900
  68.1893660  25.2888590  39.4290330  67.2622940  25.2225970  39.6578800
  68.3418480  26.2268720  39.3145570  68.1762740  21.5605590  36.4257490
  67.2366410  21.7219550  36.5109950  68.4946000  22.2791270  35.8793480
  74.6975500  26.2424110  46.4036520  73.8694130  26.3117200  45.9286650
  75.2925980  26.8278420  45.9352350  72.2190950  26.8508890  39.9325580
  71.6003370  26.5128440  39.2851880  72.2015400  26.2068650  40.6404770
  71.6617510  23.0293430  47.3491390  71.2488690  23.8547140  47.6031380
  70.9293460  22.4438470  47.1567750  63.7950300  25.8153330  42.2110060
  63.3907300  25.1030580  41.7155960  63.8813420  25.4706570  43.0998100
  64.2632000  29.5020890  44.3749270  63.9660290  28.8966360  43.6957050
  65.2131820  29.5398200  44.2638630  62.5078920  22.5896540  45.9909100
  63.0593510  22.6991880  45.2162350  63.0222430  22.9634140  46.7064330
  72.3517610  33.0752760  48.0372370  71.8748170  33.8824950  47.8444980
  71.6679400  32.4231090  48.1898580  63.3550430  29.2402580  51.0257070
  62.4578960  29.4642550  51.2730470  63.3803300  29.3637520  50.0768470
  70.3955650  26.0895700  36.9398330  70.8348930  25.2518130  36.7936150
  71.1084070  26.7225100  37.0262470  62.1821650  26.1115900  49.6014440
  62.0429420  26.9838700  49.9701840  61.3003010  25.7688710  49.4562380
  68.5051030  31.0291770  40.9079570  68.9446940  31.7716100  40.4934960
  68.4437920  31.2718340  41.8318530  63.9802000  32.0537600  51.8099590
  63.9517430  32.4580550  50.9428020  63.8166970  31.1247960  51.6471190
  73.9772790  17.3438510  35.2539370  73.6645450  17.4365340  36.1538440
  74.7385260  17.9219540  35.2036800  60.4954930  24.7098310  39.7116710
  60.3752530  25.4360400  39.0997980  60.1855820  23.9401220  39.2344620
  75.9316820  32.8364700  53.1063760  76.4076540  33.3147590  53.7852840
  76.5523980  32.7682190  52.3809260  58.1340300  27.8813450  45.5185350
  58.2120720  28.0162220  44.5741070  58.7481980  27.1729340  45.7113470
  59.3787930  29.5813640  41.9291530  58.9716010  29.7228230  41.0745130
  60.2700940  29.2973800  41.7262740  75.3350070  30.0277550  50.2663770
  75.4613130  29.7889430  49.3480950  75.3771450  29.1962090  50.7385850
  69.1966810  33.7305550  48.8358580  69.7111480  33.6413560  49.6381010
  68.3535890  34.0765250  49.1286490  71.1721210  34.0160890  38.2642580
  71.0122350  33.7263830  39.1624410  71.0067920  33.2401020  37.7287810
  63.6509590  33.7959420  40.0414200  63.4752070  32.8794960  39.8282000
  62.7965330  34.1546710  40.2812000  70.8747340  31.5248450  36.8240580
  70.1812500  31.5225740  36.1642860  71.6170200  31.1007770  36.3934750
  70.4397270  33.1511160  40.8989070  70.8954220  32.3700540  41.2127690
  70.7789790  33.8617980  41.4430250  75.1874080  22.0810010  51.2313510
  74.5718350  22.5889680  50.7028970  74.8670500  21.1808340  51.1739450
  58.1899820  28.9227620  48.0579810  58.3530860  28.4532980  47.2399180
  58.6552270  28.4151180  48.7228650  62.9618590  18.0533380  43.0940380
  62.5186740  18.8342920  42.7624900  63.5203580  18.3763270  43.8011320
  67.2488400  20.9201900  48.6975700  66.7867770  21.1284920  49.5095640
  66.8466510  20.1061250  48.3946370  72.2492910  22.1410850  49.8272360
  71.3986500  21.8416600  50.1481430  72.0894700  22.3852860  48.9156180
  69.3442620  23.6412600  51.9271150  69.6696030  22.8076350  51.5873380
  70.1322950  24.1641120  52.0749480  66.0777410  17.6744080  37.9746210
  65.4531590  17.6703950  38.6999520  65.9907530  16.8075040  37.5782180
  64.9994490  18.5980710  44.9529980  65.2966820  19.5043540  44.8722000
  65.5480050  18.1099490  44.3389550  62.7532810  23.1766950  40.8221630
  62.5273730  22.9604120  41.7268250  61.9725340  23.6095410  40.4767600
  69.9830570  23.1830320  39.4212280  69.3839460  23.9066120  39.2375900
  70.5310180  23.1207100  38.6388730  65.1932020  24.0752530  51.4881900
  65.0975620  23.1347260  51.3382300  66.0364000  24.2967600  51.0929970
  68.5895440  21.8193860  41.4515560  68.9825010  22.1366060  40.6384250
  68.9512290  20.9405740  41.5660080  60.3242560  20.4866200  49.6415680
  59.9305950  21.3341410  49.8488460  59.6360960  19.8492570  49.8324320
  66.8987610  20.5701170  52.7112420  66.2085930  20.3773370  53.3458510
  67.6419910  20.8535810  53.2436720  57.6259610  18.4094660  43.6745760
  57.3372660  18.9797520  44.3870740  58.3705370  17.9299110  44.0376990
  57.8129840  22.3514780  34.8848480  57.7304510  23.2945540  35.0263470
  57.4612900  22.2089690  34.0060830  69.1750580  24.4099610  45.5466340
  68.4431700  24.9186420  45.8956440  68.7774920  23.5929590  45.2455120
  65.6127970  21.0853810  43.9518830  65.6164030  20.6443760  43.1023370
  66.5079090  21.4071140  44.0590650  61.4630350  20.9680300  42.9113040
  61.1230400  21.4455530  43.6680090  60.7007670  20.5145420  42.5514140
  65.6748120  22.0865890  36.9425590  65.7960940  22.0452370  37.8911410
  65.2896630  22.9490040  36.7872320  69.6376490  19.8633290  44.9589280
  69.6549230  20.3141940  45.8031130  69.3892070  18.9638930  45.1722720
  64.6869620  24.3967030  36.3408890  64.1186520  23.9485280  35.7144800
  65.3958620  24.7559810  35.8074040  73.0647240  17.2765470  50.7975660
  73.3893010  16.5455130  51.3233640  73.1003750  16.9579110  49.8956650
  59.7638800  28.2979050  50.2175620  59.3793590  27.6572720  50.8158580
  60.0750990  29.0015170  50.7870350  65.9135940  25.1455590  45.6984240
  66.2806070  24.6714160  46.4445580  65.7241000  26.0197160  46.0392580
  58.7776430  19.8899280  41.8277710  58.4923350  19.5254950  42.6656330
  58.7155290  19.1579740  41.2140850  63.7035310  24.1864230  48.0168450
  63.3992380  25.0656210  48.2418810  64.6581770  24.2464020  48.0525890
  62.2317100  28.3925220  38.6135300  61.4579360  27.8522840  38.4534020
  62.9611730  27.8731830  38.2753060  72.9905080  27.3890580  44.4061690
  73.7104200  27.8845870  44.0157800  72.7886900  26.7108470  43.7615560
  68.4515020  18.7828540  38.5491080  67.6379630  18.2841710  38.4736390
  68.2576970  19.6226790  38.1327430  68.3723880  27.4599640  50.2930690
  68.3061190  26.5395310  50.0388280  67.7429020  27.5575080  51.0075330
  71.1663410  23.1548190  36.8453240  72.0543030  23.4665420  36.6704580
  71.1368500  22.2820440  36.4533820  62.2754500  28.0605600  42.2514110
  62.7933170  27.2573860  42.1971000  61.8238520  27.9984740  43.0930940
  67.1624000  29.3271880  37.5241410  67.5039700  30.0714110  37.0284730
  66.3336710  29.6403000  37.8866240  59.7599040  25.0266970  49.1639810
  59.4013980  25.6920820  49.7513150  59.4653600  24.1950520  49.5352430
  62.9612160  25.4851210  52.0479360  62.6612300  25.6308390  51.1507180
  63.7323400  24.9256500  51.9552750  68.3040610  30.2820210  50.0434490
  68.3185150  29.3501170  49.8253400  67.5965710  30.3679970  50.6824260
  73.4377680  24.4660030  36.3133100  73.3541400  24.8974250  35.4629540
  74.1571870  24.9258380  36.7459920  74.5151820  26.9227550  49.3903070
  73.7900010  27.5156330  49.1932460  75.0427280  26.9151090  48.5916440
  74.4664930  31.3202290  39.0415230  73.8241090  30.6657910  39.3158950
  74.0795590  31.7257380  38.2655900  70.0451410  28.6487720  42.8886920
  70.3975230  28.0515850  42.2288290  69.1613740  28.3231950  43.0595170
  66.1314690  29.4085410  40.2957330  66.8185820  29.9554620  40.6764920
  65.3447110  29.9526140  40.3306940  58.2707090  25.0258230  35.7874410
  59.1401940  25.3083030  36.0710330  57.7797410  25.8394100  35.6723220
  65.4341900  26.4131440  39.9082690  65.8904680  27.2236690  40.1342880
  65.0830110  26.0954580  40.7401180  67.7374510  31.9237780  47.1374990
  68.3816730  32.1297160  47.8148410  68.1003950  31.1626180  46.6845840
  61.3353680  16.7569090  40.3805210  61.2068310  16.7486990  41.3290130
  60.5115700  17.0952180  40.0296220  69.0106590  29.9270130  45.8552440
  69.6528820  29.2263290  45.9684610  69.5355940  30.7068570  45.6749330
  72.8562310  30.2118750  35.5791580  72.6299890  29.4949190  36.1716220
  72.4658510  29.9631190  34.7413330  70.7844210  30.7265030  49.0588500
  71.1200450  31.3131720  49.7366420  69.8644550  30.5957740  49.2886290
  58.6378340  34.2385610  36.3536040  58.9975980  34.8374950  35.6993310
  58.4970680  34.7845500  37.1271070  58.3347610  18.5160210  49.8411910
  57.6206130  18.7157130  50.4464520  58.7542650  17.7399780  50.2126710
  72.4378560  28.1290690  37.2405740  72.1500260  28.5903380  38.0283620
  73.2330730  27.6688460  37.5089960  58.6220200  32.5040470  50.8278440
  58.7311320  31.5635210  50.6873830  57.9700760  32.7695220  50.1792170
  66.6132790  30.7756360  52.2276560  66.2929660  30.0565600  52.7722250
  65.9391150  31.4511430  52.3012620  64.6546960  31.6216810  37.1709710
  64.6457060  32.3546500  36.5554220  63.7345320  31.3748390  37.2636670
  60.2553600  26.8431700  37.9156470  59.6481550  27.5830600  37.9251770
  60.7302950  26.9331060  37.0894670  69.8286390  21.0082520  47.5913360
  70.1967210  20.1877730  47.9192930  68.9684590  21.0684410  48.0069010
  73.1948420  19.9639460  38.4000920  72.5661580  20.0685130  37.6859150
  72.7000340  20.1836240  39.1894800  67.6406560  31.6845050  35.8334900
  67.7418540  31.4809040  34.9036880  66.7408300  31.4303330  36.0382680
  65.1632450  22.2425410  39.8158800  64.4548600  22.7111750  40.2572410
  65.4476930  21.5847420  40.4503990  66.7888380  23.6622110  47.8151330
  67.2873630  24.1367930  48.4803180  66.9311330  22.7385630  48.0221360
  69.1947880  18.9676070  41.2554590  69.0715660  18.9862200  40.3064100
  70.1432440  19.0155010  41.3752990  66.2824670  34.2031370  40.5282570
  66.5366170  34.1652760  39.6061940  65.3337150  34.0764700  40.5210820
  63.3667470  20.5510490  37.1909510  64.2158000  20.9880640  37.1249700
  62.9998740  20.8630750  38.0181570  73.9955240  19.8790070  48.6579720
  73.4928840  20.6195470  48.9973530  74.8111900  20.2674070  48.3416510
  72.2877250  25.1223250  42.1041080  71.3467390  25.1373480  42.2788770
  72.6021320  24.3359210  42.5501380  62.2658890  26.8042850  35.6645040
  63.0322160  26.6924210  36.2270470  62.3433580  26.1080820  35.0121810
  60.9605650  24.2367920  36.3477930  61.0409240  23.2895430  36.4595330
  61.8525400  24.5674800  36.4538590  74.2902830  32.2932100  43.7795340
  74.4150250  33.1163270  44.2519150  75.1568390  32.0822830  43.4319490
  61.7620360  34.3863310  43.4512470  62.4982840  33.8378770  43.7221040
  62.1461280  35.2519320  43.3118460  58.6465840  30.4536880  39.3253980
  57.7205620  30.6958020  39.3159390  59.1122270  31.2811140  39.2038730
  60.7678640  33.5709380  52.6398050  61.5691370  33.8921430  53.0533450
  60.2530460  33.2104960  53.3617960  64.8722670  33.5593620  35.2738040
  65.6651280  33.8482450  34.8219830  64.3527020  33.1285790  34.5950520
  69.6043270  29.6789250  52.5873460  68.9981430  29.7020850  51.8469210
  69.2997380  28.9472290  53.1240710  71.0343640  33.4069540  51.1982870
  71.9865390  33.3227560  51.1483110  70.8871860  34.0711250  51.8716660
  73.9252840  32.7863750  36.6974780  73.6394350  32.3728890  35.8828960
  73.7272390  33.7151460  36.5775300  58.4876450  26.0582840  51.5834100
  58.9915470  25.4790120  52.1550330  57.7483870  26.3423070  52.1210470
  65.3900070  28.7797030  35.1380390  65.2850710  28.1649380  35.8641770
  65.2224290  28.2562920  34.3543400  65.5414390  27.4653830  51.1169620
  64.7760060  28.0338830  51.0324290  65.7230350  27.1730040  50.2237850
  68.6302800  27.8417060  35.7422380  68.0812900  28.2886360  36.3865120
  69.2522060  27.3366310  36.2660050  72.6837740  29.1959160  51.6744640
  73.4247210  29.5334920  51.1712100  71.9210420  29.3651220  51.1214410
  60.5199530  24.2012430  52.4784170  60.5604870  23.9026300  53.3869400
  61.3745030  24.6020040  52.3191690  64.2977920  26.8007980  37.6387680
  64.7194340  26.6347850  38.4819070  64.4228760  25.9908210  37.1442820
  62.4605340  22.7804530  50.4458660  61.9301800  22.2895480  49.8182000
  63.1293410  23.2088730  49.9116590  66.8105560  25.8245590  34.8864780
  67.3311220  25.1094610  34.5205930  67.4573960  26.4631460  35.1865290
  71.3583400  27.2473990  50.2099850  71.7724420  27.4019070  51.0590270
  70.4234400  27.3729210  50.3725630  71.8305570  24.5870150  52.2139000
  72.4126340  23.8322470  52.1259480  72.0067340  25.1177590  51.4370480
  62.9477640  19.7466900  50.5255950  62.8534510  19.1287650  49.8006820
  62.3675030  20.4733190  50.2985860  65.7139080  18.3040140  47.5583340
  65.2656380  18.3264400  46.7128890  65.0804280  17.9059160  48.1553640
  66.1198630  27.1994470  48.1795780  66.5386740  28.0427200  48.0072020
  65.2007260  27.3366510  47.9502560  68.4562530  24.9310650  49.5633620
  68.5758740  24.3351790  50.3028460  69.3156530  24.9680340  49.1434920
  70.7950430  25.4847840  48.1396130  70.2685650  26.0090460  47.5361270
  71.1381770  26.1175230  48.7705860  63.1936820  22.8741210  34.5845840
  62.9925880  22.0108570  34.9459180  63.0228870  22.7874570  33.6467440
  63.9706050  33.5047480  49.2953510  63.4327140  34.2293540  48.9762210
  64.2240010  33.0277820  48.5050850  65.2231300  21.4732000  50.8209440
  65.8130990  21.1647850  51.5087260  64.4051540  21.0011750  50.9769340
  70.0424730  21.0897810  51.0542460  69.3540250  20.4279350  50.9892450
  70.7630750  20.6436080  51.4990920  70.6725130  17.6849440  37.1132720
  70.9527420  16.8417340  37.4692140  69.8990860  17.9172550  37.6271470
  61.9919620  19.9741830  34.5723720  62.2945520  19.9809260  33.6642870
  62.7314210  19.6239690  35.0691380  66.8268260  34.7398690  49.5540160
  66.7526960  35.6433830  49.8612530  65.9247100  34.4210590  49.5262230
  65.2104550  18.9176450  35.5579920  64.8626550  18.2400440  34.9782370
  65.4117320  18.4565960  36.3723310  67.3753590  33.9057200  37.1766520
  68.2704380  34.2442170  37.1985280  67.4071220  33.1836610  36.5490800
  61.0149750  29.2784250  35.4053520  61.4524620  29.8213920  36.0611100
  61.4997480  28.4531200  35.4149860  58.2295550  32.0673280  42.8573780
  58.5598560  31.1994340  42.6252420  58.6586550  32.2731800  43.6878740
  62.8257470  30.3982290  40.5175750  62.5253010  30.2747260  41.4179660
  62.7194960  29.5390880  40.1091480  58.7185760  32.9343870  45.5955410
  58.2816750  33.1144670  46.4279560  59.2863440  33.6918490  45.4537130
  74.3547940  32.4360870  49.8832720  73.7549930  32.4953430  49.1396640
  74.4841840  31.4965850  50.0129570  75.5949390  30.1778690  35.2202430
  74.7642350  30.2455340  35.6909660  75.7721220  31.0682810  34.9169290
  75.0505850  26.9226170  37.7236630  75.8124760  27.4922820  37.8296320
  75.0660220  26.3553370  38.4944940  58.5510190  25.4464100  41.9544290
  57.8959030  25.1775740  41.3103990  59.3888140  25.3368580  41.5046270
  76.0565820  27.7776270  42.5678560  76.4274650  26.9943590  42.1614530
  76.6967750  28.4665370  42.3895860  73.0399580  29.1612850  47.9808880
  72.2259420  29.5910010  48.2434670  73.4473780  29.7731260  47.3677930
  75.1025020  27.2160540  34.8809150  75.3773860  28.1239420  34.7528370
  74.9135760  27.1523070  35.8171140  71.5000630  20.2405390  36.1762780
  71.9185510  20.0536370  35.3359440  71.1936690  19.3884440  36.4865710
  74.9990360  25.1529530  39.8738580  74.6233960  24.3857460  39.4419870
  74.2693480  25.5352230  40.3613510  59.5886120  25.8316670  46.4947630
  59.9559160  25.7444070  47.3743650  59.0196940  25.0683220  46.3954490
  74.3889980  24.3001050  49.5078100  74.1576070  24.0713800  48.6076050
  74.6494530  25.2200600  49.4622990  59.1402120  22.7425760  50.4006050
  58.2458170  22.7092520  50.7399760  59.6799670  22.9412550  51.1657300
  72.8278050  19.5257480  52.2857800  73.7048230  19.5340880  52.6691800
  72.8398890  18.7888320  51.6750150  57.7648270  22.6563030  37.8969620
  56.8612350  22.9193230  37.7221280  58.2488890  22.9274200  37.1169580
  74.2741320  23.3787020  43.1745820  74.7978800  22.8849670  42.5435990
  74.8600740  23.5137380  43.9193390  74.4531040  23.4626890  46.6965370
  73.5033750  23.4290430  46.8110360  74.6344050  24.3727000  46.4615140
  60.3075480  21.7128570  35.8064000  61.0167180  21.2911790  35.3211280
  59.5915420  21.7803800  35.1747350  59.9549640  17.7667900  34.8466650
  60.6777770  18.3076840  35.1647870  60.2274160  17.4931320  33.9708190
  73.7641290  22.6360370  39.1138230  74.2600410  22.4031240  39.8987110
  73.5657360  21.7972210  38.6975870  59.6441830  17.0174090  44.7489270
  60.2918020  16.4671470  44.3084430  60.0643670  17.2717240  45.5705080
  75.1928450  21.2721320  41.6475910  75.0827730  21.1177360  42.5858180
  75.9536040  20.7442260  41.4051320  73.5394170  17.2115450  48.1058910
  74.1766390  17.8249590  48.4718100  73.6869060  17.2476110  47.1608140
  76.0818720  19.1029240  34.8882050  77.0068030  18.9710420  34.6800340
  76.0594510  19.1822060  35.8418500  76.1557210  19.8739900  37.5138760
  75.3608710  19.8085020  38.0431670  76.3600490  20.8090540  37.5024110
  73.0975630  33.9131450  41.5077150  73.6934700  33.5916020  40.8311570
  73.3553780  33.4403270  42.2990420  59.3973830  17.1729760  47.4914590
  59.0488650  17.6293580  48.2572770  59.0661530  16.2786890  47.5737020
  61.0038200  30.3449360  51.6567780  60.9607830  29.9742270  52.5382240
  61.1349210  31.2826930  51.7969600  64.7044230  31.9008950  47.2577500
  64.4635590  32.1683510  46.3708020  65.6446870  32.0714680  47.3128360
  66.9098650  18.3641640  51.0134010  66.8487540  18.9563470  51.7629420
  67.8499030  18.2567600  50.8684270  69.5473210  18.0211700  50.6526300
  70.1613620  18.3390990  49.9907380  70.0922770  17.5360290  51.2722160
  75.9648390  33.9203330  48.0588140  75.4706670  34.3172200  47.3415270
  75.3561680  33.2952540  48.4525420  60.0694470  16.7005960  50.7665360
  60.6177460  16.5194010  50.0031470  60.1349780  15.9100070  51.3021670
  60.8426230  33.2911610  48.7765560  60.2486550  33.1596310  49.5155600
  60.8350070  32.4549750  48.3107660  70.2881250  16.5843840  46.9795590
  69.4141090  16.9178950  46.7768520  70.1792000  16.1117020  47.8047460
  71.1953230  18.7914710  48.3637310  70.8666590  17.9766470  47.9839040
  72.1435530  18.7484520  48.2403000  73.6487840  34.5626750  45.3374880
  73.1890810  35.3142560  44.9632900  73.0200300  33.8433220  45.2789680
  60.4738460  30.6569990  47.7273600  59.7472520  30.0375280  47.6599550
  60.5347610  31.0510600  46.8571680  64.0783560  32.8714990  44.5123010
  64.5948580  32.2602350  43.9871270  64.7280940  33.3743770  45.0034020
  66.8179060  33.7623480  45.3391990  67.1056870  33.5077780  44.4625000
  67.3302280  33.2100840  45.9297560  68.0356070  17.5013680  45.9188500
  67.2527860  17.9759180  46.1985260  67.7419000  16.5968510  45.8101680
  72.5877140  18.2036780  43.9637590  73.0285230  18.1481880  43.1159190
  72.3184730  19.1194790  44.0347770  74.4515710  17.8352020  41.9746410
  74.3904110  16.8913240  41.8277430  75.2307740  17.9432110  42.5199870
  58.7568460  33.9744380  40.9370360  58.5890500  33.3415060  41.6352250
  57.8902970  34.1803780  40.5864550  59.3796480  17.8061160  38.4402220
  60.1375840  17.9190040  37.8666250  58.9173650  18.6430360  38.3945650
  65.9210290  19.9200430  41.4304530  65.1084800  19.5457320  41.0900410
  66.4251930  19.1645510  41.7325720  70.4235270  16.5842880  42.6687600
  71.0264640  17.1563090  43.1436120  69.6828260  17.1482320  42.4461500
  73.5669870  16.9864440  37.9427880  73.7620500  17.8847890  38.2095310
  72.7799740  16.7551520  38.4360830  60.3631160  32.6677610  38.3820500
  59.8378780  33.0485640  37.6782460  60.2875740  33.2928380  39.1030210
  61.7521630  18.3325210  36.9804190  62.2814390  17.5455010  36.8512140
  62.3849950  19.0116400  37.2139720  63.9459470  18.0700350  40.0349580
  63.3162210  17.3687660  40.2019710  63.4064610  18.8304480  39.8182740
  66.8851420  34.6839580  52.7060190  67.8118730  34.4483850  52.7496150
  66.8701850  35.5111580  52.2246220  75.1196480  34.2265150  39.7034440
  75.2948670  33.5402890  39.0595360  74.4218050  34.7512200  39.3111110
  64.0715030  17.3484330  52.4702070  63.7899300  17.8517930  51.7062890
  64.4534730  16.5506080  52.1044200  62.9624130  34.6159990  37.2569750
  63.6942950  34.3319270  36.7093640  63.2217800  34.3773270  38.1469130
  62.1238920  30.7324720  37.2616080  61.4947800  31.2009820  37.8101910
  62.2386750  29.8873940  37.6962270  70.6730490  16.7637910  53.0482540
  70.5595940  17.0832520  53.9434060  71.4900230  17.1650420  52.7519820
  73.4528980  33.9109440  52.5301230  74.2454300  33.4158670  52.3227190
  73.7462130  34.5899580  53.1376840  69.5788640  24.7830380  23.4117280
  69.4982690  23.8684990  23.1408990  69.1653060  25.2797450  22.7056990
  67.7106680  26.5609400  25.2926550  66.9348780  26.0809840  25.5825120
  68.3619610  25.8815050  25.1182710  61.7272510  26.8729210  26.1702310
  60.8957390  26.6177920  26.5698820  62.3353490  26.9439980  26.9060230
  71.7314110  30.9669590  24.0725680  71.2695640  30.1956830  24.4012850
  72.5439660  30.9935660  24.5778130  61.7073770  30.9069300  26.3660330
  62.0101810  30.0167040  26.1870550  62.4517360  31.4639520  26.1382580
  60.1364460  21.8331100  19.9544700  59.2481160  22.1747070  19.8524580
  60.4205650  21.6331420  19.0625530  58.0997470  24.4336750  25.8384400
  58.6713580  23.6658950  25.8388040  58.0999010  24.7325510  24.9291010
  67.9577420  33.2527600  23.6929670  67.3388860  33.7085100  23.1224110
  68.8129200  33.4079060  23.2919370  67.1515670  29.2366590  25.2996710
  67.0823950  28.2956530  25.1385840  67.9135530  29.3268000  25.8719280
  59.3422340  19.8421110  27.6253330  59.1625180  18.9446860  27.9056090
  58.9402420  20.3892980  28.3000280  68.1820840  22.0436970  25.5265640
  68.5585660  21.1708850  25.4139310  68.0840350  22.3795670  24.6356080
  62.3125850  20.4162600  20.9883080  62.4192600  21.3166330  21.2951840
  61.4018210  20.3680570  20.6977730  71.9644960  19.5387410  22.4593980
  72.7854580  19.0483980  22.5019460  71.9979040  20.1285070  23.2125820
  59.9609010  22.3381610  26.2335670  60.6419120  22.6019980  26.8523070
  59.6457060  21.4982480  26.5673680  64.1533580  23.3848970  25.3208260
  64.6611800  23.8829940  25.9613280  64.6846820  22.6084170  25.1447620
  76.2544510  21.5554160  29.0237610  75.5496680  21.9435870  28.5052720
  76.5202430  22.2504450  29.6258540  62.4369680  18.0247530  29.5871680
  62.4388120  18.5419920  28.7817580  61.6073990  17.5477710  29.5641610
  68.8240770  28.1366840  21.0861580  68.2058040  28.6016290  20.5224300
  69.3364020  28.8294320  21.5031090  63.6872530  27.6642710  27.7645180
  63.3541910  28.2911630  28.4066250  63.8639210  28.1904590  26.9846850
  72.2006440  21.4787790  25.2321520  71.4962010  21.7672680  25.8124630
  72.5618600  22.2887900  24.8721080  62.1185010  19.7357490  27.5942130
  62.4601820  20.5799540  27.2996000  61.1800820  19.8841230  27.7107470
  62.8991630  29.6323510  29.5794360  63.5165630  30.3074590  29.2978810
  62.0384750  30.0411490  29.4881860  58.1923970  28.8223370  18.4601210
  57.8151950  29.3110470  17.7286110  58.4497040  29.4948650  19.0907740
  73.8169220  31.0962920  27.4949000  73.1332740  31.7662030  27.4865670
  74.3563510  31.2943570  26.7293860  75.2693360  20.9242580  25.6230730
  74.3218270  20.9581560  25.7546160  75.5943350  21.7381530  26.0080090
  65.8012900  17.2239760  23.9186720  66.1087880  16.6686650  23.2022220
  64.8713600  17.3584220  23.7359710  71.3527960  32.9407050  26.2094180
  71.3655120  32.5369340  25.3416440  70.8003180  33.7154340  26.1055610
  72.6473380  29.6623270  21.2984350  72.5369710  28.7197600  21.4233770
  72.6441630  30.0238910  22.1847110  70.7513400  27.8436890  27.5376790
  71.1682190  27.6297000  26.7030250  71.4753220  28.1009680  28.1085410
  68.1893660  25.2888590  20.6546840  67.2622940  25.2225970  20.8835310
  68.3418480  26.2268720  20.5402080  68.1762740  21.5605590  17.6514000
  67.2366410  21.7219550  17.7366460  68.4946000  22.2791270  17.1049990
  74.6975500  26.2424110  27.6293030  73.8694130  26.3117200  27.1543160
  75.2925980  26.8278420  27.1608860  72.2190950  26.8508890  21.1582090
  71.6003370  26.5128440  20.5108390  72.2015400  26.2068650  21.8661280
  71.6617510  23.0293430  28.5747900  71.2488690  23.8547140  28.8287890
  70.9293460  22.4438470  28.3824260  63.7950300  25.8153330  23.4366570
  63.3907300  25.1030580  22.9412470  63.8813420  25.4706570  24.3254610
  64.2632000  29.5020890  25.6005780  63.9660290  28.8966360  24.9213560
  65.2131820  29.5398200  25.4895140  62.5078920  22.5896540  27.2165610
  63.0593510  22.6991880  26.4418860  63.0222430  22.9634140  27.9320840
  72.3517610  33.0752760  29.2628880  71.8748170  33.8824950  29.0701490
  71.6679400  32.4231090  29.4155090  63.3550430  29.2402580  32.2513580
  62.4578960  29.4642550  32.4986980  63.3803300  29.3637520  31.3024980
  70.3955650  26.0895700  18.1654840  70.8348930  25.2518130  18.0192660
  71.1084070  26.7225100  18.2518980  62.1821650  26.1115900  30.8270950
  62.0429420  26.9838700  31.1958350  61.3003010  25.7688710  30.6818890
  68.5051030  31.0291770  22.1336080  68.9446940  31.7716100  21.7191470
  68.4437920  31.2718340  23.0575040  63.9802000  32.0537600  33.0356100
  63.9517430  32.4580550  32.1684530  63.8166970  31.1247960  32.8727700
  73.9772790  17.3438510  16.4795880  73.6645450  17.4365340  17.3794950
  74.7385260  17.9219540  16.4293310  60.4954930  24.7098310  20.9373220
  60.3752530  25.4360400  20.3254490  60.1855820  23.9401220  20.4601130
  75.9316820  32.8364700  34.3320270  76.4076540  33.3147590  35.0109350
  76.5523980  32.7682190  33.6065770  58.1340300  27.8813450  26.7441860
  58.2120720  28.0162220  25.7997580  58.7481980  27.1729340  26.9369980
  59.3787930  29.5813640  23.1548040  58.9716010  29.7228230  22.3001640
  60.2700940  29.2973800  22.9519250  75.3350070  30.0277550  31.4920280
  75.4613130  29.7889430  30.5737460  75.3771450  29.1962090  31.9642360
  69.1966810  33.7305550  30.0615090  69.7111480  33.6413560  30.8637520
  68.3535890  34.0765250  30.3543000  71.1721210  34.0160890  19.4899090
  71.0122350  33.7263830  20.3880920  71.0067920  33.2401020  18.9544320
  63.6509590  33.7959420  21.2670710  63.4752070  32.8794960  21.0538510
  62.7965330  34.1546710  21.5068510  70.8747340  31.5248450  18.0497090
  70.1812500  31.5225740  17.3899370  71.6170200  31.1007770  17.6191260
  70.4397270  33.1511160  22.1245580  70.8954220  32.3700540  22.4384200
  70.7789790  33.8617980  22.6686760  75.1874080  22.0810010  32.4570020
  74.5718350  22.5889680  31.9285480  74.8670500  21.1808340  32.3995960
  58.1899820  28.9227620  29.2836320  58.3530860  28.4532980  28.4655690
  58.6552270  28.4151180  29.9485160  62.9618590  18.0533380  24.3196890
  62.5186740  18.8342920  23.9881410  63.5203580  18.3763270  25.0267830
  67.2488400  20.9201900  29.9232210  66.7867770  21.1284920  30.7352150
  66.8466510  20.1061250  29.6202880  72.2492910  22.1410850  31.0528870
  71.3986500  21.8416600  31.3737940  72.0894700  22.3852860  30.1412690
  69.3442620  23.6412600  33.1527660  69.6696030  22.8076350  32.8129890
  70.1322950  24.1641120  33.3005990  66.0777410  17.6744080  19.2002720
  65.4531590  17.6703950  19.9256030  65.9907530  16.8075040  18.8038690
  64.9994490  18.5980710  26.1786490  65.2966820  19.5043540  26.0978510
  65.5480050  18.1099490  25.5646060  62.7532810  23.1766950  22.0478140
  62.5273730  22.9604120  22.9524760  61.9725340  23.6095410  21.7024110
  69.9830570  23.1830320  20.6468790  69.3839460  23.9066120  20.4632410
  70.5310180  23.1207100  19.8645240  65.1932020  24.0752530  32.7138410
  65.0975620  23.1347260  32.5638810  66.0364000  24.2967600  32.3186480
  68.5895440  21.8193860  22.6772070  68.9825010  22.1366060  21.8640760
  68.9512290  20.9405740  22.7916590  60.3242560  20.4866200  30.8672190
  59.9305950  21.3341410  31.0744970  59.6360960  19.8492570  31.0580830
  66.8987610  20.5701170  33.9368930  66.2085930  20.3773370  34.5715020
  67.6419910  20.8535810  34.4693230  57.6259610  18.4094660  24.9002270
  57.3372660  18.9797520  25.6127250  58.3705370  17.9299110  25.2633500
  57.8129840  22.3514780  16.1104990  57.7304510  23.2945540  16.2519980
  57.4612900  22.2089690  15.2317340  69.1750580  24.4099610  26.7722850
  68.4431700  24.9186420  27.1212950  68.7774920  23.5929590  26.4711630
  65.6127970  21.0853810  25.1775340  65.6164030  20.6443760  24.3279880
  66.5079090  21.4071140  25.2847160  61.4630350  20.9680300  24.1369550
  61.1230400  21.4455530  24.8936600  60.7007670  20.5145420  23.7770650
  65.6748120  22.0865890  18.1682100  65.7960940  22.0452370  19.1167920
  65.2896630  22.9490040  18.0128830  69.6376490  19.8633290  26.1845790
  69.6549230  20.3141940  27.0287640  69.3892070  18.9638930  26.3979230
  64.6869620  24.3967030  17.5665400  64.1186520  23.9485280  16.9401310
  65.3958620  24.7559810  17.0330550  73.0647240  17.2765470  32.0232170
  73.3893010  16.5455130  32.5490150  73.1003750  16.9579110  31.1213160
  59.7638800  28.2979050  31.4432130  59.3793590  27.6572720  32.0415090
  60.0750990  29.0015170  32.0126860  65.9135940  25.1455590  26.9240750
  66.2806070  24.6714160  27.6702090  65.7241000  26.0197160  27.2649090
  58.7776430  19.8899280  23.0534220  58.4923350  19.5254950  23.8912840
  58.7155290  19.1579740  22.4397360  63.7035310  24.1864230  29.2424960
  63.3992380  25.0656210  29.4675320  64.6581770  24.2464020  29.2782400
  62.2317100  28.3925220  19.8391810  61.4579360  27.8522840  19.6790530
  62.9611730  27.8731830  19.5009570  72.9905080  27.3890580  25.6318200
  73.7104200  27.8845870  25.2414310  72.7886900  26.7108470  24.9872070
  68.4515020  18.7828540  19.7747590  67.6379630  18.2841710  19.6992900
  68.2576970  19.6226790  19.3583940  68.3723880  27.4599640  31.5187200
  68.3061190  26.5395310  31.2644790  67.7429020  27.5575080  32.2331840
  71.1663410  23.1548190  18.0709750  72.0543030  23.4665420  17.8961090
  71.1368500  22.2820440  17.6790330  62.2754500  28.0605600  23.4770620
  62.7933170  27.2573860  23.4227510  61.8238520  27.9984740  24.3187450
  67.1624000  29.3271880  18.7497920  67.5039700  30.0714110  18.2541240
  66.3336710  29.6403000  19.1122750  59.7599040  25.0266970  30.3896320
  59.4013980  25.6920820  30.9769660  59.4653600  24.1950520  30.7608940
  62.9612160  25.4851210  33.2735870  62.6612300  25.6308390  32.3763690
  63.7323400  24.9256500  33.1809260  68.3040610  30.2820210  31.2691000
  68.3185150  29.3501170  31.0509910  67.5965710  30.3679970  31.9080770
  73.4377680  24.4660030  17.5389610  73.3541400  24.8974250  16.6886050
  74.1571870  24.9258380  17.9716430  74.5151820  26.9227550  30.6159580
  73.7900010  27.5156330  30.4188970  75.0427280  26.9151090  29.8172950
  74.4664930  31.3202290  20.2671740  73.8241090  30.6657910  20.5415460
  74.0795590  31.7257380  19.4912410  70.0451410  28.6487720  24.1143430
  70.3975230  28.0515850  23.4544800  69.1613740  28.3231950  24.2851680
  66.1314690  29.4085410  21.5213840  66.8185820  29.9554620  21.9021430
  65.3447110  29.9526140  21.5563450  58.2707090  25.0258230  17.0130920
  59.1401940  25.3083030  17.2966840  57.7797410  25.8394100  16.8979730
  65.4341900  26.4131440  21.1339200  65.8904680  27.2236690  21.3599390
  65.0830110  26.0954580  21.9657690  67.7374510  31.9237780  28.3631500
  68.3816730  32.1297160  29.0404920  68.1003950  31.1626180  27.9102350
  61.3353680  16.7569090  21.6061720  61.2068310  16.7486990  22.5546640
  60.5115700  17.0952180  21.2552730  69.0106590  29.9270130  27.0808950
  69.6528820  29.2263290  27.1941120  69.5355940  30.7068570  26.9005840
  72.8562310  30.2118750  16.8048090  72.6299890  29.4949190  17.3972730
  72.4658510  29.9631190  15.9669840  70.7844210  30.7265030  30.2845010
  71.1200450  31.3131720  30.9622930  69.8644550  30.5957740  30.5142800
  58.6378340  34.2385610  17.5792550  58.9975980  34.8374950  16.9249820
  58.4970680  34.7845500  18.3527580  58.3347610  18.5160210  31.0668420
  57.6206130  18.7157130  31.6721030  58.7542650  17.7399780  31.4383220
  72.4378560  28.1290690  18.4662250  72.1500260  28.5903380  19.2540130
  73.2330730  27.6688460  18.7346470  58.6220200  32.5040470  32.0534950
  58.7311320  31.5635210  31.9130340  57.9700760  32.7695220  31.4048680
  66.6132790  30.7756360  33.4533070  66.2929660  30.0565600  33.9978760
  65.9391150  31.4511430  33.5269130  64.6546960  31.6216810  18.3966220
  64.6457060  32.3546500  17.7810730  63.7345320  31.3748390  18.4893180
  60.2553600  26.8431700  19.1412980  59.6481550  27.5830600  19.1508280
  60.7302950  26.9331060  18.3151180  69.8286390  21.0082520  28.8169870
  70.1967210  20.1877730  29.1449440  68.9684590  21.0684410  29.2325520
  73.1948420  19.9639460  19.6257430  72.5661580  20.0685130  18.9115660
  72.7000340  20.1836240  20.4151310  67.6406560  31.6845050  17.0591410
  67.7418540  31.4809040  16.1293390  66.7408300  31.4303330  17.2639190
  65.1632450  22.2425410  21.0415310  64.4548600  22.7111750  21.4828920
  65.4476930  21.5847420  21.6760500  66.7888380  23.6622110  29.0407840
  67.2873630  24.1367930  29.7059690  66.9311330  22.7385630  29.2477870
  69.1947880  18.9676070  22.4811100  69.0715660  18.9862200  21.5320610
  70.1432440  19.0155010  22.6009500  66.2824670  34.2031370  21.7539080
  66.5366170  34.1652760  20.8318450  65.3337150  34.0764700  21.7467330
  63.3667470  20.5510490  18.4166020  64.2158000  20.9880640  18.3506210
  62.9998740  20.8630750  19.2438080  73.9955240  19.8790070  29.8836230
  73.4928840  20.6195470  30.2230040  74.8111900  20.2674070  29.5673020
  72.2877250  25.1223250  23.3297590  71.3467390  25.1373480  23.5045280
  72.6021320  24.3359210  23.7757890  62.2658890  26.8042850  16.8901550
  63.0322160  26.6924210  17.4526980  62.3433580  26.1080820  16.2378320
  60.9605650  24.2367920  17.5734440  61.0409240  23.2895430  17.6851840
  61.8525400  24.5674800  17.6795100  74.2902830  32.2932100  25.0051850
  74.4150250  33.1163270  25.4775660  75.1568390  32.0822830  24.6576000
  61.7620360  34.3863310  24.6768980  62.4982840  33.8378770  24.9477550
  62.1461280  35.2519320  24.5374970  58.6465840  30.4536880  20.5510490
  57.7205620  30.6958020  20.5415900  59.1122270  31.2811140  20.4295240
  60.7678640  33.5709380  33.8654560  61.5691370  33.8921430  34.2789960
  60.2530460  33.2104960  34.5874470  64.8722670  33.5593620  16.4994550
  65.6651280  33.8482450  16.0476340  64.3527020  33.1285790  15.8207030
  69.6043270  29.6789250  33.8129970  68.9981430  29.7020850  33.0725720
  69.2997380  28.9472290  34.3497220  71.0343640  33.4069540  32.4239380
  71.9865390  33.3227560  32.3739620  70.8871860  34.0711250  33.0973170
  73.9252840  32.7863750  17.9231290  73.6394350  32.3728890  17.1085470
  73.7272390  33.7151460  17.8031810  58.4876450  26.0582840  32.8090610
  58.9915470  25.4790120  33.3806840  57.7483870  26.3423070  33.3466980
  65.3900070  28.7797030  16.3636900  65.2850710  28.1649380  17.0898280
  65.2224290  28.2562920  15.5799910  65.5414390  27.4653830  32.3426130
  64.7760060  28.0338830  32.2580800  65.7230350  27.1730040  31.4494360
  68.6302800  27.8417060  16.9678890  68.0812900  28.2886360  17.6121630
  69.2522060  27.3366310  17.4916560  72.6837740  29.1959160  32.9001150
  73.4247210  29.5334920  32.3968610  71.9210420  29.3651220  32.3470920
  60.5199530  24.2012430  33.7040680  60.5604870  23.9026300  34.6125910
  61.3745030  24.6020040  33.5448200  64.2977920  26.8007980  18.8644190
  64.7194340  26.6347850  19.7075580  64.4228760  25.9908210  18.3699330
  62.4605340  22.7804530  31.6715170  61.9301800  22.2895480  31.0438510
  63.1293410  23.2088730  31.1373100  66.8105560  25.8245590  16.1121290
  67.3311220  25.1094610  15.7462440  67.4573960  26.4631460  16.4121800
  71.3583400  27.2473990  31.4356360  71.7724420  27.4019070  32.2846780
  70.4234400  27.3729210  31.5982140  71.8305570  24.5870150  33.4395510
  72.4126340  23.8322470  33.3515990  72.0067340  25.1177590  32.6626990
  62.9477640  19.7466900  31.7512460  62.8534510  19.1287650  31.0263330
  62.3675030  20.4733190  31.5242370  65.7139080  18.3040140  28.7839850
  65.2656380  18.3264400  27.9385400  65.0804280  17.9059160  29.3810150
  66.1198630  27.1994470  29.4052290  66.5386740  28.0427200  29.2328530
  65.2007260  27.3366510  29.1759070  68.4562530  24.9310650  30.7890130
  68.5758740  24.3351790  31.5284970  69.3156530  24.9680340  30.3691430
  70.7950430  25.4847840  29.3652640  70.2685650  26.0090460  28.7617780
  71.1381770  26.1175230  29.9962370  63.1936820  22.8741210  15.8102350
  62.9925880  22.0108570  16.1715690  63.0228870  22.7874570  14.8723950
  63.9706050  33.5047480  30.5210020  63.4327140  34.2293540  30.2018720
  64.2240010  33.0277820  29.7307360  65.2231300  21.4732000  32.0465950
  65.8130990  21.1647850  32.7343770  64.4051540  21.0011750  32.2025850
  70.0424730  21.0897810  32.2798970  69.3540250  20.4279350  32.2148960
  70.7630750  20.6436080  32.7247430  70.6725130  17.6849440  18.3389230
  70.9527420  16.8417340  18.6948650  69.8990860  17.9172550  18.8527980
  61.9919620  19.9741830  15.7980230  62.2945520  19.9809260  14.8899380
  62.7314210  19.6239690  16.2947890  66.8268260  34.7398690  30.7796670
  66.7526960  35.6433830  31.0869040  65.9247100  34.4210590  30.7518740
  65.2104550  18.9176450  16.7836430  64.8626550  18.2400440  16.2038880
  65.4117320  18.4565960  17.5979820  67.3753590  33.9057200  18.4023030
  68.2704380  34.2442170  18.4241790  67.4071220  33.1836610  17.7747310
  61.0149750  29.2784250  16.6310030  61.4524620  29.8213920  17.2867610
  61.4997480  28.4531200  16.6406370  58.2295550  32.0673280  24.0830290
  58.5598560  31.1994340  23.8508930  58.6586550  32.2731800  24.9135250
  62.8257470  30.3982290  21.7432260  62.5253010  30.2747260  22.6436170
  62.7194960  29.5390880  21.3347990  58.7185760  32.9343870  26.8211920
  58.2816750  33.1144670  27.6536070  59.2863440  33.6918490  26.6793640
  74.3547940  32.4360870  31.1089230  73.7549930  32.4953430  30.3653150
  74.4841840  31.4965850  31.2386080  75.5949390  30.1778690  16.4458940
  74.7642350  30.2455340  16.9166170  75.7721220  31.0682810  16.1425800
  75.0505850  26.9226170  18.9493140  75.8124760  27.4922820  19.0552830
  75.0660220  26.3553370  19.7201450  58.5510190  25.4464100  23.1800800
  57.8959030  25.1775740  22.5360500  59.3888140  25.3368580  22.7302780
  76.0565820  27.7776270  23.7935070  76.4274650  26.9943590  23.3871040
  76.6967750  28.4665370  23.6152370  73.0399580  29.1612850  29.2065390
  72.2259420  29.5910010  29.4691180  73.4473780  29.7731260  28.5934440
  75.1025020  27.2160540  16.1065660  75.3773860  28.1239420  15.9784880
  74.9135760  27.1523070  17.0427650  71.5000630  20.2405390  17.4019290
  71.9185510  20.0536370  16.5615950  71.1936690  19.3884440  17.7122220
  74.9990360  25.1529530  21.0995090  74.6233960  24.3857460  20.6676380
  74.2693480  25.5352230  21.5870020  59.5886120  25.8316670  27.7204140
  59.9559160  25.7444070  28.6000160  59.0196940  25.0683220  27.6211000
  74.3889980  24.3001050  30.7334610  74.1576070  24.0713800  29.8332560
  74.6494530  25.2200600  30.6879500  59.1402120  22.7425760  31.6262560
  58.2458170  22.7092520  31.9656270  59.6799670  22.9412550  32.3913810
  72.8278050  19.5257480  33.5114310  73.7048230  19.5340880  33.8948310
  72.8398890  18.7888320  32.9006660  57.7648270  22.6563030  19.1226130
  56.8612350  22.9193230  18.9477790  58.2488890  22.9274200  18.3426090
  74.2741320  23.3787020  24.4002330  74.7978800  22.8849670  23.7692500
  74.8600740  23.5137380  25.1449900  74.4531040  23.4626890  27.9221880
  73.5033750  23.4290430  28.0366870  74.6344050  24.3727000  27.6871650
  60.3075480  21.7128570  17.0320510  61.0167180  21.2911790  16.5467790
  59.5915420  21.7803800  16.4003860  59.9549640  17.7667900  16.0723160
  60.6777770  18.3076840  16.3904380  60.2274160  17.4931320  15.1964700
  73.7641290  22.6360370  20.3394740  74.2600410  22.4031240  21.1243620
  73.5657360  21.7972210  19.9232380  59.6441830  17.0174090  25.9745780
  60.2918020  16.4671470  25.5340940  60.0643670  17.2717240  26.7961590
  75.1928450  21.2721320  22.8732420  75.0827730  21.1177360  23.8114690
  75.9536040  20.7442260  22.6307830  73.5394170  17.2115450  29.3315420
  74.1766390  17.8249590  29.6974610  73.6869060  17.2476110  28.3864650
  76.0818720  19.1029240  16.1138560  77.0068030  18.9710420  15.9056850
  76.0594510  19.1822060  17.0675010  76.1557210  19.8739900  18.7395270
  75.3608710  19.8085020  19.2688180  76.3600490  20.8090540  18.7280620
  73.0975630  33.9131450  22.7333660  73.6934700  33.5916020  22.0568080
  73.3553780  33.4403270  23.5246930  59.3973830  17.1729760  28.7171100
  59.0488650  17.6293580  29.4829280  59.0661530  16.2786890  28.7993530
  61.0038200  30.3449360  32.8824290  60.9607830  29.9742270  33.7638750
  61.1349210  31.2826930  33.0226110  64.7044230  31.9008950  28.4834010
  64.4635590  32.1683510  27.5964530  65.6446870  32.0714680  28.5384870
  66.9098650  18.3641640  32.2390520  66.8487540  18.9563470  32.9885930
  67.8499030  18.2567600  32.0940780  69.5473210  18.0211700  31.8782810
  70.1613620  18.3390990  31.2163890  70.0922770  17.5360290  32.4978670
  75.9648390  33.9203330  29.2844650  75.4706670  34.3172200  28.5671780
  75.3561680  33.2952540  29.6781930  60.0694470  16.7005960  31.9921870
  60.6177460  16.5194010  31.2287980  60.1349780  15.9100070  32.5278180
  60.8426230  33.2911610  30.0022070  60.2486550  33.1596310  30.7412110
  60.8350070  32.4549750  29.5364170  70.2881250  16.5843840  28.2052100
  69.4141090  16.9178950  28.0025030  70.1792000  16.1117020  29.0303970
  71.1953230  18.7914710  29.5893820  70.8666590  17.9766470  29.2095550
  72.1435530  18.7484520  29.4659510  73.6487840  34.5626750  26.5631390
  73.1890810  35.3142560  26.1889410  73.0200300  33.8433220  26.5046190
  60.4738460  30.6569990  28.9530110  59.7472520  30.0375280  28.8856060
  60.5347610  31.0510600  28.0828190  64.0783560  32.8714990  25.7379520
  64.5948580  32.2602350  25.2127780  64.7280940  33.3743770  26.2290530
  66.8179060  33.7623480  26.5648500  67.1056870  33.5077780  25.6881510
  67.3302280  33.2100840  27.1554070  68.0356070  17.5013680  27.1445010
  67.2527860  17.9759180  27.4241770  67.7419000  16.5968510  27.0358190
  72.5877140  18.2036780  25.1894100  73.0285230  18.1481880  24.3415700
  72.3184730  19.1194790  25.2604280  74.4515710  17.8352020  23.2002920
  74.3904110  16.8913240  23.0533940  75.2307740  17.9432110  23.7456380
  58.7568460  33.9744380  22.1626870  58.5890500  33.3415060  22.8608760
  57.8902970  34.1803780  21.8121060  59.3796480  17.8061160  19.6658730
  60.1375840  17.9190040  19.0922760  58.9173650  18.6430360  19.6202160
  65.9210290  19.9200430  22.6561040  65.1084800  19.5457320  22.3156920
  66.4251930  19.1645510  22.9582230  70.4235270  16.5842880  23.8944110
  71.0264640  17.1563090  24.3692630  69.6828260  17.1482320  23.6718010
  73.5669870  16.9864440  19.1684390  73.7620500  17.8847890  19.4351820
  72.7799740  16.7551520  19.6617340  60.3631160  32.6677610  19.6077010
  59.8378780  33.0485640  18.9038970  60.2875740  33.2928380  20.3286720
  61.7521630  18.3325210  18.2060700  62.2814390  17.5455010  18.0768650
  62.3849950  19.0116400  18.4396230  63.9459470  18.0700350  21.2606090
  63.3162210  17.3687660  21.4276220  63.4064610  18.8304480  21.0439250
  66.8851420  34.6839580  33.9316700  67.8118730  34.4483850  33.9752660
  66.8701850  35.5111580  33.4502730  75.1196480  34.2265150  20.9290950
  75.2948670  33.5402890  20.2851870  74.4218050  34.7512200  20.5367620
  64.0715030  17.3484330  33.6958580  63.7899300  17.8517930  32.9319400
  64.4534730  16.5506080  33.3300710  62.9624130  34.6159990  18.4826260
  63.6942950  34.3319270  17.9350150  63.2217800  34.3773270  19.3725640
  62.1238920  30.7324720  18.4872590  61.4947800  31.2009820  19.0358420
  62.2386750  29.8873940  18.9218780  70.6730490  16.7637910  34.2739050
  70.5595940  17.0832520  35.1690570  71.4900230  17.1650420  33.9776330
  73.4528980  33.9109440  33.7557740  74.2454300  33.4158670  33.5483700
  73.7462130  34.5899580  34.3633350  69.5788640  24.7830380   4.6373790
  69.4982690  23.8684990   4.3665500  69.1653060  25.2797450   3.9313500
  67.7106680  26.5609400   6.5183060  66.9348780  26.0809840   6.8081630
  68.3619610  25.8815050   6.3439220  61.7272510  26.8729210   7.3958820
  60.8957390  26.6177920   7.7955330  62.3353490  26.9439980   8.1316740
  71.7314110  30.9669590   5.2982190  71.2695640  30.1956830   5.6269360
  72.5439660  30.9935660   5.8034640  61.7073770  30.9069300   7.5916840
  62.0101810  30.0167040   7.4127060  62.4517360  31.4639520   7.3639090
  58.0997470  24.4336750   7.0640910  58.6713580  23.6658950   7.0644550
  58.0999010  24.7325510   6.1547520  67.9577420  33.2527600   4.9186180
  67.3388860  33.7085100   4.3480620  68.8129200  33.4079060   4.5175880
  67.1515670  29.2366590   6.5253220  67.0823950  28.2956530   6.3642350
  67.9135530  29.3268000   7.0975790  59.3422340  19.8421110   8.8509840
  59.1625180  18.9446860   9.1312600  58.9402420  20.3892980   9.5256790
  68.1820840  22.0436970   6.7522150  68.5585660  21.1708850   6.6395820
  68.0840350  22.3795670   5.8612590  62.3125850  20.4162600   2.2139590
  62.4192600  21.3166330   2.5208350  61.4018210  20.3680570   1.9234240
  71.9644960  19.5387410   3.6850490  72.7854580  19.0483980   3.7275970
  71.9979040  20.1285070   4.4382330  59.9609010  22.3381610   7.4592180
  60.6419120  22.6019980   8.0779580  59.6457060  21.4982480   7.7930190
  64.1533580  23.3848970   6.5464770  64.6611800  23.8829940   7.1869790
  64.6846820  22.6084170   6.3704130  76.2544510  21.5554160  10.2494120
  75.5496680  21.9435870   9.7309230  76.5202430  22.2504450  10.8515050
  62.4369680  18.0247530  10.8128190  62.4388120  18.5419920  10.0074090
  61.6073990  17.5477710  10.7898120  68.8240770  28.1366840   2.3118090
  68.2058040  28.6016290   1.7480810  69.3364020  28.8294320   2.7287600
  63.6872530  27.6642710   8.9901690  63.3541910  28.2911630   9.6322760
  63.8639210  28.1904590   8.2103360  72.2006440  21.4787790   6.4578030
  71.4962010  21.7672680   7.0381140  72.5618600  22.2887900   6.0977590
  62.1185010  19.7357490   8.8198640  62.4601820  20.5799540   8.5252510
  61.1800820  19.8841230   8.9363980  62.8991630  29.6323510  10.8050870
  63.5165630  30.3074590  10.5235320  62.0384750  30.0411490  10.7138370
  73.8169220  31.0962920   8.7205510  73.1332740  31.7662030   8.7122180
  74.3563510  31.2943570   7.9550370  75.2693360  20.9242580   6.8487240
  74.3218270  20.9581560   6.9802670  75.5943350  21.7381530   7.2336600
  65.8012900  17.2239760   5.1443230  66.1087880  16.6686650   4.4278730
  64.8713600  17.3584220   4.9616220  71.3527960  32.9407050   7.4350690
  71.3655120  32.5369340   6.5672950  70.8003180  33.7154340   7.3312120
  72.6473380  29.6623270   2.5240860  72.5369710  28.7197600   2.6490280
  72.6441630  30.0238910   3.4103620  70.7513400  27.8436890   8.7633300
  71.1682190  27.6297000   7.9286760  71.4753220  28.1009680   9.3341920
  68.1893660  25.2888590   1.8803350  67.2622940  25.2225970   2.1091820
  68.3418480  26.2268720   1.7658590  74.6975500  26.2424110   8.8549540
  73.8694130  26.3117200   8.3799670  75.2925980  26.8278420   8.3865370
  72.2190950  26.8508890   2.3838600  71.6003370  26.5128440   1.7364900
  72.2015400  26.2068650   3.0917790  71.6617510  23.0293430   9.8004410
  71.2488690  23.8547140  10.0544400  70.9293460  22.4438470   9.6080770
  63.7950300  25.8153330   4.6623080  63.3907300  25.1030580   4.1668980
  63.8813420  25.4706570   5.5511120  64.2632000  29.5020890   6.8262290
  63.9660290  28.8966360   6.1470070  65.2131820  29.5398200   6.7151650
  62.5078920  22.5896540   8.4422120  63.0593510  22.6991880   7.6675370
  63.0222430  22.9634140   9.1577350  72.3517610  33.0752760  10.4885390
  71.8748170  33.8824950  10.2958000  71.6679400  32.4231090  10.6411600
  63.3550430  29.2402580  13.4770090  62.4578960  29.4642550  13.7243490
  63.3803300  29.3637520  12.5281490  62.1821650  26.1115900  12.0527460
  62.0429420  26.9838700  12.4214860  61.3003010  25.7688710  11.9075400
  68.5051030  31.0291770   3.3592590  68.9446940  31.7716100   2.9447980
  68.4437920  31.2718340   4.2831550  63.9802000  32.0537600  14.2612610
  63.9517430  32.4580550  13.3941040  63.8166970  31.1247960  14.0984210
  75.9316820  32.8364700  15.5576780  76.4076540  33.3147590  16.2365860
  76.5523980  32.7682190  14.8322280  58.1340300  27.8813450   7.9698370
  58.2120720  28.0162220   7.0254090  58.7481980  27.1729340   8.1626490
  59.3787930  29.5813640   4.3804550  58.9716010  29.7228230   3.5258150
  60.2700940  29.2973800   4.1775760  75.3350070  30.0277550  12.7176790
  75.4613130  29.7889430  11.7993970  75.3771450  29.1962090  13.1898870
  69.1966810  33.7305550  11.2871600  69.7111480  33.6413560  12.0894030
  68.3535890  34.0765250  11.5799510  63.6509590  33.7959420   2.4927220
  63.4752070  32.8794960   2.2795020  62.7965330  34.1546710   2.7325020
  70.4397270  33.1511160   3.3502090  70.8954220  32.3700540   3.6640710
  70.7789790  33.8617980   3.8943270  75.1874080  22.0810010  13.6826530
  74.5718350  22.5889680  13.1541990  74.8670500  21.1808340  13.6252470
  58.1899820  28.9227620  10.5092830  58.3530860  28.4532980   9.6912200
  58.6552270  28.4151180  11.1741670  62.9618590  18.0533380   5.5453400
  62.5186740  18.8342920   5.2137920  63.5203580  18.3763270   6.2524340
  67.2488400  20.9201900  11.1488720  66.7867770  21.1284920  11.9608660
  66.8466510  20.1061250  10.8459390  72.2492910  22.1410850  12.2785380
  71.3986500  21.8416600  12.5994450  72.0894700  22.3852860  11.3669200
  69.3442620  23.6412600  14.3784170  69.6696030  22.8076350  14.0386400
  70.1322950  24.1641120  14.5262500  64.9994490  18.5980710   7.4043000
  65.2966820  19.5043540   7.3235020  65.5480050  18.1099490   6.7902570
  62.7532810  23.1766950   3.2734650  62.5273730  22.9604120   4.1781270
  61.9725340  23.6095410   2.9280620  65.1932020  24.0752530  13.9394920
  65.0975620  23.1347260  13.7895320  66.0364000  24.2967600  13.5442990
  68.5895440  21.8193860   3.9028580  68.9825010  22.1366060   3.0897270
  68.9512290  20.9405740   4.0173100  60.3242560  20.4866200  12.0928700
  59.9305950  21.3341410  12.3001480  59.6360960  19.8492570  12.2837340
  66.8987610  20.5701170  15.1625440  66.2085930  20.3773370  15.7971530
  67.6419910  20.8535810  15.6949740  57.6259610  18.4094660   6.1258780
  57.3372660  18.9797520   6.8383760  58.3705370  17.9299110   6.4890010
  69.1750580  24.4099610   7.9979360  68.4431700  24.9186420   8.3469460
  68.7774920  23.5929590   7.6968140  65.6127970  21.0853810   6.4031850
  65.6164030  20.6443760   5.5536390  66.5079090  21.4071140   6.5103670
  61.4630350  20.9680300   5.3626060  61.1230400  21.4455530   6.1193110
  60.7007670  20.5145420   5.0027160  69.6376490  19.8633290   7.4102300
  69.6549230  20.3141940   8.2544150  69.3892070  18.9638930   7.6235740
  73.0647240  17.2765470  13.2488680  73.3893010  16.5455130  13.7746660
  73.1003750  16.9579110  12.3469670  59.7638800  28.2979050  12.6688640
  59.3793590  27.6572720  13.2671600  60.0750990  29.0015170  13.2383370
  65.9135940  25.1455590   8.1497260  66.2806070  24.6714160   8.8958600
  65.7241000  26.0197160   8.4905600  58.7776430  19.8899280   4.2790730
  58.4923350  19.5254950   5.1169350  58.7155290  19.1579740   3.6653870
  63.7035310  24.1864230  10.4681470  63.3992380  25.0656210  10.6931830
  64.6581770  24.2464020  10.5038910  72.9905080  27.3890580   6.8574710
  73.7104200  27.8845870   6.4670820  72.7886900  26.7108470   6.2128580
  68.3723880  27.4599640  12.7443710  68.3061190  26.5395310  12.4901300
  67.7429020  27.5575080  13.4588350  62.2754500  28.0605600   4.7027130
  62.7933170  27.2573860   4.6484020  61.8238520  27.9984740   5.5443960
  59.7599040  25.0266970  11.6152830  59.4013980  25.6920820  12.2026170
  59.4653600  24.1950520  11.9865450  62.9612160  25.4851210  14.4992380
  62.6612300  25.6308390  13.6020200  63.7323400  24.9256500  14.4065770
  68.3040610  30.2820210  12.4947510  68.3185150  29.3501170  12.2766420
  67.5965710  30.3679970  13.1337280  74.5151820  26.9227550  11.8416090
  73.7900010  27.5156330  11.6445480  75.0427280  26.9151090  11.0429460
  70.0451410  28.6487720   5.3399940  70.3975230  28.0515850   4.6801310
  69.1613740  28.3231950   5.5108190  66.1314690  29.4085410   2.7470350
  66.8185820  29.9554620   3.1277940  65.3447110  29.9526140   2.7819960
  65.4341900  26.4131440   2.3595710  65.8904680  27.2236690   2.5855900
  65.0830110  26.0954580   3.1914200  67.7374510  31.9237780   9.5888010
  68.3816730  32.1297160  10.2661430  68.1003950  31.1626180   9.1358860
  61.3353680  16.7569090   2.8318230  61.2068310  16.7486990   3.7803150
  60.5115700  17.0952180   2.4809240  69.0106590  29.9270130   8.3065460
  69.6528820  29.2263290   8.4197630  69.5355940  30.7068570   8.1262350
  70.7844210  30.7265030  11.5101520  71.1200450  31.3131720  12.1879440
  69.8644550  30.5957740  11.7399310  58.3347610  18.5160210  12.2924930
  57.6206130  18.7157130  12.8977540  58.7542650  17.7399780  12.6639730
  58.6220200  32.5040470  13.2791460  58.7311320  31.5635210  13.1386850
  57.9700760  32.7695220  12.6305190  66.6132790  30.7756360  14.6789580
  66.2929660  30.0565600  15.2235270  65.9391150  31.4511430  14.7525640
  69.8286390  21.0082520  10.0426380  70.1967210  20.1877730  10.3705950
  68.9684590  21.0684410  10.4582030  65.1632450  22.2425410   2.2671820
  64.4548600  22.7111750   2.7085430  65.4476930  21.5847420   2.9017010
  66.7888380  23.6622110  10.2664350  67.2873630  24.1367930  10.9316200
  66.9311330  22.7385630  10.4734380  69.1947880  18.9676070   3.7067610
  69.0715660  18.9862200   2.7577120  70.1432440  19.0155010   3.8266010
  66.2824670  34.2031370   2.9795590  66.5366170  34.1652760   2.0574960
  65.3337150  34.0764700   2.9723840  73.9955240  19.8790070  11.1092740
  73.4928840  20.6195470  11.4486550  74.8111900  20.2674070  10.7929530
  72.2877250  25.1223250   4.5554100  71.3467390  25.1373480   4.7301790
  72.6021320  24.3359210   5.0014400  74.2902830  32.2932100   6.2308360
  74.4150250  33.1163270   6.7032170  75.1568390  32.0822830   5.8832510
  61.7620360  34.3863310   5.9025490  62.4982840  33.8378770   6.1734060
  62.1461280  35.2519320   5.7631480  58.6465840  30.4536880   1.7767000
  57.7205620  30.6958020   1.7672410  59.1122270  31.2811140   1.6551750
  60.7678640  33.5709380  15.0911070  61.5691370  33.8921430  15.5046470
  60.2530460  33.2104960  15.8130980  69.6043270  29.6789250  15.0386480
  68.9981430  29.7020850  14.2982230  69.2997380  28.9472290  15.5753730
  71.0343640  33.4069540  13.6495890  71.9865390  33.3227560  13.5996130
  70.8871860  34.0711250  14.3229680  58.4876450  26.0582840  14.0347120
  58.9915470  25.4790120  14.6063350  57.7483870  26.3423070  14.5723490
  65.5414390  27.4653830  13.5682640  64.7760060  28.0338830  13.4837310
  65.7230350  27.1730040  12.6750870  72.6837740  29.1959160  14.1257660
  73.4247210  29.5334920  13.6225120  71.9210420  29.3651220  13.5727430
  60.5199530  24.2012430  14.9297190  60.5604870  23.9026300  15.8382420
  61.3745030  24.6020040  14.7704710  62.4605340  22.7804530  12.8971680
  61.9301800  22.2895480  12.2695020  63.1293410  23.2088730  12.3629610
  71.3583400  27.2473990  12.6612870  71.7724420  27.4019070  13.5103290
  70.4234400  27.3729210  12.8238650  71.8305570  24.5870150  14.6652020
  72.4126340  23.8322470  14.5772500  72.0067340  25.1177590  13.8883500
  62.9477640  19.7466900  12.9768970  62.8534510  19.1287650  12.2519840
  62.3675030  20.4733190  12.7498880  65.7139080  18.3040140  10.0096360
  65.2656380  18.3264400   9.1641910  65.0804280  17.9059160  10.6066660
  66.1198630  27.1994470  10.6308800  66.5386740  28.0427200  10.4585040
  65.2007260  27.3366510  10.4015580  68.4562530  24.9310650  12.0146640
  68.5758740  24.3351790  12.7541480  69.3156530  24.9680340  11.5947940
  70.7950430  25.4847840  10.5909150  70.2685650  26.0090460   9.9874290
  71.1381770  26.1175230  11.2218880  63.9706050  33.5047480  11.7466530
  63.4327140  34.2293540  11.4275230  64.2240010  33.0277820  10.9563870
  65.2231300  21.4732000  13.2722460  65.8130990  21.1647850  13.9600280
  64.4051540  21.0011750  13.4282360  70.0424730  21.0897810  13.5055480
  69.3540250  20.4279350  13.4405470  70.7630750  20.6436080  13.9503940
  66.8268260  34.7398690  12.0053180  66.7526960  35.6433830  12.3125550
  65.9247100  34.4210590  11.9775250  58.2295550  32.0673280   5.3086800
  58.5598560  31.1994340   5.0765440  58.6586550  32.2731800   6.1391760
  62.8257470  30.3982290   2.9688770  62.5253010  30.2747260   3.8692680
  62.7194960  29.5390880   2.5604500  58.7185760  32.9343870   8.0468430
  58.2816750  33.1144670   8.8792580  59.2863440  33.6918490   7.9050150
  74.3547940  32.4360870  12.3345740  73.7549930  32.4953430  11.5909660
  74.4841840  31.4965850  12.4642590  58.5510190  25.4464100   4.4057310
  57.8959030  25.1775740   3.7617010  59.3888140  25.3368580   3.9559290
  76.0565820  27.7776270   5.0191580  76.4274650  26.9943590   4.6127550
  76.6967750  28.4665370   4.8408880  73.0399580  29.1612850  10.4321900
  72.2259420  29.5910010  10.6947690  73.4473780  29.7731260   9.8190950
  74.9990360  25.1529530   2.3251600  74.6233960  24.3857460   1.8932890
  74.2693480  25.5352230   2.8126530  59.5886120  25.8316670   8.9460650
  59.9559160  25.7444070   9.8256670  59.0196940  25.0683220   8.8467510
  74.3889980  24.3001050  11.9591120  74.1576070  24.0713800  11.0589070
  74.6494530  25.2200600  11.9136010  59.1402120  22.7425760  12.8519070
  58.2458170  22.7092520  13.1912780  59.6799670  22.9412550  13.6170320
  72.8278050  19.5257480  14.7370820  73.7048230  19.5340880  15.1204820
  72.8398890  18.7888320  14.1263170  74.2741320  23.3787020   5.6258840
  74.7978800  22.8849670   4.9949010  74.8600740  23.5137380   6.3706410
  74.4531040  23.4626890   9.1478390  73.5033750  23.4290430   9.2623380
  74.6344050  24.3727000   8.9128160  59.6441830  17.0174090   7.2002290
  60.2918020  16.4671470   6.7597450  60.0643670  17.2717240   8.0218100
  75.1928450  21.2721320   4.0988930  75.0827730  21.1177360   5.0371200
  75.9536040  20.7442260   3.8564340  73.5394170  17.2115450  10.5571930
  74.1766390  17.8249590  10.9231120  73.6869060  17.2476110   9.6121160
  73.0975630  33.9131450   3.9590170  73.6934700  33.5916020   3.2824590
  73.3553780  33.4403270   4.7503440  59.3973830  17.1729760   9.9427610
  59.0488650  17.6293580  10.7085790  59.0661530  16.2786890  10.0250040
  61.0038200  30.3449360  14.1080800  60.9607830  29.9742270  14.9895260
  61.1349210  31.2826930  14.2482620  64.7044230  31.9008950   9.7090520
  64.4635590  32.1683510   8.8221040  65.6446870  32.0714680   9.7641380
  66.9098650  18.3641640  13.4647030  66.8487540  18.9563470  14.2142440
  67.8499030  18.2567600  13.3197290  69.5473210  18.0211700  13.1039320
  70.1613620  18.3390990  12.4420400  70.0922770  17.5360290  13.7235180
  75.9648390  33.9203330  10.5101160  75.4706670  34.3172200   9.7928290
  75.3561680  33.2952540  10.9038440  60.0694470  16.7005960  13.2178380
  60.6177460  16.5194010  12.4544490  60.1349780  15.9100070  13.7534690
  60.8426230  33.2911610  11.2278580  60.2486550  33.1596310  11.9668620
  60.8350070  32.4549750  10.7620680  70.2881250  16.5843840   9.4308610
  69.4141090  16.9178950   9.2281540  70.1792000  16.1117020  10.2560480
  71.1953230  18.7914710  10.8150330  70.8666590  17.9766470  10.4352060
  72.1435530  18.7484520  10.6916020  73.6487840  34.5626750   7.7887900
  73.1890810  35.3142560   7.4145920  73.0200300  33.8433220   7.7302700
  60.4738460  30.6569990  10.1786620  59.7472520  30.0375280  10.1112570
  60.5347610  31.0510600   9.3084700  64.0783560  32.8714990   6.9636030
  64.5948580  32.2602350   6.4384290  64.7280940  33.3743770   7.4547040
  66.8179060  33.7623480   7.7905010  67.1056870  33.5077780   6.9138020
  67.3302280  33.2100840   8.3810580  68.0356070  17.5013680   8.3701520
  67.2527860  17.9759180   8.6498280  67.7419000  16.5968510   8.2614700
  72.5877140  18.2036780   6.4150610  73.0285230  18.1481880   5.5672210
  72.3184730  19.1194790   6.4860790  74.4515710  17.8352020   4.4259430
  74.3904110  16.8913240   4.2790450  75.2307740  17.9432110   4.9712890
  58.7568460  33.9744380   3.3883380  58.5890500  33.3415060   4.0865270
  57.8902970  34.1803780   3.0377570  65.9210290  19.9200430   3.8817550
  65.1084800  19.5457320   3.5413430  66.4251930  19.1645510   4.1838740
  70.4235270  16.5842880   5.1200620  71.0264640  17.1563090   5.5949140
  69.6828260  17.1482320   4.8974520  63.9459470  18.0700350   2.4862600
  63.3162210  17.3687660   2.6532730  63.4064610  18.8304480   2.2695760
  66.8851420  34.6839580  15.1573210  67.8118730  34.4483850  15.2009170
  66.8701850  35.5111580  14.6759240  64.0715030  17.3484330  14.9215090
  63.7899300  17.8517930  14.1575910  64.4534730  16.5506080  14.5557220
  70.6730490  16.7637910  15.4995560  70.5595940  17.0832520  16.3947080
  71.4900230  17.1650420  15.2032840  73.4528980  33.9109440  14.9814250
  74.2454300  33.4158670  14.7740210  73.7462130  34.5899580  15.5889860
  69.5788640   6.0086890  79.7347750  69.4982690   5.0941500  79.4639460
  69.1653060   6.5053960  79.0287460  67.7106680   7.7865910  81.6157020
  66.9348780   7.3066350  81.9055590  68.3619610   7.1071560  81.4413180
  61.7272510   8.0985720  82.4932780  60.8957390   7.8434430  82.8929290
  62.3353490   8.1696490  83.2290700  71.7314110  12.1926100  80.3956150
  71.2695640  11.4213340  80.7243320  72.5439660  12.2192170  80.9008600
  61.7073770  12.1325810  82.6890800  62.0101810  11.2423550  82.5101020
  62.4517360  12.6896030  82.4613050  60.1364460   3.0587610  76.2775170
  59.2481160   3.4003580  76.1755050  60.4205650   2.8587930  75.3856000
  58.0997470   5.6593260  82.1614870  58.6713580   4.8915460  82.1618510
  58.0999010   5.9582020  81.2521480  67.9577420  14.4784110  80.0160140
  67.3388860  14.9341610  79.4454580  68.8129200  14.6335570  79.6149840
  67.1515670  10.4623100  81.6227180  67.0823950   9.5213040  81.4616310
  67.9135530  10.5524510  82.1949750  68.1820840   3.2693480  81.8496110
  68.5585660   2.3965360  81.7369780  68.0840350   3.6052180  80.9586550
  59.9609010   3.5638120  82.5566140  60.6419120   3.8276490  83.1753540
  59.6457060   2.7238990  82.8904150  64.1533580   4.6105480  81.6438730
  64.6611800   5.1086450  82.2843750  64.6846820   3.8340680  81.4678090
  76.2544510   2.7810670  85.3468080  75.5496680   3.1692380  84.8283190
  76.5202430   3.4760960  85.9489010  68.8240770   9.3623350  77.4092050
  68.2058040   9.8272800  76.8454770  69.3364020  10.0550830  77.8261560
  63.6872530   8.8899220  84.0875650  63.3541910   9.5168140  84.7296720
  63.8639210   9.4161100  83.3077320  72.2006440   2.7044300  81.5551990
  71.4962010   2.9929190  82.1355100  72.5618600   3.5144410  81.1951550
  62.8991630  10.8580020  85.9024830  63.5165630  11.5331100  85.6209280
  62.0384750  11.2668000  85.8112330  58.1923970  10.0479880  74.7831680
  57.8151950  10.5366980  74.0516580  58.4497040  10.7205160  75.4138210
  73.8169220  12.3219430  83.8179470  73.1332740  12.9918540  83.8096140
  74.3563510  12.5200080  83.0524330  75.2693360   2.1499090  81.9461200
  74.3218270   2.1838070  82.0776630  75.5943350   2.9638040  82.3310560
  71.3527960  14.1663560  82.5324650  71.3655120  13.7625850  81.6646910
  70.8003180  14.9410850  82.4286080  72.6473380  10.8879780  77.6214820
  72.5369710   9.9454110  77.7464240  72.6441630  11.2495420  78.5077580
  70.7513400   9.0693400  83.8607260  71.1682190   8.8553510  83.0260720
  71.4753220   9.3266190  84.4315880  68.1893660   6.5145100  76.9777310
  67.2622940   6.4482480  77.2065780  68.3418480   7.4525230  76.8632550
  68.1762740   2.7862100  73.9744470  67.2366410   2.9476060  74.0596930
  68.4946000   3.5047780  73.4280460  74.6975500   7.4680620  83.9523500
  73.8694130   7.5373710  83.4773630  75.2925980   8.0534930  83.4839330
  72.2190950   8.0765400  77.4812560  71.6003370   7.7384950  76.8338860
  72.2015400   7.4325160  78.1891750  71.6617510   4.2549940  84.8978370
  71.2488690   5.0803650  85.1518360  70.9293460   3.6694980  84.7054730
  63.7950300   7.0409840  79.7597040  63.3907300   6.3287090  79.2642940
  63.8813420   6.6963080  80.6485080  64.2632000  10.7277400  81.9236250
  63.9660290  10.1222870  81.2444030  65.2131820  10.7654710  81.8125610
  62.5078920   3.8153050  83.5396080  63.0593510   3.9248390  82.7649330
  63.0222430   4.1890650  84.2551310  72.3517610  14.3009270  85.5859350
  71.8748170  15.1081460  85.3931960  71.6679400  13.6487600  85.7385560
  70.3955650   7.3152210  74.4885310  70.8348930   6.4774640  74.3423130
  71.1084070   7.9481610  74.5749450  68.5051030  12.2548280  78.4566550
  68.9446940  12.9972610  78.0421940  68.4437920  12.4974850  79.3805510
  60.4954930   5.9354820  77.2603690  60.3752530   6.6616910  76.6484960
  60.1855820   5.1657730  76.7831600  58.1340300   9.1069960  83.0672330
  58.2120720   9.2418730  82.1228050  58.7481980   8.3985850  83.2600450
  59.3787930  10.8070150  79.4778510  58.9716010  10.9484740  78.6232110
  60.2700940  10.5230310  79.2749720  71.1721210  15.2417400  75.8129560
  71.0122350  14.9520340  76.7111390  71.0067920  14.4657530  75.2774790
  63.6509590  15.0215930  77.5901180  63.4752070  14.1051470  77.3768980
  62.7965330  15.3803220  77.8298980  70.8747340  12.7504960  74.3727560
  70.1812500  12.7482250  73.7129840  71.6170200  12.3264280  73.9421730
  70.4397270  14.3767670  78.4476050  70.8954220  13.5957050  78.7614670
  70.7789790  15.0874490  78.9917230  62.7532810   4.4023460  78.3708610
  62.5273730   4.1860630  79.2755230  61.9725340   4.8351920  78.0254580
  69.9830570   4.4086830  76.9699260  69.3839460   5.1322630  76.7862880
  70.5310180   4.3463610  76.1875710  68.5895440   3.0450370  79.0002540
  68.9825010   3.3622570  78.1871230  68.9512290   2.1662250  79.1147060
  57.8129840   3.5771290  72.4335460  57.7304510   4.5202050  72.5750450
  57.4612900   3.4346200  71.5547810  69.1750580   5.6356120  83.0953320
  68.4431700   6.1442930  83.4443420  68.7774920   4.8186100  82.7942100
  65.6127970   2.3110320  81.5005810  65.6164030   1.8700270  80.6510350
  66.5079090   2.6327650  81.6077630  61.4630350   2.1936810  80.4600020
  61.1230400   2.6712040  81.2167070  60.7007670   1.7401930  80.1001120
  65.6748120   3.3122400  74.4912570  65.7960940   3.2708880  75.4398390
  65.2896630   4.1746550  74.3359300  64.6869620   5.6223540  73.8895870
  64.1186520   5.1741790  73.2631780  65.3958620   5.9816320  73.3561020
  65.9135940   6.3712100  83.2471220  66.2806070   5.8970670  83.9932560
  65.7241000   7.2453670  83.5879560  63.7035310   5.4120740  85.5655430
  63.3992380   6.2912720  85.7905790  64.6581770   5.4720530  85.6012870
  62.2317100   9.6181730  76.1622280  61.4579360   9.0779350  76.0021000
  62.9611730   9.0988340  75.8240040  72.9905080   8.6147090  81.9548670
  73.7104200   9.1102380  81.5644780  72.7886900   7.9364980  81.3102540
  71.1663410   4.3804700  74.3940220  72.0543030   4.6921930  74.2191560
  71.1368500   3.5076950  74.0020800  62.2754500   9.2862110  79.8001090
  62.7933170   8.4830370  79.7457980  61.8238520   9.2241250  80.6417920
  67.1624000  10.5528390  75.0728390  67.5039700  11.2970620  74.5771710
  66.3336710  10.8659510  75.4353220  73.4377680   5.6916540  73.8620080
  73.3541400   6.1230760  73.0116520  74.1571870   6.1514890  74.2946900
  74.4664930  12.5458800  76.5902210  73.8241090  11.8914420  76.8645930
  74.0795590  12.9513890  75.8142880  70.0451410   9.8744230  80.4373900
  70.3975230   9.2772360  79.7775270  69.1613740   9.5488460  80.6082150
  66.1314690  10.6341920  77.8444310  66.8185820  11.1811130  78.2251900
  65.3447110  11.1782650  77.8793920  58.2707090   6.2514740  73.3361390
  59.1401940   6.5339540  73.6197310  57.7797410   7.0650610  73.2210200
  65.4341900   7.6387950  77.4569670  65.8904680   8.4493200  77.6829860
  65.0830110   7.3211090  78.2888160  67.7374510  13.1494290  84.6861970
  68.3816730  13.3553670  85.3635390  68.1003950  12.3882690  84.2332820
  69.0106590  11.1526640  83.4039420  69.6528820  10.4519800  83.5171590
  69.5355940  11.9325080  83.2236310  72.8562310  11.4375260  73.1278560
  72.6299890  10.7205700  73.7203200  72.4658510  11.1887700  72.2900310
  58.6378340  15.4642120  73.9023020  58.9975980  16.0631460  73.2480290
  58.4970680  16.0102010  74.6758050  72.4378560   9.3547200  74.7892720
  72.1500260   9.8159890  75.5770600  73.2330730   8.8944970  75.0576940
  64.6546960  12.8473320  74.7196690  64.6457060  13.5803010  74.1041200
  63.7345320  12.6004900  74.8123650  60.2553600   8.0688210  75.4643450
  59.6481550   8.8087110  75.4738750  60.7302950   8.1587570  74.6381650
  67.6406560  12.9101560  73.3821880  67.7418540  12.7065550  72.4523860
  66.7408300  12.6559840  73.5869660  65.1632450   3.4681920  77.3645780
  64.4548600   3.9368260  77.8059390  65.4476930   2.8103930  77.9990970
  66.2824670  15.4287880  78.0769550  66.5366170  15.3909270  77.1548920
  65.3337150  15.3021210  78.0697800  63.3667470   1.7767000  74.7396490
  64.2158000   2.2137150  74.6736680  62.9998740   2.0887260  75.5668550
  72.2877250   6.3479760  79.6528060  71.3467390   6.3629990  79.8275750
  72.6021320   5.5615720  80.0988360  62.2658890   8.0299360  73.2132020
  63.0322160   7.9180720  73.7757450  62.3433580   7.3337330  72.5608790
  60.9605650   5.4624430  73.8964910  61.0409240   4.5151940  74.0082310
  61.8525400   5.7931310  74.0025570  74.2902830  13.5188610  81.3282320
  74.4150250  14.3419780  81.8006130  75.1568390  13.3079340  80.9806470
  61.7620360  15.6119820  80.9999450  62.4982840  15.0635280  81.2708020
  62.1461280  16.4775830  80.8605440  58.6465840  11.6793390  76.8740960
  57.7205620  11.9214530  76.8646370  59.1122270  12.5067650  76.7525710
  64.8722670  14.7850130  72.8225020  65.6651280  15.0738960  72.3706810
  64.3527020  14.3542300  72.1437500  73.9252840  14.0120260  74.2461760
  73.6394350  13.5985400  73.4315940  73.7272390  14.9407970  74.1262280
  65.3900070  10.0053540  72.6867370  65.2850710   9.3905890  73.4128750
  65.2224290   9.4819430  71.9030380  68.6302800   9.0673570  73.2909360
  68.0812900   9.5142870  73.9352100  69.2522060   8.5622820  73.8147030
  64.2977920   8.0264490  75.1874660  64.7194340   7.8604360  76.0306050
  64.4228760   7.2164720  74.6929800  66.8105560   7.0502100  72.4351760
  67.3311220   6.3351120  72.0692910  67.4573960   7.6887970  72.7352270
  66.1198630   8.4250980  85.7282760  66.5386740   9.2683710  85.5559000
  65.2007260   8.5623020  85.4989540  63.1936820   4.0997720  72.1332820
  62.9925880   3.2365080  72.4946160  63.0228870   4.0131080  71.1954420
  67.3753590  15.1313710  74.7253500  68.2704380  15.4698680  74.7472260
  67.4071220  14.4093120  74.0977780  61.0149750  10.5040760  72.9540500
  61.4524620  11.0470430  73.6098080  61.4997480   9.6787710  72.9636840
  58.2295550  13.2929790  80.4060760  58.5598560  12.4250850  80.1739400
  58.6586550  13.4988310  81.2365720  62.8257470  11.6238800  78.0662730
  62.5253010  11.5003770  78.9666640  62.7194960  10.7647390  77.6578460
  58.7185760  14.1600380  83.1442390  58.2816750  14.3401180  83.9766540
  59.2863440  14.9175000  83.0024110  75.5949390  11.4035200  72.7689410
  74.7642350  11.4711850  73.2396640  75.7721220  12.2939320  72.4656270
  75.0505850   8.1482680  75.2723610  75.8124760   8.7179330  75.3783300
  75.0660220   7.5809880  76.0431920  58.5510190   6.6720610  79.5031270
  57.8959030   6.4032250  78.8590970  59.3888140   6.5625090  79.0533250
  76.0565820   9.0032780  80.1165540  76.4274650   8.2200100  79.7101510
  76.6967750   9.6921880  79.9382840  73.0399580  10.3869360  85.5295860
  72.2259420  10.8166520  85.7921650  73.4473780  10.9987770  84.9164910
  75.1025020   8.4417050  72.4296130  75.3773860   9.3495930  72.3015350
  74.9135760   8.3779580  73.3658120  74.9990360   6.3786040  77.4225560
  74.6233960   5.6113970  76.9906850  74.2693480   6.7608740  77.9100490
  59.5886120   7.0573180  84.0434610  59.9559160   6.9700580  84.9230630
  59.0196940   6.2939730  83.9441470  57.7648270   3.8819540  75.4456600
  56.8612350   4.1449740  75.2708260  58.2488890   4.1530710  74.6656560
  74.2741320   4.6043530  80.7232800  74.7978800   4.1106180  80.0922970
  74.8600740   4.7393890  81.4680370  74.4531040   4.6883400  84.2452350
  73.5033750   4.6546940  84.3597340  74.6344050   5.5983510  84.0102120
  60.3075480   2.9385080  73.3550980  61.0167180   2.5168300  72.8698260
  59.5915420   3.0060310  72.7234330  73.7641290   3.8616880  76.6625210
  74.2600410   3.6287750  77.4474090  73.5657360   3.0228720  76.2462850
  75.1928450   2.4977830  79.1962890  75.0827730   2.3433870  80.1345160
  75.9536040   1.9698770  78.9538300  73.0975630  15.1387960  79.0564130
  73.6934700  14.8172530  78.3798550  73.3553780  14.6659780  79.8477400
  64.7044230  13.1265460  84.8064480  64.4635590  13.3940020  83.9195000
  65.6446870  13.2971190  84.8615340  73.6487840  15.7883260  82.8861860
  73.1890810  16.5399070  82.5119880  73.0200300  15.0689730  82.8276660
  60.4738460  11.8826500  85.2760580  59.7472520  11.2631790  85.2086530
  60.5347610  12.2767110  84.4058660  64.0783560  14.0971500  82.0609990
  64.5948580  13.4858860  81.5358250  64.7280940  14.6000280  82.5521000
  66.8179060  14.9879990  82.8878970  67.1056870  14.7334290  82.0111980
  67.3302280  14.4357350  83.4784540  58.7568460  15.2000890  78.4857340
  58.5890500  14.5671570  79.1839230  57.8902970  15.4060290  78.1351530
  60.3631160  13.8934120  75.9307480  59.8378780  14.2742150  75.2269440
  60.2875740  14.5184890  76.6517190  75.1196480  15.4521660  77.2521420
  75.2948670  14.7659400  76.6082340  74.4218050  15.9768710  76.8598090
  62.9624130  15.8416500  74.8056730  63.6942950  15.5575780  74.2580620
  63.2217800  15.6029780  75.6956110  62.1238920  11.9581230  74.8103060
  61.4947800  12.4266330  75.3588890  62.2386750  11.1130450  75.2449250
  69.5788640   6.0086890  60.9604260  69.4982690   5.0941500  60.6895970
  69.1653060   6.5053960  60.2543970  67.7106680   7.7865910  62.8413530
  66.9348780   7.3066350  63.1312100  68.3619610   7.1071560  62.6669690
  61.7272510   8.0985720  63.7189290  60.8957390   7.8434430  64.1185800
  62.3353490   8.1696490  64.4547210  71.7314110  12.1926100  61.6212660
  71.2695640  11.4213340  61.9499830  72.5439660  12.2192170  62.1265110
  61.7073770  12.1325810  63.9147310  62.0101810  11.2423550  63.7357530
  62.4517360  12.6896030  63.6869560  60.1364460   3.0587610  57.5031680
  59.2481160   3.4003580  57.4011560  60.4205650   2.8587930  56.6112510
  58.0997470   5.6593260  63.3871380  58.6713580   4.8915460  63.3875020
  58.0999010   5.9582020  62.4777990  67.9577420  14.4784110  61.2416650
  67.3388860  14.9341610  60.6711090  68.8129200  14.6335570  60.8406350
  67.1515670  10.4623100  62.8483690  67.0823950   9.5213040  62.6872820
  67.9135530  10.5524510  63.4206260  68.1820840   3.2693480  63.0752620
  68.5585660   2.3965360  62.9626290  68.0840350   3.6052180  62.1843060
  59.9609010   3.5638120  63.7822650  60.6419120   3.8276490  64.4010050
  59.6457060   2.7238990  64.1160660  64.1533580   4.6105480  62.8695240
  64.6611800   5.1086450  63.5100260  64.6846820   3.8340680  62.6934600
  76.2544510   2.7810670  66.5724590  75.5496680   3.1692380  66.0539700
  76.5202430   3.4760960  67.1745520  68.8240770   9.3623350  58.6348560
  68.2058040   9.8272800  58.0711280  69.3364020  10.0550830  59.0518070
  63.6872530   8.8899220  65.3132160  63.3541910   9.5168140  65.9553230
  63.8639210   9.4161100  64.5333830  72.2006440   2.7044300  62.7808500
  71.4962010   2.9929190  63.3611610  72.5618600   3.5144410  62.4208060
  62.8991630  10.8580020  67.1281340  63.5165630  11.5331100  66.8465790
  62.0384750  11.2668000  67.0368840  58.1923970  10.0479880  56.0088190
  57.8151950  10.5366980  55.2773090  58.4497040  10.7205160  56.6394720
  73.8169220  12.3219430  65.0435980  73.1332740  12.9918540  65.0352650
  74.3563510  12.5200080  64.2780840  75.2693360   2.1499090  63.1717710
  74.3218270   2.1838070  63.3033140  75.5943350   2.9638040  63.5567070
  71.3527960  14.1663560  63.7581160  71.3655120  13.7625850  62.8903420
  70.8003180  14.9410850  63.6542590  72.6473380  10.8879780  58.8471330
  72.5369710   9.9454110  58.9720750  72.6441630  11.2495420  59.7334090
  70.7513400   9.0693400  65.0863770  71.1682190   8.8553510  64.2517230
  71.4753220   9.3266190  65.6572390  68.1893660   6.5145100  58.2033820
  67.2622940   6.4482480  58.4322290  68.3418480   7.4525230  58.0889060
  68.1762740   2.7862100  55.2000980  67.2366410   2.9476060  55.2853440
  68.4946000   3.5047780  54.6536970  74.6975500   7.4680620  65.1780010
  73.8694130   7.5373710  64.7030140  75.2925980   8.0534930  64.7095840
  72.2190950   8.0765400  58.7069070  71.6003370   7.7384950  58.0595370
  72.2015400   7.4325160  59.4148260  71.6617510   4.2549940  66.1234880
  71.2488690   5.0803650  66.3774870  70.9293460   3.6694980  65.9311240
  63.7950300   7.0409840  60.9853550  63.3907300   6.3287090  60.4899450
  63.8813420   6.6963080  61.8741590  64.2632000  10.7277400  63.1492760
  63.9660290  10.1222870  62.4700540  65.2131820  10.7654710  63.0382120
  62.5078920   3.8153050  64.7652590  63.0593510   3.9248390  63.9905840
  63.0222430   4.1890650  65.4807820  72.3517610  14.3009270  66.8115860
  71.8748170  15.1081460  66.6188470  71.6679400  13.6487600  66.9642070
  63.3550430  10.4659090  69.8000560  62.4578960  10.6899060  70.0473960
  63.3803300  10.5894030  68.8511960  70.3955650   7.3152210  55.7141820
  70.8348930   6.4774640  55.5679640  71.1084070   7.9481610  55.8005960
  62.1821650   7.3372410  68.3757930  62.0429420   8.2095210  68.7445330
  61.3003010   6.9945220  68.2305870  68.5051030  12.2548280  59.6823060
  68.9446940  12.9972610  59.2678450  68.4437920  12.4974850  60.6062020
  63.9802000  13.2794110  70.5843080  63.9517430  13.6837060  69.7171510
  63.8166970  12.3504470  70.4214680  60.4954930   5.9354820  58.4860200
  60.3752530   6.6616910  57.8741470  60.1855820   5.1657730  58.0088110
  75.9316820  14.0621210  71.8807250  76.4076540  14.5404100  72.5596330
  76.5523980  13.9938700  71.1552750  58.1340300   9.1069960  64.2928840
  58.2120720   9.2418730  63.3484560  58.7481980   8.3985850  64.4856960
  59.3787930  10.8070150  60.7035020  58.9716010  10.9484740  59.8488620
  60.2700940  10.5230310  60.5006230  75.3350070  11.2534060  69.0407260
  75.4613130  11.0145940  68.1224440  75.3771450  10.4218600  69.5129340
  69.1966810  14.9562060  67.6102070  69.7111480  14.8670070  68.4124500
  68.3535890  15.3021760  67.9029980  71.1721210  15.2417400  57.0386070
  71.0122350  14.9520340  57.9367900  71.0067920  14.4657530  56.5031300
  63.6509590  15.0215930  58.8157690  63.4752070  14.1051470  58.6025490
  62.7965330  15.3803220  59.0555490  70.8747340  12.7504960  55.5984070
  70.1812500  12.7482250  54.9386350  71.6170200  12.3264280  55.1678240
  70.4397270  14.3767670  59.6732560  70.8954220  13.5957050  59.9871180
  70.7789790  15.0874490  60.2173740  75.1874080   3.3066520  70.0057000
  74.5718350   3.8146190  69.4772460  74.8670500   2.4064850  69.9482940
  58.1899820  10.1484130  66.8323300  58.3530860   9.6789490  66.0142670
  58.6552270   9.6407690  67.4972140  72.2492910   3.3667360  68.6015850
  71.3986500   3.0673110  68.9224920  72.0894700   3.6109370  67.6899670
  69.3442620   4.8669110  70.7014640  69.6696030   4.0332860  70.3616870
  70.1322950   5.3897630  70.8492970  62.7532810   4.4023460  59.5965120
  62.5273730   4.1860630  60.5011740  61.9725340   4.8351920  59.2511090
  69.9830570   4.4086830  58.1955770  69.3839460   5.1322630  58.0119390
  70.5310180   4.3463610  57.4132220  65.1932020   5.3009040  70.2625390
  65.0975620   4.3603770  70.1125790  66.0364000   5.5224110  69.8673460
  68.5895440   3.0450370  60.2259050  68.9825010   3.3622570  59.4127740
  68.9512290   2.1662250  60.3403570  57.8129840   3.5771290  53.6591970
  57.7304510   4.5202050  53.8006960  57.4612900   3.4346200  52.7804320
  69.1750580   5.6356120  64.3209830  68.4431700   6.1442930  64.6699930
  68.7774920   4.8186100  64.0198610  65.6127970   2.3110320  62.7262320
  65.6164030   1.8700270  61.8766860  66.5079090   2.6327650  62.8334140
  61.4630350   2.1936810  61.6856530  61.1230400   2.6712040  62.4423580
  60.7007670   1.7401930  61.3257630  65.6748120   3.3122400  55.7169080
  65.7960940   3.2708880  56.6654900  65.2896630   4.1746550  55.5615810
  64.6869620   5.6223540  55.1152380  64.1186520   5.1741790  54.4888290
  65.3958620   5.9816320  54.5817530  59.7638800   9.5235560  68.9919110
  59.3793590   8.8829230  69.5902070  60.0750990  10.2271680  69.5613840
  65.9135940   6.3712100  64.4727730  66.2806070   5.8970670  65.2189070
  65.7241000   7.2453670  64.8136070  63.7035310   5.4120740  66.7911940
  63.3992380   6.2912720  67.0162300  64.6581770   5.4720530  66.8269380
  62.2317100   9.6181730  57.3878790  61.4579360   9.0779350  57.2277510
  62.9611730   9.0988340  57.0496550  72.9905080   8.6147090  63.1805180
  73.7104200   9.1102380  62.7901290  72.7886900   7.9364980  62.5359050
  68.3723880   8.6856150  69.0674180  68.3061190   7.7651820  68.8131770
  67.7429020   8.7831590  69.7818820  71.1663410   4.3804700  55.6196730
  72.0543030   4.6921930  55.4448070  71.1368500   3.5076950  55.2277310
  62.2754500   9.2862110  61.0257600  62.7933170   8.4830370  60.9714490
  61.8238520   9.2241250  61.8674430  67.1624000  10.5528390  56.2984900
  67.5039700  11.2970620  55.8028220  66.3336710  10.8659510  56.6609730
  59.7599040   6.2523480  67.9383300  59.4013980   6.9177330  68.5256640
  59.4653600   5.4207030  68.3095920  62.9612160   6.7107720  70.8222850
  62.6612300   6.8564900  69.9250670  63.7323400   6.1513010  70.7296240
  68.3040610  11.5076720  68.8177980  68.3185150  10.5757680  68.5996890
  67.5965710  11.5936480  69.4567750  73.4377680   5.6916540  55.0876590
  73.3541400   6.1230760  54.2373030  74.1571870   6.1514890  55.5203410
  74.5151820   8.1484060  68.1646560  73.7900010   8.7412840  67.9675950
  75.0427280   8.1407600  67.3659930  74.4664930  12.5458800  57.8158720
  73.8241090  11.8914420  58.0902440  74.0795590  12.9513890  57.0399390
  70.0451410   9.8744230  61.6630410  70.3975230   9.2772360  61.0031780
  69.1613740   9.5488460  61.8338660  66.1314690  10.6341920  59.0700820
  66.8185820  11.1811130  59.4508410  65.3447110  11.1782650  59.1050430
  58.2707090   6.2514740  54.5617900  59.1401940   6.5339540  54.8453820
  57.7797410   7.0650610  54.4466710  65.4341900   7.6387950  58.6826180
  65.8904680   8.4493200  58.9086370  65.0830110   7.3211090  59.5144670
  67.7374510  13.1494290  65.9118480  68.3816730  13.3553670  66.5891900
  68.1003950  12.3882690  65.4589330  69.0106590  11.1526640  64.6295930
  69.6528820  10.4519800  64.7428100  69.5355940  11.9325080  64.4492820
  70.7844210  11.9521540  67.8331990  71.1200450  12.5388230  68.5109910
  69.8644550  11.8214250  68.0629780  58.6378340  15.4642120  55.1279530
  58.9975980  16.0631460  54.4736800  58.4970680  16.0102010  55.9014560
  72.4378560   9.3547200  56.0149230  72.1500260   9.8159890  56.8027110
  73.2330730   8.8944970  56.2833450  58.6220200  13.7296980  69.6021930
  58.7311320  12.7891720  69.4617320  57.9700760  13.9951730  68.9535660
  66.6132790  12.0012870  71.0020050  66.2929660  11.2822110  71.5465740
  65.9391150  12.6767940  71.0756110  64.6546960  12.8473320  55.9453200
  64.6457060  13.5803010  55.3297710  63.7345320  12.6004900  56.0380160
  60.2553600   8.0688210  56.6899960  59.6481550   8.8087110  56.6995260
  60.7302950   8.1587570  55.8638160  67.6406560  12.9101560  54.6078390
  67.7418540  12.7065550  53.6780370  66.7408300  12.6559840  54.8126170
  65.1632450   3.4681920  58.5902290  64.4548600   3.9368260  59.0315900
  65.4476930   2.8103930  59.2247480  66.7888380   4.8878620  66.5894820
  67.2873630   5.3624440  67.2546670  66.9311330   3.9642140  66.7964850
  66.2824670  15.4287880  59.3026060  66.5366170  15.3909270  58.3805430
  65.3337150  15.3021210  59.2954310  63.3667470   1.7767000  55.9653000
  64.2158000   2.2137150  55.8993190  62.9998740   2.0887260  56.7925060
  72.2877250   6.3479760  60.8784570  71.3467390   6.3629990  61.0532260
  72.6021320   5.5615720  61.3244870  62.2658890   8.0299360  54.4388530
  63.0322160   7.9180720  55.0013960  62.3433580   7.3337330  53.7865300
  60.9605650   5.4624430  55.1221420  61.0409240   4.5151940  55.2338820
  61.8525400   5.7931310  55.2282080  74.2902830  13.5188610  62.5538830
  74.4150250  14.3419780  63.0262640  75.1568390  13.3079340  62.2062980
  61.7620360  15.6119820  62.2255960  62.4982840  15.0635280  62.4964530
  62.1461280  16.4775830  62.0861950  58.6465840  11.6793390  58.0997470
  57.7205620  11.9214530  58.0902880  59.1122270  12.5067650  57.9782220
  60.7678640  14.7965890  71.4141540  61.5691370  15.1177940  71.8276940
  60.2530460  14.4361470  72.1361450  64.8722670  14.7850130  54.0481530
  65.6651280  15.0738960  53.5963320  64.3527020  14.3542300  53.3694010
  69.6043270  10.9045760  71.3616950  68.9981430  10.9277360  70.6212700
  69.2997380  10.1728800  71.8984200  71.0343640  14.6326050  69.9726360
  71.9865390  14.5484070  69.9226600  70.8871860  15.2967760  70.6460150
  73.9252840  14.0120260  55.4718270  73.6394350  13.5985400  54.6572450
  73.7272390  14.9407970  55.3518790  58.4876450   7.2839350  70.3577590
  58.9915470   6.7046630  70.9293820  57.7483870   7.5679580  70.8953960
  65.3900070  10.0053540  53.9123880  65.2850710   9.3905890  54.6385260
  65.2224290   9.4819430  53.1286890  65.5414390   8.6910340  69.8913110
  64.7760060   9.2595340  69.8067780  65.7230350   8.3986550  68.9981340
  68.6302800   9.0673570  54.5165870  68.0812900   9.5142870  55.1608610
  69.2522060   8.5622820  55.0403540  72.6837740  10.4215670  70.4488130
  73.4247210  10.7591430  69.9455590  71.9210420  10.5907730  69.8957900
  60.5199530   5.4268940  71.2527660  60.5604870   5.1282810  72.1612890
  61.3745030   5.8276550  71.0935180  64.2977920   8.0264490  56.4131170
  64.7194340   7.8604360  57.2562560  64.4228760   7.2164720  55.9186310
  62.4605340   4.0061040  69.2202150  61.9301800   3.5151990  68.5925490
  63.1293410   4.4345240  68.6860080  66.8105560   7.0502100  53.6608270
  67.3311220   6.3351120  53.2949420  67.4573960   7.6887970  53.9608780
  71.3583400   8.4730500  68.9843340  71.7724420   8.6275580  69.8333760
  70.4234400   8.5985720  69.1469120  71.8305570   5.8126660  70.9882490
  72.4126340   5.0578980  70.9002970  72.0067340   6.3434100  70.2113970
  66.1198630   8.4250980  66.9539270  66.5386740   9.2683710  66.7815510
  65.2007260   8.5623020  66.7246050  68.4562530   6.1567160  68.3377110
  68.5758740   5.5608300  69.0771950  69.3156530   6.1936850  67.9178410
  70.7950430   6.7104350  66.9139620  70.2685650   7.2346970  66.3104760
  71.1381770   7.3431740  67.5449350  63.1936820   4.0997720  53.3589330
  62.9925880   3.2365080  53.7202670  63.0228870   4.0131080  52.4210930
  63.9706050  14.7303990  68.0697000  63.4327140  15.4550050  67.7505700
  64.2240010  14.2534330  67.2794340  65.2231300   2.6988510  69.5952930
  65.8130990   2.3904360  70.2830750  64.4051540   2.2268260  69.7512830
  70.0424730   2.3154320  69.8285950  69.3540250   1.6535860  69.7635940
  70.7630750   1.8692590  70.2734410  66.8268260  15.9655200  68.3283650
  66.7526960  16.8690340  68.6356020  65.9247100  15.6467100  68.3005720
  67.3753590  15.1313710  55.9510010  68.2704380  15.4698680  55.9728770
  67.4071220  14.4093120  55.3234290  61.0149750  10.5040760  54.1797010
  61.4524620  11.0470430  54.8354590  61.4997480   9.6787710  54.1893350
  58.2295550  13.2929790  61.6317270  58.5598560  12.4250850  61.3995910
  58.6586550  13.4988310  62.4622230  62.8257470  11.6238800  59.2919240
  62.5253010  11.5003770  60.1923150  62.7194960  10.7647390  58.8834970
  58.7185760  14.1600380  64.3698900  58.2816750  14.3401180  65.2023050
  59.2863440  14.9175000  64.2280620  74.3547940  13.6617380  68.6576210
  73.7549930  13.7209940  67.9140130  74.4841840  12.7222360  68.7873060
  75.5949390  11.4035200  53.9945920  74.7642350  11.4711850  54.4653150
  75.7721220  12.2939320  53.6912780  75.0505850   8.1482680  56.4980120
  75.8124760   8.7179330  56.6039810  75.0660220   7.5809880  57.2688430
  58.5510190   6.6720610  60.7287780  57.8959030   6.4032250  60.0847480
  59.3888140   6.5625090  60.2789760  76.0565820   9.0032780  61.3422050
  76.4274650   8.2200100  60.9358020  76.6967750   9.6921880  61.1639350
  73.0399580  10.3869360  66.7552370  72.2259420  10.8166520  67.0178160
  73.4473780  10.9987770  66.1421420  75.1025020   8.4417050  53.6552640
  75.3773860   9.3495930  53.5271860  74.9135760   8.3779580  54.5914630
  74.9990360   6.3786040  58.6482070  74.6233960   5.6113970  58.2163360
  74.2693480   6.7608740  59.1357000  59.5886120   7.0573180  65.2691120
  59.9559160   6.9700580  66.1487140  59.0196940   6.2939730  65.1697980
  74.3889980   5.5257560  68.2821590  74.1576070   5.2970310  67.3819540
  74.6494530   6.4457110  68.2366480  59.1402120   3.9682270  69.1749540
  58.2458170   3.9349030  69.5143250  59.6799670   4.1669060  69.9400790
  57.7648270   3.8819540  56.6713110  56.8612350   4.1449740  56.4964770
  58.2488890   4.1530710  55.8913070  74.2741320   4.6043530  61.9489310
  74.7978800   4.1106180  61.3179480  74.8600740   4.7393890  62.6936880
  74.4531040   4.6883400  65.4708860  73.5033750   4.6546940  65.5853850
  74.6344050   5.5983510  65.2358630  60.3075480   2.9385080  54.5807490
  61.0167180   2.5168300  54.0954770  59.5915420   3.0060310  53.9490840
  73.7641290   3.8616880  57.8881720  74.2600410   3.6287750  58.6730600
  73.5657360   3.0228720  57.4719360  75.1928450   2.4977830  60.4219400
  75.0827730   2.3433870  61.3601670  75.9536040   1.9698770  60.1794810
  73.0975630  15.1387960  60.2820640  73.6934700  14.8172530  59.6055060
  73.3553780  14.6659780  61.0733910  61.0038200  11.5705870  70.4311270
  60.9607830  11.1998780  71.3125730  61.1349210  12.5083440  70.5713090
  64.7044230  13.1265460  66.0320990  64.4635590  13.3940020  65.1451510
  65.6446870  13.2971190  66.0871850  75.9648390  15.1459840  66.8331630
  75.4706670  15.5428710  66.1158760  75.3561680  14.5209050  67.2268910
  60.8426230  14.5168120  67.5509050  60.2486550  14.3852820  68.2899090
  60.8350070  13.6806260  67.0851150  73.6487840  15.7883260  64.1118370
  73.1890810  16.5399070  63.7376390  73.0200300  15.0689730  64.0533170
  60.4738460  11.8826500  66.5017090  59.7472520  11.2631790  66.4343040
  60.5347610  12.2767110  65.6315170  64.0783560  14.0971500  63.2866500
  64.5948580  13.4858860  62.7614760  64.7280940  14.6000280  63.7777510
  66.8179060  14.9879990  64.1135480  67.1056870  14.7334290  63.2368490
  67.3302280  14.4357350  64.7041050  58.7568460  15.2000890  59.7113850
  58.5890500  14.5671570  60.4095740  57.8902970  15.4060290  59.3608040
  60.3631160  13.8934120  57.1563990  59.8378780  14.2742150  56.4525950
  60.2875740  14.5184890  57.8773700  66.8851420  15.9096090  71.4803680
  67.8118730  15.6740360  71.5239640  66.8701850  16.7368090  70.9989710
  75.1196480  15.4521660  58.4777930  75.2948670  14.7659400  57.8338850
  74.4218050  15.9768710  58.0854600  62.9624130  15.8416500  56.0313240
  63.6942950  15.5575780  55.4837130  63.2217800  15.6029780  56.9212620
  62.1238920  11.9581230  56.0359570  61.4947800  12.4266330  56.5845400
  62.2386750  11.1130450  56.4705760  73.4528980  15.1365950  71.3044720
  74.2454300  14.6415180  71.0970680  73.7462130  15.8156090  71.9120330
  69.5788640   6.0086890  42.1860770  69.4982690   5.0941500  41.9152480
  69.1653060   6.5053960  41.4800480  67.7106680   7.7865910  44.0670040
  66.9348780   7.3066350  44.3568610  68.3619610   7.1071560  43.8926200
  61.7272510   8.0985720  44.9445800  60.8957390   7.8434430  45.3442310
  62.3353490   8.1696490  45.6803720  71.7314110  12.1926100  42.8469170
  71.2695640  11.4213340  43.1756340  72.5439660  12.2192170  43.3521620
  61.7073770  12.1325810  45.1403820  62.0101810  11.2423550  44.9614040
  62.4517360  12.6896030  44.9126070  60.1364460   3.0587610  38.7288190
  59.2481160   3.4003580  38.6268070  60.4205650   2.8587930  37.8369020
  58.0997470   5.6593260  44.6127890  58.6713580   4.8915460  44.6131530
  58.0999010   5.9582020  43.7034500  67.9577420  14.4784110  42.4673160
  67.3388860  14.9341610  41.8967600  68.8129200  14.6335570  42.0662860
  67.1515670  10.4623100  44.0740200  67.0823950   9.5213040  43.9129330
  67.9135530  10.5524510  44.6462770  68.1820840   3.2693480  44.3009130
  68.5585660   2.3965360  44.1882800  68.0840350   3.6052180  43.4099570
  59.9609010   3.5638120  45.0079160  60.6419120   3.8276490  45.6266560
  59.6457060   2.7238990  45.3417170  64.1533580   4.6105480  44.0951750
  64.6611800   5.1086450  44.7356770  64.6846820   3.8340680  43.9191110
  76.2544510   2.7810670  47.7981100  75.5496680   3.1692380  47.2796210
  76.5202430   3.4760960  48.4002030  68.8240770   9.3623350  39.8605070
  68.2058040   9.8272800  39.2967790  69.3364020  10.0550830  40.2774580
  63.6872530   8.8899220  46.5388670  63.3541910   9.5168140  47.1809740
  63.8639210   9.4161100  45.7590340  72.2006440   2.7044300  44.0065010
  71.4962010   2.9929190  44.5868120  72.5618600   3.5144410  43.6464570
  62.8991630  10.8580020  48.3537850  63.5165630  11.5331100  48.0722300
  62.0384750  11.2668000  48.2625350  58.1923970  10.0479880  37.2344700
  57.8151950  10.5366980  36.5029600  58.4497040  10.7205160  37.8651230
  73.8169220  12.3219430  46.2692490  73.1332740  12.9918540  46.2609160
  74.3563510  12.5200080  45.5037350  75.2693360   2.1499090  44.3974220
  74.3218270   2.1838070  44.5289650  75.5943350   2.9638040  44.7823580
  71.3527960  14.1663560  44.9837670  71.3655120  13.7625850  44.1159930
  70.8003180  14.9410850  44.8799100  72.6473380  10.8879780  40.0727840
  72.5369710   9.9454110  40.1977260  72.6441630  11.2495420  40.9590600
  70.7513400   9.0693400  46.3120280  71.1682190   8.8553510  45.4773740
  71.4753220   9.3266190  46.8828900  68.1893660   6.5145100  39.4290330
  67.2622940   6.4482480  39.6578800  68.3418480   7.4525230  39.3145570
  68.1762740   2.7862100  36.4257490  67.2366410   2.9476060  36.5109950
  68.4946000   3.5047780  35.8793480  74.6975500   7.4680620  46.4036520
  73.8694130   7.5373710  45.9286650  75.2925980   8.0534930  45.9352350
  72.2190950   8.0765400  39.9325580  71.6003370   7.7384950  39.2851880
  72.2015400   7.4325160  40.6404770  71.6617510   4.2549940  47.3491390
  71.2488690   5.0803650  47.6031380  70.9293460   3.6694980  47.1567750
  63.7950300   7.0409840  42.2110060  63.3907300   6.3287090  41.7155960
  63.8813420   6.6963080  43.0998100  64.2632000  10.7277400  44.3749270
  63.9660290  10.1222870  43.6957050  65.2131820  10.7654710  44.2638630
  62.5078920   3.8153050  45.9909100  63.0593510   3.9248390  45.2162350
  63.0222430   4.1890650  46.7064330  72.3517610  14.3009270  48.0372370
  71.8748170  15.1081460  47.8444980  71.6679400  13.6487600  48.1898580
  63.3550430  10.4659090  51.0257070  62.4578960  10.6899060  51.2730470
  63.3803300  10.5894030  50.0768470  70.3955650   7.3152210  36.9398330
  70.8348930   6.4774640  36.7936150  71.1084070   7.9481610  37.0262470
  62.1821650   7.3372410  49.6014440  62.0429420   8.2095210  49.9701840
  61.3003010   6.9945220  49.4562380  68.5051030  12.2548280  40.9079570
  68.9446940  12.9972610  40.4934960  68.4437920  12.4974850  41.8318530
  63.9802000  13.2794110  51.8099590  63.9517430  13.6837060  50.9428020
  63.8166970  12.3504470  51.6471190  60.4954930   5.9354820  39.7116710
  60.3752530   6.6616910  39.0997980  60.1855820   5.1657730  39.2344620
  75.9316820  14.0621210  53.1063760  76.4076540  14.5404100  53.7852840
  76.5523980  13.9938700  52.3809260  58.1340300   9.1069960  45.5185350
  58.2120720   9.2418730  44.5741070  58.7481980   8.3985850  45.7113470
  59.3787930  10.8070150  41.9291530  58.9716010  10.9484740  41.0745130
  60.2700940  10.5230310  41.7262740  75.3350070  11.2534060  50.2663770
  75.4613130  11.0145940  49.3480950  75.3771450  10.4218600  50.7385850
  69.1966810  14.9562060  48.8358580  69.7111480  14.8670070  49.6381010
  68.3535890  15.3021760  49.1286490  71.1721210  15.2417400  38.2642580
  71.0122350  14.9520340  39.1624410  71.0067920  14.4657530  37.7287810
  63.6509590  15.0215930  40.0414200  63.4752070  14.1051470  39.8282000
  62.7965330  15.3803220  40.2812000  70.8747340  12.7504960  36.8240580
  70.1812500  12.7482250  36.1642860  71.6170200  12.3264280  36.3934750
  70.4397270  14.3767670  40.8989070  70.8954220  13.5957050  41.2127690
  70.7789790  15.0874490  41.4430250  75.1874080   3.3066520  51.2313510
  74.5718350   3.8146190  50.7028970  74.8670500   2.4064850  51.1739450
  58.1899820  10.1484130  48.0579810  58.3530860   9.6789490  47.2399180
  58.6552270   9.6407690  48.7228650  72.2492910   3.3667360  49.8272360
  71.3986500   3.0673110  50.1481430  72.0894700   3.6109370  48.9156180
  69.3442620   4.8669110  51.9271150  69.6696030   4.0332860  51.5873380
  70.1322950   5.3897630  52.0749480  62.7532810   4.4023460  40.8221630
  62.5273730   4.1860630  41.7268250  61.9725340   4.8351920  40.4767600
  69.9830570   4.4086830  39.4212280  69.3839460   5.1322630  39.2375900
  70.5310180   4.3463610  38.6388730  65.1932020   5.3009040  51.4881900
  65.0975620   4.3603770  51.3382300  66.0364000   5.5224110  51.0929970
  68.5895440   3.0450370  41.4515560  68.9825010   3.3622570  40.6384250
  68.9512290   2.1662250  41.5660080  57.8129840   3.5771290  34.8848480
  57.7304510   4.5202050  35.0263470  57.4612900   3.4346200  34.0060830
  69.1750580   5.6356120  45.5466340  68.4431700   6.1442930  45.8956440
  68.7774920   4.8186100  45.2455120  65.6127970   2.3110320  43.9518830
  65.6164030   1.8700270  43.1023370  66.5079090   2.6327650  44.0590650
  61.4630350   2.1936810  42.9113040  61.1230400   2.6712040  43.6680090
  60.7007670   1.7401930  42.5514140  65.6748120   3.3122400  36.9425590
  65.7960940   3.2708880  37.8911410  65.2896630   4.1746550  36.7872320
  64.6869620   5.6223540  36.3408890  64.1186520   5.1741790  35.7144800
  65.3958620   5.9816320  35.8074040  59.7638800   9.5235560  50.2175620
  59.3793590   8.8829230  50.8158580  60.0750990  10.2271680  50.7870350
  65.9135940   6.3712100  45.6984240  66.2806070   5.8970670  46.4445580
  65.7241000   7.2453670  46.0392580  63.7035310   5.4120740  48.0168450
  63.3992380   6.2912720  48.2418810  64.6581770   5.4720530  48.0525890
  62.2317100   9.6181730  38.6135300  61.4579360   9.0779350  38.4534020
  62.9611730   9.0988340  38.2753060  72.9905080   8.6147090  44.4061690
  73.7104200   9.1102380  44.0157800  72.7886900   7.9364980  43.7615560
  68.3723880   8.6856150  50.2930690  68.3061190   7.7651820  50.0388280
  67.7429020   8.7831590  51.0075330  71.1663410   4.3804700  36.8453240
  72.0543030   4.6921930  36.6704580  71.1368500   3.5076950  36.4533820
  62.2754500   9.2862110  42.2514110  62.7933170   8.4830370  42.1971000
  61.8238520   9.2241250  43.0930940  67.1624000  10.5528390  37.5241410
  67.5039700  11.2970620  37.0284730  66.3336710  10.8659510  37.8866240
  59.7599040   6.2523480  49.1639810  59.4013980   6.9177330  49.7513150
  59.4653600   5.4207030  49.5352430  62.9612160   6.7107720  52.0479360
  62.6612300   6.8564900  51.1507180  63.7323400   6.1513010  51.9552750
  68.3040610  11.5076720  50.0434490  68.3185150  10.5757680  49.8253400
  67.5965710  11.5936480  50.6824260  73.4377680   5.6916540  36.3133100
  73.3541400   6.1230760  35.4629540  74.1571870   6.1514890  36.7459920
  74.5151820   8.1484060  49.3903070  73.7900010   8.7412840  49.1932460
  75.0427280   8.1407600  48.5916440  74.4664930  12.5458800  39.0415230
  73.8241090  11.8914420  39.3158950  74.0795590  12.9513890  38.2655900
  70.0451410   9.8744230  42.8886920  70.3975230   9.2772360  42.2288290
  69.1613740   9.5488460  43.0595170  66.1314690  10.6341920  40.2957330
  66.8185820  11.1811130  40.6764920  65.3447110  11.1782650  40.3306940
  58.2707090   6.2514740  35.7874410  59.1401940   6.5339540  36.0710330
  57.7797410   7.0650610  35.6723220  65.4341900   7.6387950  39.9082690
  65.8904680   8.4493200  40.1342880  65.0830110   7.3211090  40.7401180
  67.7374510  13.1494290  47.1374990  68.3816730  13.3553670  47.8148410
  68.1003950  12.3882690  46.6845840  69.0106590  11.1526640  45.8552440
  69.6528820  10.4519800  45.9684610  69.5355940  11.9325080  45.6749330
  72.8562310  11.4375260  35.5791580  72.6299890  10.7205700  36.1716220
  72.4658510  11.1887700  34.7413330  70.7844210  11.9521540  49.0588500
  71.1200450  12.5388230  49.7366420  69.8644550  11.8214250  49.2886290
  58.6378340  15.4642120  36.3536040  58.9975980  16.0631460  35.6993310
  58.4970680  16.0102010  37.1271070  72.4378560   9.3547200  37.2405740
  72.1500260   9.8159890  38.0283620  73.2330730   8.8944970  37.5089960
  58.6220200  13.7296980  50.8278440  58.7311320  12.7891720  50.6873830
  57.9700760  13.9951730  50.1792170  66.6132790  12.0012870  52.2276560
  66.2929660  11.2822110  52.7722250  65.9391150  12.6767940  52.3012620
  64.6546960  12.8473320  37.1709710  64.6457060  13.5803010  36.5554220
  63.7345320  12.6004900  37.2636670  60.2553600   8.0688210  37.9156470
  59.6481550   8.8087110  37.9251770  60.7302950   8.1587570  37.0894670
  67.6406560  12.9101560  35.8334900  67.7418540  12.7065550  34.9036880
  66.7408300  12.6559840  36.0382680  65.1632450   3.4681920  39.8158800
  64.4548600   3.9368260  40.2572410  65.4476930   2.8103930  40.4503990
  66.7888380   4.8878620  47.8151330  67.2873630   5.3624440  48.4803180
  66.9311330   3.9642140  48.0221360  66.2824670  15.4287880  40.5282570
  66.5366170  15.3909270  39.6061940  65.3337150  15.3021210  40.5210820
  63.3667470   1.7767000  37.1909510  64.2158000   2.2137150  37.1249700
  62.9998740   2.0887260  38.0181570  72.2877250   6.3479760  42.1041080
  71.3467390   6.3629990  42.2788770  72.6021320   5.5615720  42.5501380
  62.2658890   8.0299360  35.6645040  63.0322160   7.9180720  36.2270470
  62.3433580   7.3337330  35.0121810  60.9605650   5.4624430  36.3477930
  61.0409240   4.5151940  36.4595330  61.8525400   5.7931310  36.4538590
  74.2902830  13.5188610  43.7795340  74.4150250  14.3419780  44.2519150
  75.1568390  13.3079340  43.4319490  61.7620360  15.6119820  43.4512470
  62.4982840  15.0635280  43.7221040  62.1461280  16.4775830  43.3118460
  58.6465840  11.6793390  39.3253980  57.7205620  11.9214530  39.3159390
  59.1122270  12.5067650  39.2038730  60.7678640  14.7965890  52.6398050
  61.5691370  15.1177940  53.0533450  60.2530460  14.4361470  53.3617960
  64.8722670  14.7850130  35.2738040  65.6651280  15.0738960  34.8219830
  64.3527020  14.3542300  34.5950520  69.6043270  10.9045760  52.5873460
  68.9981430  10.9277360  51.8469210  69.2997380  10.1728800  53.1240710
  71.0343640  14.6326050  51.1982870  71.9865390  14.5484070  51.1483110
  70.8871860  15.2967760  51.8716660  73.9252840  14.0120260  36.6974780
  73.6394350  13.5985400  35.8828960  73.7272390  14.9407970  36.5775300
  58.4876450   7.2839350  51.5834100  58.9915470   6.7046630  52.1550330
  57.7483870   7.5679580  52.1210470  65.3900070  10.0053540  35.1380390
  65.2850710   9.3905890  35.8641770  65.2224290   9.4819430  34.3543400
  65.5414390   8.6910340  51.1169620  64.7760060   9.2595340  51.0324290
  65.7230350   8.3986550  50.2237850  68.6302800   9.0673570  35.7422380
  68.0812900   9.5142870  36.3865120  69.2522060   8.5622820  36.2660050
  72.6837740  10.4215670  51.6744640  73.4247210  10.7591430  51.1712100
  71.9210420  10.5907730  51.1214410  60.5199530   5.4268940  52.4784170
  60.5604870   5.1282810  53.3869400  61.3745030   5.8276550  52.3191690
  64.2977920   8.0264490  37.6387680  64.7194340   7.8604360  38.4819070
  64.4228760   7.2164720  37.1442820  62.4605340   4.0061040  50.4458660
  61.9301800   3.5151990  49.8182000  63.1293410   4.4345240  49.9116590
  66.8105560   7.0502100  34.8864780  67.3311220   6.3351120  34.5205930
  67.4573960   7.6887970  35.1865290  71.3583400   8.4730500  50.2099850
  71.7724420   8.6275580  51.0590270  70.4234400   8.5985720  50.3725630
  71.8305570   5.8126660  52.2139000  72.4126340   5.0578980  52.1259480
  72.0067340   6.3434100  51.4370480  66.1198630   8.4250980  48.1795780
  66.5386740   9.2683710  48.0072020  65.2007260   8.5623020  47.9502560
  68.4562530   6.1567160  49.5633620  68.5758740   5.5608300  50.3028460
  69.3156530   6.1936850  49.1434920  70.7950430   6.7104350  48.1396130
  70.2685650   7.2346970  47.5361270  71.1381770   7.3431740  48.7705860
  63.1936820   4.0997720  34.5845840  62.9925880   3.2365080  34.9459180
  63.0228870   4.0131080  33.6467440  63.9706050  14.7303990  49.2953510
  63.4327140  15.4550050  48.9762210  64.2240010  14.2534330  48.5050850
  65.2231300   2.6988510  50.8209440  65.8130990   2.3904360  51.5087260
  64.4051540   2.2268260  50.9769340  70.0424730   2.3154320  51.0542460
  69.3540250   1.6535860  50.9892450  70.7630750   1.8692590  51.4990920
  66.8268260  15.9655200  49.5540160  66.7526960  16.8690340  49.8612530
  65.9247100  15.6467100  49.5262230  67.3753590  15.1313710  37.1766520
  68.2704380  15.4698680  37.1985280  67.4071220  14.4093120  36.5490800
  61.0149750  10.5040760  35.4053520  61.4524620  11.0470430  36.0611100
  61.4997480   9.6787710  35.4149860  58.2295550  13.2929790  42.8573780
  58.5598560  12.4250850  42.6252420  58.6586550  13.4988310  43.6878740
  62.8257470  11.6238800  40.5175750  62.5253010  11.5003770  41.4179660
  62.7194960  10.7647390  40.1091480  58.7185760  14.1600380  45.5955410
  58.2816750  14.3401180  46.4279560  59.2863440  14.9175000  45.4537130
  74.3547940  13.6617380  49.8832720  73.7549930  13.7209940  49.1396640
  74.4841840  12.7222360  50.0129570  75.5949390  11.4035200  35.2202430
  74.7642350  11.4711850  35.6909660  75.7721220  12.2939320  34.9169290
  75.0505850   8.1482680  37.7236630  75.8124760   8.7179330  37.8296320
  75.0660220   7.5809880  38.4944940  58.5510190   6.6720610  41.9544290
  57.8959030   6.4032250  41.3103990  59.3888140   6.5625090  41.5046270
  76.0565820   9.0032780  42.5678560  76.4274650   8.2200100  42.1614530
  76.6967750   9.6921880  42.3895860  73.0399580  10.3869360  47.9808880
  72.2259420  10.8166520  48.2434670  73.4473780  10.9987770  47.3677930
  75.1025020   8.4417050  34.8809150  75.3773860   9.3495930  34.7528370
  74.9135760   8.3779580  35.8171140  74.9990360   6.3786040  39.8738580
  74.6233960   5.6113970  39.4419870  74.2693480   6.7608740  40.3613510
  59.5886120   7.0573180  46.4947630  59.9559160   6.9700580  47.3743650
  59.0196940   6.2939730  46.3954490  74.3889980   5.5257560  49.5078100
  74.1576070   5.2970310  48.6076050  74.6494530   6.4457110  49.4622990
  59.1402120   3.9682270  50.4006050  58.2458170   3.9349030  50.7399760
  59.6799670   4.1669060  51.1657300  57.7648270   3.8819540  37.8969620
  56.8612350   4.1449740  37.7221280  58.2488890   4.1530710  37.1169580
  74.2741320   4.6043530  43.1745820  74.7978800   4.1106180  42.5435990
  74.8600740   4.7393890  43.9193390  74.4531040   4.6883400  46.6965370
  73.5033750   4.6546940  46.8110360  74.6344050   5.5983510  46.4615140
  60.3075480   2.9385080  35.8064000  61.0167180   2.5168300  35.3211280
  59.5915420   3.0060310  35.1747350  73.7641290   3.8616880  39.1138230
  74.2600410   3.6287750  39.8987110  73.5657360   3.0228720  38.6975870
  75.1928450   2.4977830  41.6475910  75.0827730   2.3433870  42.5858180
  75.9536040   1.9698770  41.4051320  73.0975630  15.1387960  41.5077150
  73.6934700  14.8172530  40.8311570  73.3553780  14.6659780  42.2990420
  61.0038200  11.5705870  51.6567780  60.9607830  11.1998780  52.5382240
  61.1349210  12.5083440  51.7969600  64.7044230  13.1265460  47.2577500
  64.4635590  13.3940020  46.3708020  65.6446870  13.2971190  47.3128360
  75.9648390  15.1459840  48.0588140  75.4706670  15.5428710  47.3415270
  75.3561680  14.5209050  48.4525420  60.8426230  14.5168120  48.7765560
  60.2486550  14.3852820  49.5155600  60.8350070  13.6806260  48.3107660
  73.6487840  15.7883260  45.3374880  73.1890810  16.5399070  44.9632900
  73.0200300  15.0689730  45.2789680  60.4738460  11.8826500  47.7273600
  59.7472520  11.2631790  47.6599550  60.5347610  12.2767110  46.8571680
  64.0783560  14.0971500  44.5123010  64.5948580  13.4858860  43.9871270
  64.7280940  14.6000280  45.0034020  66.8179060  14.9879990  45.3391990
  67.1056870  14.7334290  44.4625000  67.3302280  14.4357350  45.9297560
  58.7568460  15.2000890  40.9370360  58.5890500  14.5671570  41.6352250
  57.8902970  15.4060290  40.5864550  60.3631160  13.8934120  38.3820500
  59.8378780  14.2742150  37.6782460  60.2875740  14.5184890  39.1030210
  66.8851420  15.9096090  52.7060190  67.8118730  15.6740360  52.7496150
  66.8701850  16.7368090  52.2246220  75.1196480  15.4521660  39.7034440
  75.2948670  14.7659400  39.0595360  74.4218050  15.9768710  39.3111110
  62.9624130  15.8416500  37.2569750  63.6942950  15.5575780  36.7093640
  63.2217800  15.6029780  38.1469130  62.1238920  11.9581230  37.2616080
  61.4947800  12.4266330  37.8101910  62.2386750  11.1130450  37.6962270
  73.4528980  15.1365950  52.5301230  74.2454300  14.6415180  52.3227190
  73.7462130  15.8156090  53.1376840  69.5788640   6.0086890  23.4117280
  69.4982690   5.0941500  23.1408990  69.1653060   6.5053960  22.7056990
  67.7106680   7.7865910  25.2926550  66.9348780   7.3066350  25.5825120
  68.3619610   7.1071560  25.1182710  61.7272510   8.0985720  26.1702310
  60.8957390   7.8434430  26.5698820  62.3353490   8.1696490  26.9060230
  71.7314110  12.1926100  24.0725680  71.2695640  11.4213340  24.4012850
  72.5439660  12.2192170  24.5778130  61.7073770  12.1325810  26.3660330
  62.0101810  11.2423550  26.1870550  62.4517360  12.6896030  26.1382580
  60.1364460   3.0587610  19.9544700  59.2481160   3.4003580  19.8524580
  60.4205650   2.8587930  19.0625530  58.0997470   5.6593260  25.8384400
  58.6713580   4.8915460  25.8388040  58.0999010   5.9582020  24.9291010
  67.9577420  14.4784110  23.6929670  67.3388860  14.9341610  23.1224110
  68.8129200  14.6335570  23.2919370  67.1515670  10.4623100  25.2996710
  67.0823950   9.5213040  25.1385840  67.9135530  10.5524510  25.8719280
  68.1820840   3.2693480  25.5265640  68.5585660   2.3965360  25.4139310
  68.0840350   3.6052180  24.6356080  59.9609010   3.5638120  26.2335670
  60.6419120   3.8276490  26.8523070  59.6457060   2.7238990  26.5673680
  64.1533580   4.6105480  25.3208260  64.6611800   5.1086450  25.9613280
  64.6846820   3.8340680  25.1447620  76.2544510   2.7810670  29.0237610
  75.5496680   3.1692380  28.5052720  76.5202430   3.4760960  29.6258540
  68.8240770   9.3623350  21.0861580  68.2058040   9.8272800  20.5224300
  69.3364020  10.0550830  21.5031090  63.6872530   8.8899220  27.7645180
  63.3541910   9.5168140  28.4066250  63.8639210   9.4161100  26.9846850
  72.2006440   2.7044300  25.2321520  71.4962010   2.9929190  25.8124630
  72.5618600   3.5144410  24.8721080  62.8991630  10.8580020  29.5794360
  63.5165630  11.5331100  29.2978810  62.0384750  11.2668000  29.4881860
  58.1923970  10.0479880  18.4601210  57.8151950  10.5366980  17.7286110
  58.4497040  10.7205160  19.0907740  73.8169220  12.3219430  27.4949000
  73.1332740  12.9918540  27.4865670  74.3563510  12.5200080  26.7293860
  75.2693360   2.1499090  25.6230730  74.3218270   2.1838070  25.7546160
  75.5943350   2.9638040  26.0080090  71.3527960  14.1663560  26.2094180
  71.3655120  13.7625850  25.3416440  70.8003180  14.9410850  26.1055610
  72.6473380  10.8879780  21.2984350  72.5369710   9.9454110  21.4233770
  72.6441630  11.2495420  22.1847110  70.7513400   9.0693400  27.5376790
  71.1682190   8.8553510  26.7030250  71.4753220   9.3266190  28.1085410
  68.1893660   6.5145100  20.6546840  67.2622940   6.4482480  20.8835310
  68.3418480   7.4525230  20.5402080  68.1762740   2.7862100  17.6514000
  67.2366410   2.9476060  17.7366460  68.4946000   3.5047780  17.1049990
  74.6975500   7.4680620  27.6293030  73.8694130   7.5373710  27.1543160
  75.2925980   8.0534930  27.1608860  72.2190950   8.0765400  21.1582090
  71.6003370   7.7384950  20.5108390  72.2015400   7.4325160  21.8661280
  71.6617510   4.2549940  28.5747900  71.2488690   5.0803650  28.8287890
  70.9293460   3.6694980  28.3824260  63.7950300   7.0409840  23.4366570
  63.3907300   6.3287090  22.9412470  63.8813420   6.6963080  24.3254610
  64.2632000  10.7277400  25.6005780  63.9660290  10.1222870  24.9213560
  65.2131820  10.7654710  25.4895140  62.5078920   3.8153050  27.2165610
  63.0593510   3.9248390  26.4418860  63.0222430   4.1890650  27.9320840
  72.3517610  14.3009270  29.2628880  71.8748170  15.1081460  29.0701490
  71.6679400  13.6487600  29.4155090  63.3550430  10.4659090  32.2513580
  62.4578960  10.6899060  32.4986980  63.3803300  10.5894030  31.3024980
  70.3955650   7.3152210  18.1654840  70.8348930   6.4774640  18.0192660
  71.1084070   7.9481610  18.2518980  62.1821650   7.3372410  30.8270950
  62.0429420   8.2095210  31.1958350  61.3003010   6.9945220  30.6818890
  68.5051030  12.2548280  22.1336080  68.9446940  12.9972610  21.7191470
  68.4437920  12.4974850  23.0575040  63.9802000  13.2794110  33.0356100
  63.9517430  13.6837060  32.1684530  63.8166970  12.3504470  32.8727700
  60.4954930   5.9354820  20.9373220  60.3752530   6.6616910  20.3254490
  60.1855820   5.1657730  20.4601130  75.9316820  14.0621210  34.3320270
  76.4076540  14.5404100  35.0109350  76.5523980  13.9938700  33.6065770
  58.1340300   9.1069960  26.7441860  58.2120720   9.2418730  25.7997580
  58.7481980   8.3985850  26.9369980  59.3787930  10.8070150  23.1548040
  58.9716010  10.9484740  22.3001640  60.2700940  10.5230310  22.9519250
  75.3350070  11.2534060  31.4920280  75.4613130  11.0145940  30.5737460
  75.3771450  10.4218600  31.9642360  69.1966810  14.9562060  30.0615090
  69.7111480  14.8670070  30.8637520  68.3535890  15.3021760  30.3543000
  71.1721210  15.2417400  19.4899090  71.0122350  14.9520340  20.3880920
  71.0067920  14.4657530  18.9544320  63.6509590  15.0215930  21.2670710
  63.4752070  14.1051470  21.0538510  62.7965330  15.3803220  21.5068510
  70.8747340  12.7504960  18.0497090  70.1812500  12.7482250  17.3899370
  71.6170200  12.3264280  17.6191260  70.4397270  14.3767670  22.1245580
  70.8954220  13.5957050  22.4384200  70.7789790  15.0874490  22.6686760
  75.1874080   3.3066520  32.4570020  74.5718350   3.8146190  31.9285480
  74.8670500   2.4064850  32.3995960  58.1899820  10.1484130  29.2836320
  58.3530860   9.6789490  28.4655690  58.6552270   9.6407690  29.9485160
  72.2492910   3.3667360  31.0528870  71.3986500   3.0673110  31.3737940
  72.0894700   3.6109370  30.1412690  69.3442620   4.8669110  33.1527660
  69.6696030   4.0332860  32.8129890  70.1322950   5.3897630  33.3005990
  62.7532810   4.4023460  22.0478140  62.5273730   4.1860630  22.9524760
  61.9725340   4.8351920  21.7024110  69.9830570   4.4086830  20.6468790
  69.3839460   5.1322630  20.4632410  70.5310180   4.3463610  19.8645240
  65.1932020   5.3009040  32.7138410  65.0975620   4.3603770  32.5638810
  66.0364000   5.5224110  32.3186480  68.5895440   3.0450370  22.6772070
  68.9825010   3.3622570  21.8640760  68.9512290   2.1662250  22.7916590
  57.8129840   3.5771290  16.1104990  57.7304510   4.5202050  16.2519980
  57.4612900   3.4346200  15.2317340  69.1750580   5.6356120  26.7722850
  68.4431700   6.1442930  27.1212950  68.7774920   4.8186100  26.4711630
  65.6127970   2.3110320  25.1775340  65.6164030   1.8700270  24.3279880
  66.5079090   2.6327650  25.2847160  61.4630350   2.1936810  24.1369550
  61.1230400   2.6712040  24.8936600  60.7007670   1.7401930  23.7770650
  65.6748120   3.3122400  18.1682100  65.7960940   3.2708880  19.1167920
  65.2896630   4.1746550  18.0128830  64.6869620   5.6223540  17.5665400
  64.1186520   5.1741790  16.9401310  65.3958620   5.9816320  17.0330550
  59.7638800   9.5235560  31.4432130  59.3793590   8.8829230  32.0415090
  60.0750990  10.2271680  32.0126860  65.9135940   6.3712100  26.9240750
  66.2806070   5.8970670  27.6702090  65.7241000   7.2453670  27.2649090
  63.7035310   5.4120740  29.2424960  63.3992380   6.2912720  29.4675320
  64.6581770   5.4720530  29.2782400  62.2317100   9.6181730  19.8391810
  61.4579360   9.0779350  19.6790530  62.9611730   9.0988340  19.5009570
  72.9905080   8.6147090  25.6318200  73.7104200   9.1102380  25.2414310
  72.7886900   7.9364980  24.9872070  68.3723880   8.6856150  31.5187200
  68.3061190   7.7651820  31.2644790  67.7429020   8.7831590  32.2331840
  71.1663410   4.3804700  18.0709750  72.0543030   4.6921930  17.8961090
  71.1368500   3.5076950  17.6790330  62.2754500   9.2862110  23.4770620
  62.7933170   8.4830370  23.4227510  61.8238520   9.2241250  24.3187450
  67.1624000  10.5528390  18.7497920  67.5039700  11.2970620  18.2541240
  66.3336710  10.8659510  19.1122750  59.7599040   6.2523480  30.3896320
  59.4013980   6.9177330  30.9769660  59.4653600   5.4207030  30.7608940
  62.9612160   6.7107720  33.2735870  62.6612300   6.8564900  32.3763690
  63.7323400   6.1513010  33.1809260  68.3040610  11.5076720  31.2691000
  68.3185150  10.5757680  31.0509910  67.5965710  11.5936480  31.9080770
  73.4377680   5.6916540  17.5389610  73.3541400   6.1230760  16.6886050
  74.1571870   6.1514890  17.9716430  74.5151820   8.1484060  30.6159580
  73.7900010   8.7412840  30.4188970  75.0427280   8.1407600  29.8172950
  74.4664930  12.5458800  20.2671740  73.8241090  11.8914420  20.5415460
  74.0795590  12.9513890  19.4912410  70.0451410   9.8744230  24.1143430
  70.3975230   9.2772360  23.4544800  69.1613740   9.5488460  24.2851680
  66.1314690  10.6341920  21.5213840  66.8185820  11.1811130  21.9021430
  65.3447110  11.1782650  21.5563450  58.2707090   6.2514740  17.0130920
  59.1401940   6.5339540  17.2966840  57.7797410   7.0650610  16.8979730
  65.4341900   7.6387950  21.1339200  65.8904680   8.4493200  21.3599390
  65.0830110   7.3211090  21.9657690  67.7374510  13.1494290  28.3631500
  68.3816730  13.3553670  29.0404920  68.1003950  12.3882690  27.9102350
  69.0106590  11.1526640  27.0808950  69.6528820  10.4519800  27.1941120
  69.5355940  11.9325080  26.9005840  72.8562310  11.4375260  16.8048090
  72.6299890  10.7205700  17.3972730  72.4658510  11.1887700  15.9669840
  70.7844210  11.9521540  30.2845010  71.1200450  12.5388230  30.9622930
  69.8644550  11.8214250  30.5142800  58.6378340  15.4642120  17.5792550
  58.9975980  16.0631460  16.9249820  58.4970680  16.0102010  18.3527580
  72.4378560   9.3547200  18.4662250  72.1500260   9.8159890  19.2540130
  73.2330730   8.8944970  18.7346470  58.6220200  13.7296980  32.0534950
  58.7311320  12.7891720  31.9130340  57.9700760  13.9951730  31.4048680
  66.6132790  12.0012870  33.4533070  66.2929660  11.2822110  33.9978760
  65.9391150  12.6767940  33.5269130  64.6546960  12.8473320  18.3966220
  64.6457060  13.5803010  17.7810730  63.7345320  12.6004900  18.4893180
  60.2553600   8.0688210  19.1412980  59.6481550   8.8087110  19.1508280
  60.7302950   8.1587570  18.3151180  67.6406560  12.9101560  17.0591410
  67.7418540  12.7065550  16.1293390  66.7408300  12.6559840  17.2639190
  65.1632450   3.4681920  21.0415310  64.4548600   3.9368260  21.4828920
  65.4476930   2.8103930  21.6760500  66.7888380   4.8878620  29.0407840
  67.2873630   5.3624440  29.7059690  66.9311330   3.9642140  29.2477870
  66.2824670  15.4287880  21.7539080  66.5366170  15.3909270  20.8318450
  65.3337150  15.3021210  21.7467330  63.3667470   1.7767000  18.4166020
  64.2158000   2.2137150  18.3506210  62.9998740   2.0887260  19.2438080
  72.2877250   6.3479760  23.3297590  71.3467390   6.3629990  23.5045280
  72.6021320   5.5615720  23.7757890  62.2658890   8.0299360  16.8901550
  63.0322160   7.9180720  17.4526980  62.3433580   7.3337330  16.2378320
  60.9605650   5.4624430  17.5734440  61.0409240   4.5151940  17.6851840
  61.8525400   5.7931310  17.6795100  74.2902830  13.5188610  25.0051850
  74.4150250  14.3419780  25.4775660  75.1568390  13.3079340  24.6576000
  61.7620360  15.6119820  24.6768980  62.4982840  15.0635280  24.9477550
  62.1461280  16.4775830  24.5374970  58.6465840  11.6793390  20.5510490
  57.7205620  11.9214530  20.5415900  59.1122270  12.5067650  20.4295240
  60.7678640  14.7965890  33.8654560  61.5691370  15.1177940  34.2789960
  60.2530460  14.4361470  34.5874470  64.8722670  14.7850130  16.4994550
  65.6651280  15.0738960  16.0476340  64.3527020  14.3542300  15.8207030
  69.6043270  10.9045760  33.8129970  68.9981430  10.9277360  33.0725720
  69.2997380  10.1728800  34.3497220  71.0343640  14.6326050  32.4239380
  71.9865390  14.5484070  32.3739620  70.8871860  15.2967760  33.0973170
  73.9252840  14.0120260  17.9231290  73.6394350  13.5985400  17.1085470
  73.7272390  14.9407970  17.8031810  58.4876450   7.2839350  32.8090610
  58.9915470   6.7046630  33.3806840  57.7483870   7.5679580  33.3466980
  65.3900070  10.0053540  16.3636900  65.2850710   9.3905890  17.0898280
  65.2224290   9.4819430  15.5799910  65.5414390   8.6910340  32.3426130
  64.7760060   9.2595340  32.2580800  65.7230350   8.3986550  31.4494360
  68.6302800   9.0673570  16.9678890  68.0812900   9.5142870  17.6121630
  69.2522060   8.5622820  17.4916560  72.6837740  10.4215670  32.9001150
  73.4247210  10.7591430  32.3968610  71.9210420  10.5907730  32.3470920
  60.5199530   5.4268940  33.7040680  60.5604870   5.1282810  34.6125910
  61.3745030   5.8276550  33.5448200  64.2977920   8.0264490  18.8644190
  64.7194340   7.8604360  19.7075580  64.4228760   7.2164720  18.3699330
  62.4605340   4.0061040  31.6715170  61.9301800   3.5151990  31.0438510
  63.1293410   4.4345240  31.1373100  66.8105560   7.0502100  16.1121290
  67.3311220   6.3351120  15.7462440  67.4573960   7.6887970  16.4121800
  71.3583400   8.4730500  31.4356360  71.7724420   8.6275580  32.2846780
  70.4234400   8.5985720  31.5982140  71.8305570   5.8126660  33.4395510
  72.4126340   5.0578980  33.3515990  72.0067340   6.3434100  32.6626990
  66.1198630   8.4250980  29.4052290  66.5386740   9.2683710  29.2328530
  65.2007260   8.5623020  29.1759070  68.4562530   6.1567160  30.7890130
  68.5758740   5.5608300  31.5284970  69.3156530   6.1936850  30.3691430
  70.7950430   6.7104350  29.3652640  70.2685650   7.2346970  28.7617780
  71.1381770   7.3431740  29.9962370  63.1936820   4.0997720  15.8102350
  62.9925880   3.2365080  16.1715690  63.0228870   4.0131080  14.8723950
  63.9706050  14.7303990  30.5210020  63.4327140  15.4550050  30.2018720
  64.2240010  14.2534330  29.7307360  65.2231300   2.6988510  32.0465950
  65.8130990   2.3904360  32.7343770  64.4051540   2.2268260  32.2025850
  70.0424730   2.3154320  32.2798970  69.3540250   1.6535860  32.2148960
  70.7630750   1.8692590  32.7247430  66.8268260  15.9655200  30.7796670
  66.7526960  16.8690340  31.0869040  65.9247100  15.6467100  30.7518740
  67.3753590  15.1313710  18.4023030  68.2704380  15.4698680  18.4241790
  67.4071220  14.4093120  17.7747310  61.0149750  10.5040760  16.6310030
  61.4524620  11.0470430  17.2867610  61.4997480   9.6787710  16.6406370
  58.2295550  13.2929790  24.0830290  58.5598560  12.4250850  23.8508930
  58.6586550  13.4988310  24.9135250  62.8257470  11.6238800  21.7432260
  62.5253010  11.5003770  22.6436170  62.7194960  10.7647390  21.3347990
  58.7185760  14.1600380  26.8211920  58.2816750  14.3401180  27.6536070
  59.2863440  14.9175000  26.6793640  74.3547940  13.6617380  31.1089230
  73.7549930  13.7209940  30.3653150  74.4841840  12.7222360  31.2386080
  75.5949390  11.4035200  16.4458940  74.7642350  11.4711850  16.9166170
  75.7721220  12.2939320  16.1425800  75.0505850   8.1482680  18.9493140
  75.8124760   8.7179330  19.0552830  75.0660220   7.5809880  19.7201450
  58.5510190   6.6720610  23.1800800  57.8959030   6.4032250  22.5360500
  59.3888140   6.5625090  22.7302780  76.0565820   9.0032780  23.7935070
  76.4274650   8.2200100  23.3871040  76.6967750   9.6921880  23.6152370
  73.0399580  10.3869360  29.2065390  72.2259420  10.8166520  29.4691180
  73.4473780  10.9987770  28.5934440  75.1025020   8.4417050  16.1065660
  75.3773860   9.3495930  15.9784880  74.9135760   8.3779580  17.0427650
  74.9990360   6.3786040  21.0995090  74.6233960   5.6113970  20.6676380
  74.2693480   6.7608740  21.5870020  59.5886120   7.0573180  27.7204140
  59.9559160   6.9700580  28.6000160  59.0196940   6.2939730  27.6211000
  74.3889980   5.5257560  30.7334610  74.1576070   5.2970310  29.8332560
  74.6494530   6.4457110  30.6879500  59.1402120   3.9682270  31.6262560
  58.2458170   3.9349030  31.9656270  59.6799670   4.1669060  32.3913810
  57.7648270   3.8819540  19.1226130  56.8612350   4.1449740  18.9477790
  58.2488890   4.1530710  18.3426090  74.2741320   4.6043530  24.4002330
  74.7978800   4.1106180  23.7692500  74.8600740   4.7393890  25.1449900
  74.4531040   4.6883400  27.9221880  73.5033750   4.6546940  28.0366870
  74.6344050   5.5983510  27.6871650  60.3075480   2.9385080  17.0320510
  61.0167180   2.5168300  16.5467790  59.5915420   3.0060310  16.4003860
  73.7641290   3.8616880  20.3394740  74.2600410   3.6287750  21.1243620
  73.5657360   3.0228720  19.9232380  75.1928450   2.4977830  22.8732420
  75.0827730   2.3433870  23.8114690  75.9536040   1.9698770  22.6307830
  73.0975630  15.1387960  22.7333660  73.6934700  14.8172530  22.0568080
  73.3553780  14.6659780  23.5246930  61.0038200  11.5705870  32.8824290
  60.9607830  11.1998780  33.7638750  61.1349210  12.5083440  33.0226110
  64.7044230  13.1265460  28.4834010  64.4635590  13.3940020  27.5964530
  65.6446870  13.2971190  28.5384870  75.9648390  15.1459840  29.2844650
  75.4706670  15.5428710  28.5671780  75.3561680  14.5209050  29.6781930
  60.8426230  14.5168120  30.0022070  60.2486550  14.3852820  30.7412110
  60.8350070  13.6806260  29.5364170  73.6487840  15.7883260  26.5631390
  73.1890810  16.5399070  26.1889410  73.0200300  15.0689730  26.5046190
  60.4738460  11.8826500  28.9530110  59.7472520  11.2631790  28.8856060
  60.5347610  12.2767110  28.0828190  64.0783560  14.0971500  25.7379520
  64.5948580  13.4858860  25.2127780  64.7280940  14.6000280  26.2290530
  66.8179060  14.9879990  26.5648500  67.1056870  14.7334290  25.6881510
  67.3302280  14.4357350  27.1554070  58.7568460  15.2000890  22.1626870
  58.5890500  14.5671570  22.8608760  57.8902970  15.4060290  21.8121060
  60.3631160  13.8934120  19.6077010  59.8378780  14.2742150  18.9038970
  60.2875740  14.5184890  20.3286720  66.8851420  15.9096090  33.9316700
  67.8118730  15.6740360  33.9752660  66.8701850  16.7368090  33.4502730
  75.1196480  15.4521660  20.9290950  75.2948670  14.7659400  20.2851870
  74.4218050  15.9768710  20.5367620  62.9624130  15.8416500  18.4826260
  63.6942950  15.5575780  17.9350150  63.2217800  15.6029780  19.3725640
  62.1238920  11.9581230  18.4872590  61.4947800  12.4266330  19.0358420
  62.2386750  11.1130450  18.9218780  73.4528980  15.1365950  33.7557740
  74.2454300  14.6415180  33.5483700  73.7462130  15.8156090  34.3633350
  69.5788640   6.0086890   4.6373790  69.4982690   5.0941500   4.3665500
  69.1653060   6.5053960   3.9313500  67.7106680   7.7865910   6.5183060
  66.9348780   7.3066350   6.8081630  68.3619610   7.1071560   6.3439220
  61.7272510   8.0985720   7.3958820  60.8957390   7.8434430   7.7955330
  62.3353490   8.1696490   8.1316740  71.7314110  12.1926100   5.2982190
  71.2695640  11.4213340   5.6269360  72.5439660  12.2192170   5.8034640
  61.7073770  12.1325810   7.5916840  62.0101810  11.2423550   7.4127060
  62.4517360  12.6896030   7.3639090  58.0997470   5.6593260   7.0640910
  58.6713580   4.8915460   7.0644550  58.0999010   5.9582020   6.1547520
  67.9577420  14.4784110   4.9186180  67.3388860  14.9341610   4.3480620
  68.8129200  14.6335570   4.5175880  67.1515670  10.4623100   6.5253220
  67.0823950   9.5213040   6.3642350  67.9135530  10.5524510   7.0975790
  68.1820840   3.2693480   6.7522150  68.5585660   2.3965360   6.6395820
  68.0840350   3.6052180   5.8612590  59.9609010   3.5638120   7.4592180
  60.6419120   3.8276490   8.0779580  59.6457060   2.7238990   7.7930190
  64.1533580   4.6105480   6.5464770  64.6611800   5.1086450   7.1869790
  64.6846820   3.8340680   6.3704130  76.2544510   2.7810670  10.2494120
  75.5496680   3.1692380   9.7309230  76.5202430   3.4760960  10.8515050
  68.8240770   9.3623350   2.3118090  68.2058040   9.8272800   1.7480810
  69.3364020  10.0550830   2.7287600  63.6872530   8.8899220   8.9901690
  63.3541910   9.5168140   9.6322760  63.8639210   9.4161100   8.2103360
  72.2006440   2.7044300   6.4578030  71.4962010   2.9929190   7.0381140
  72.5618600   3.5144410   6.0977590  62.8991630  10.8580020  10.8050870
  63.5165630  11.5331100  10.5235320  62.0384750  11.2668000  10.7138370
  73.8169220  12.3219430   8.7205510  73.1332740  12.9918540   8.7122180
  74.3563510  12.5200080   7.9550370  75.2693360   2.1499090   6.8487240
  74.3218270   2.1838070   6.9802670  75.5943350   2.9638040   7.2336600
  71.3527960  14.1663560   7.4350690  71.3655120  13.7625850   6.5672950
  70.8003180  14.9410850   7.3312120  72.6473380  10.8879780   2.5240860
  72.5369710   9.9454110   2.6490280  72.6441630  11.2495420   3.4103620
  70.7513400   9.0693400   8.7633300  71.1682190   8.8553510   7.9286760
  71.4753220   9.3266190   9.3341920  68.1893660   6.5145100   1.8803350
  67.2622940   6.4482480   2.1091820  68.3418480   7.4525230   1.7658590
  74.6975500   7.4680620   8.8549540  73.8694130   7.5373710   8.3799670
  75.2925980   8.0534930   8.3865370  72.2190950   8.0765400   2.3838600
  71.6003370   7.7384950   1.7364900  72.2015400   7.4325160   3.0917790
  71.6617510   4.2549940   9.8004410  71.2488690   5.0803650  10.0544400
  70.9293460   3.6694980   9.6080770  63.7950300   7.0409840   4.6623080
  63.3907300   6.3287090   4.1668980  63.8813420   6.6963080   5.5511120
  64.2632000  10.7277400   6.8262290  63.9660290  10.1222870   6.1470070
  65.2131820  10.7654710   6.7151650  62.5078920   3.8153050   8.4422120
  63.0593510   3.9248390   7.6675370  63.0222430   4.1890650   9.1577350
  72.3517610  14.3009270  10.4885390  71.8748170  15.1081460  10.2958000
  71.6679400  13.6487600  10.6411600  63.3550430  10.4659090  13.4770090
  62.4578960  10.6899060  13.7243490  63.3803300  10.5894030  12.5281490
  62.1821650   7.3372410  12.0527460  62.0429420   8.2095210  12.4214860
  61.3003010   6.9945220  11.9075400  68.5051030  12.2548280   3.3592590
  68.9446940  12.9972610   2.9447980  68.4437920  12.4974850   4.2831550
  63.9802000  13.2794110  14.2612610  63.9517430  13.6837060  13.3941040
  63.8166970  12.3504470  14.0984210  75.9316820  14.0621210  15.5576780
  76.4076540  14.5404100  16.2365860  76.5523980  13.9938700  14.8322280
  58.1340300   9.1069960   7.9698370  58.2120720   9.2418730   7.0254090
  58.7481980   8.3985850   8.1626490  59.3787930  10.8070150   4.3804550
  58.9716010  10.9484740   3.5258150  60.2700940  10.5230310   4.1775760
  75.3350070  11.2534060  12.7176790  75.4613130  11.0145940  11.7993970
  75.3771450  10.4218600  13.1898870  69.1966810  14.9562060  11.2871600
  69.7111480  14.8670070  12.0894030  68.3535890  15.3021760  11.5799510
  63.6509590  15.0215930   2.4927220  63.4752070  14.1051470   2.2795020
  62.7965330  15.3803220   2.7325020  70.4397270  14.3767670   3.3502090
  70.8954220  13.5957050   3.6640710  70.7789790  15.0874490   3.8943270
  75.1874080   3.3066520  13.6826530  74.5718350   3.8146190  13.1541990
  74.8670500   2.4064850  13.6252470  58.1899820  10.1484130  10.5092830
  58.3530860   9.6789490   9.6912200  58.6552270   9.6407690  11.1741670
  72.2492910   3.3667360  12.2785380  71.3986500   3.0673110  12.5994450
  72.0894700   3.6109370  11.3669200  69.3442620   4.8669110  14.3784170
  69.6696030   4.0332860  14.0386400  70.1322950   5.3897630  14.5262500
  62.7532810   4.4023460   3.2734650  62.5273730   4.1860630   4.1781270
  61.9725340   4.8351920   2.9280620  65.1932020   5.3009040  13.9394920
  65.0975620   4.3603770  13.7895320  66.0364000   5.5224110  13.5442990
  68.5895440   3.0450370   3.9028580  68.9825010   3.3622570   3.0897270
  68.9512290   2.1662250   4.0173100  69.1750580   5.6356120   7.9979360
  68.4431700   6.1442930   8.3469460  68.7774920   4.8186100   7.6968140
  65.6127970   2.3110320   6.4031850  65.6164030   1.8700270   5.5536390
  66.5079090   2.6327650   6.5103670  61.4630350   2.1936810   5.3626060
  61.1230400   2.6712040   6.1193110  60.7007670   1.7401930   5.0027160
  59.7638800   9.5235560  12.6688640  59.3793590   8.8829230  13.2671600
  60.0750990  10.2271680  13.2383370  65.9135940   6.3712100   8.1497260
  66.2806070   5.8970670   8.8958600  65.7241000   7.2453670   8.4905600
  63.7035310   5.4120740  10.4681470  63.3992380   6.2912720  10.6931830
  64.6581770   5.4720530  10.5038910  72.9905080   8.6147090   6.8574710
  73.7104200   9.1102380   6.4670820  72.7886900   7.9364980   6.2128580
  68.3723880   8.6856150  12.7443710  68.3061190   7.7651820  12.4901300
  67.7429020   8.7831590  13.4588350  62.2754500   9.2862110   4.7027130
  62.7933170   8.4830370   4.6484020  61.8238520   9.2241250   5.5443960
  59.7599040   6.2523480  11.6152830  59.4013980   6.9177330  12.2026170
  59.4653600   5.4207030  11.9865450  62.9612160   6.7107720  14.4992380
  62.6612300   6.8564900  13.6020200  63.7323400   6.1513010  14.4065770
  68.3040610  11.5076720  12.4947510  68.3185150  10.5757680  12.2766420
  67.5965710  11.5936480  13.1337280  74.5151820   8.1484060  11.8416090
  73.7900010   8.7412840  11.6445480  75.0427280   8.1407600  11.0429460
  70.0451410   9.8744230   5.3399940  70.3975230   9.2772360   4.6801310
  69.1613740   9.5488460   5.5108190  66.1314690  10.6341920   2.7470350
  66.8185820  11.1811130   3.1277940  65.3447110  11.1782650   2.7819960
  65.4341900   7.6387950   2.3595710  65.8904680   8.4493200   2.5855900
  65.0830110   7.3211090   3.1914200  67.7374510  13.1494290   9.5888010
  68.3816730  13.3553670  10.2661430  68.1003950  12.3882690   9.1358860
  69.0106590  11.1526640   8.3065460  69.6528820  10.4519800   8.4197630
  69.5355940  11.9325080   8.1262350  70.7844210  11.9521540  11.5101520
  71.1200450  12.5388230  12.1879440  69.8644550  11.8214250  11.7399310
  58.6220200  13.7296980  13.2791460  58.7311320  12.7891720  13.1386850
  57.9700760  13.9951730  12.6305190  66.6132790  12.0012870  14.6789580
  66.2929660  11.2822110  15.2235270  65.9391150  12.6767940  14.7525640
  65.1632450   3.4681920   2.2671820  64.4548600   3.9368260   2.7085430
  65.4476930   2.8103930   2.9017010  66.7888380   4.8878620  10.2664350
  67.2873630   5.3624440  10.9316200  66.9311330   3.9642140  10.4734380
  66.2824670  15.4287880   2.9795590  66.5366170  15.3909270   2.0574960
  65.3337150  15.3021210   2.9723840  72.2877250   6.3479760   4.5554100
  71.3467390   6.3629990   4.7301790  72.6021320   5.5615720   5.0014400
  74.2902830  13.5188610   6.2308360  74.4150250  14.3419780   6.7032170
  75.1568390  13.3079340   5.8832510  61.7620360  15.6119820   5.9025490
  62.4982840  15.0635280   6.1734060  62.1461280  16.4775830   5.7631480
  58.6465840  11.6793390   1.7767000  57.7205620  11.9214530   1.7672410
  59.1122270  12.5067650   1.6551750  60.7678640  14.7965890  15.0911070
  61.5691370  15.1177940  15.5046470  60.2530460  14.4361470  15.8130980
  69.6043270  10.9045760  15.0386480  68.9981430  10.9277360  14.2982230
  69.2997380  10.1728800  15.5753730  71.0343640  14.6326050  13.6495890
  71.9865390  14.5484070  13.5996130  70.8871860  15.2967760  14.3229680
  58.4876450   7.2839350  14.0347120  58.9915470   6.7046630  14.6063350
  57.7483870   7.5679580  14.5723490  65.5414390   8.6910340  13.5682640
  64.7760060   9.2595340  13.4837310  65.7230350   8.3986550  12.6750870
  72.6837740  10.4215670  14.1257660  73.4247210  10.7591430  13.6225120
  71.9210420  10.5907730  13.5727430  60.5199530   5.4268940  14.9297190
  60.5604870   5.1282810  15.8382420  61.3745030   5.8276550  14.7704710
  62.4605340   4.0061040  12.8971680  61.9301800   3.5151990  12.2695020
  63.1293410   4.4345240  12.3629610  71.3583400   8.4730500  12.6612870
  71.7724420   8.6275580  13.5103290  70.4234400   8.5985720  12.8238650
  71.8305570   5.8126660  14.6652020  72.4126340   5.0578980  14.5772500
  72.0067340   6.3434100  13.8883500  66.1198630   8.4250980  10.6308800
  66.5386740   9.2683710  10.4585040  65.2007260   8.5623020  10.4015580
  68.4562530   6.1567160  12.0146640  68.5758740   5.5608300  12.7541480
  69.3156530   6.1936850  11.5947940  70.7950430   6.7104350  10.5909150
  70.2685650   7.2346970   9.9874290  71.1381770   7.3431740  11.2218880
  63.9706050  14.7303990  11.7466530  63.4327140  15.4550050  11.4275230
  64.2240010  14.2534330  10.9563870  65.2231300   2.6988510  13.2722460
  65.8130990   2.3904360  13.9600280  64.4051540   2.2268260  13.4282360
  70.0424730   2.3154320  13.5055480  69.3540250   1.6535860  13.4405470
  70.7630750   1.8692590  13.9503940  66.8268260  15.9655200  12.0053180
  66.7526960  16.8690340  12.3125550  65.9247100  15.6467100  11.9775250
  58.2295550  13.2929790   5.3086800  58.5598560  12.4250850   5.0765440
  58.6586550  13.4988310   6.1391760  62.8257470  11.6238800   2.9688770
  62.5253010  11.5003770   3.8692680  62.7194960  10.7647390   2.5604500
  58.7185760  14.1600380   8.0468430  58.2816750  14.3401180   8.8792580
  59.2863440  14.9175000   7.9050150  74.3547940  13.6617380  12.3345740
  73.7549930  13.7209940  11.5909660  74.4841840  12.7222360  12.4642590
  58.5510190   6.6720610   4.4057310  57.8959030   6.4032250   3.7617010
  59.3888140   6.5625090   3.9559290  76.0565820   9.0032780   5.0191580
  76.4274650   8.2200100   4.6127550  76.6967750   9.6921880   4.8408880
  73.0399580  10.3869360  10.4321900  72.2259420  10.8166520  10.6947690
  73.4473780  10.9987770   9.8190950  74.9990360   6.3786040   2.3251600
  74.6233960   5.6113970   1.8932890  74.2693480   6.7608740   2.8126530
  59.5886120   7.0573180   8.9460650  59.9559160   6.9700580   9.8256670
  59.0196940   6.2939730   8.8467510  74.3889980   5.5257560  11.9591120
  74.1576070   5.2970310  11.0589070  74.6494530   6.4457110  11.9136010
  59.1402120   3.9682270  12.8519070  58.2458170   3.9349030  13.1912780
  59.6799670   4.1669060  13.6170320  74.2741320   4.6043530   5.6258840
  74.7978800   4.1106180   4.9949010  74.8600740   4.7393890   6.3706410
  74.4531040   4.6883400   9.1478390  73.5033750   4.6546940   9.2623380
  74.6344050   5.5983510   8.9128160  75.1928450   2.4977830   4.0988930
  75.0827730   2.3433870   5.0371200  75.9536040   1.9698770   3.8564340
  73.0975630  15.1387960   3.9590170  73.6934700  14.8172530   3.2824590
  73.3553780  14.6659780   4.7503440  61.0038200  11.5705870  14.1080800
  60.9607830  11.1998780  14.9895260  61.1349210  12.5083440  14.2482620
  64.7044230  13.1265460   9.7090520  64.4635590  13.3940020   8.8221040
  65.6446870  13.2971190   9.7641380  75.9648390  15.1459840  10.5101160
  75.4706670  15.5428710   9.7928290  75.3561680  14.5209050  10.9038440
  60.8426230  14.5168120  11.2278580  60.2486550  14.3852820  11.9668620
  60.8350070  13.6806260  10.7620680  73.6487840  15.7883260   7.7887900
  73.1890810  16.5399070   7.4145920  73.0200300  15.0689730   7.7302700
  60.4738460  11.8826500  10.1786620  59.7472520  11.2631790  10.1112570
  60.5347610  12.2767110   9.3084700  64.0783560  14.0971500   6.9636030
  64.5948580  13.4858860   6.4384290  64.7280940  14.6000280   7.4547040
  66.8179060  14.9879990   7.7905010  67.1056870  14.7334290   6.9138020
  67.3302280  14.4357350   8.3810580  58.7568460  15.2000890   3.3883380
  58.5890500  14.5671570   4.0865270  57.8902970  15.4060290   3.0377570
  66.8851420  15.9096090  15.1573210  67.8118730  15.6740360  15.2009170
  66.8701850  16.7368090  14.6759240  73.4528980  15.1365950  14.9814250
  74.2454300  14.6415180  14.7740210  73.7462130  15.8156090  15.5889860
  50.8045150  81.1060850  79.7347750  50.7239200  80.1915460  79.4639460
  50.3909570  81.6027920  79.0287460  48.9363190  82.8839870  81.6157020
  48.1605290  82.4040310  81.9055590  49.5876120  82.2045520  81.4413180
  42.9529020  83.1959680  82.4932780  42.1213900  82.9408390  82.8929290
  43.5610000  83.2670450  83.2290700  41.3620970  78.1561570  76.2775170
  40.4737670  78.4977540  76.1755050  41.6462160  77.9561890  75.3856000
  39.3253980  80.7567220  82.1614870  39.8970090  79.9889420  82.1618510
  39.3255520  81.0555980  81.2521480  48.3772180  85.5597060  81.6227180
  48.3080460  84.6187000  81.4616310  49.1392040  85.6498470  82.1949750
  40.5678850  76.1651580  83.9483800  40.3881690  75.2677330  84.2286560
  40.1658930  76.7123450  84.6230750  49.4077350  78.3667440  81.8496110
  49.7842170  77.4939320  81.7369780  49.3096860  78.7026140  80.9586550
  43.5382360  76.7393070  77.3113550  43.6449110  77.6396800  77.6182310
  42.6274720  76.6911040  77.0208200  53.1901470  75.8617880  78.7824450
  54.0111090  75.3714450  78.8249930  53.2235550  76.4515540  79.5356290
  41.1865520  78.6612080  82.5566140  41.8675630  78.9250450  83.1753540
  40.8713570  77.8212950  82.8904150  45.3790090  79.7079440  81.6438730
  45.8868310  80.2060410  82.2843750  45.9103330  78.9314640  81.4678090
  57.4801020  77.8784630  85.3468080  56.7753190  78.2666340  84.8283190
  57.7458940  78.5734920  85.9489010  43.6626190  74.3478000  85.9102150
  43.6644630  74.8650390  85.1048050  42.8330500  73.8708180  85.8872080
  50.0497280  84.4597310  77.4092050  49.4314550  84.9246760  76.8454770
  50.5620530  85.1524790  77.8261560  44.9129040  83.9873180  84.0875650
  44.5798420  84.6142100  84.7296720  45.0895720  84.5135060  83.3077320
  53.4262950  77.8018260  81.5551990  52.7218520  78.0903150  82.1355100
  53.7875110  78.6118370  81.1951550  43.3441520  76.0587960  83.9172600
  43.6858330  76.9030010  83.6226470  42.4057330  76.2071700  84.0337940
  44.1248140  85.9553980  85.9024830  44.7422140  86.6305060  85.6209280
  43.2641260  86.3641960  85.8112330  39.4180480  85.1453840  74.7831680
  39.0408460  85.6340940  74.0516580  39.6753550  85.8179120  75.4138210
  56.4949870  77.2473050  81.9461200  55.5474780  77.2812030  82.0776630
  56.8199860  78.0612000  82.3310560  47.0269410  73.5470230  80.2417190
  47.3344390  72.9917120  79.5252690  46.0970110  73.6814690  80.0590180
  53.8729890  85.9853740  77.6214820  53.7626220  85.0428070  77.7464240
  53.8698140  86.3469380  78.5077580  51.9769910  84.1667360  83.8607260
  52.3938700  83.9527470  83.0260720  52.7009730  84.4240150  84.4315880
  49.4150170  81.6119060  76.9777310  48.4879450  81.5456440  77.2065780
  49.5674990  82.5499190  76.8632550  49.4019250  77.8836060  73.9744470
  48.4622920  78.0450020  74.0596930  49.7202510  78.6021740  73.4280460
  55.9232010  82.5654580  83.9523500  55.0950640  82.6347670  83.4773630
  56.5182490  83.1508890  83.4839330  53.4447460  83.1739360  77.4812560
  52.8259880  82.8358910  76.8338860  53.4271910  82.5299120  78.1891750
  52.8874020  79.3523900  84.8978370  52.4745200  80.1777610  85.1518360
  52.1549970  78.7668940  84.7054730  45.0206810  82.1383800  79.7597040
  44.6163810  81.4261050  79.2642940  45.1069930  81.7937040  80.6485080
  45.4888510  85.8251360  81.9236250  45.1916800  85.2196830  81.2444030
  46.4388330  85.8628670  81.8125610  43.7335430  78.9127010  83.5396080
  44.2850020  79.0222350  82.7649330  44.2478940  79.2864610  84.2551310
  51.6212160  82.4126170  74.4885310  52.0605440  81.5748600  74.3423130
  52.3340580  83.0455570  74.5749450  55.2029300  73.6668980  72.8026350
  54.8901960  73.7595810  73.7025420  55.9641770  74.2450010  72.7523780
  41.7211440  81.0328780  77.2603690  41.6009040  81.7590870  76.6484960
  41.4112330  80.2631690  76.7831600  39.3596810  84.2043920  83.0672330
  39.4377230  84.3392690  82.1228050  39.9738490  83.4959810  83.2600450
  40.6044440  85.9044110  79.4778510  40.1972520  86.0458700  78.6232110
  41.4957450  85.6204270  79.2749720  44.1875100  74.3763850  80.6427360
  43.7443250  75.1573390  80.3111880  44.7460090  74.6993740  81.3498300
  47.3033920  73.9974550  75.5233190  46.6788100  73.9934420  76.2486500
  47.2164040  73.1305510  75.1269160  46.2251000  74.9211180  82.5016960
  46.5223330  75.8274010  82.4208980  46.7736560  74.4329960  81.8876530
  43.9789320  79.4997420  78.3708610  43.7530240  79.2834590  79.2755230
  43.1981850  79.9325880  78.0254580  51.2087080  79.5060790  76.9699260
  50.6095970  80.2296590  76.7862880  51.7566690  79.4437570  76.1875710
  49.8151950  78.1424330  79.0002540  50.2081520  78.4596530  78.1871230
  50.1768800  77.2636210  79.1147060  38.8516120  74.7325130  81.2232740
  38.5629170  75.3027990  81.9357720  39.5961880  74.2529580  81.5863970
  39.0386350  78.6745250  72.4335460  38.9561020  79.6176010  72.5750450
  38.6869410  78.5320160  71.5547810  50.4007090  80.7330080  83.0953320
  49.6688210  81.2416890  83.4443420  50.0031430  79.9160060  82.7942100
  46.8384480  77.4084280  81.5005810  46.8420540  76.9674230  80.6510350
  47.7335600  77.7301610  81.6077630  42.6886860  77.2910770  80.4600020
  42.3486910  77.7686000  81.2167070  41.9264180  76.8375890  80.1001120
  46.9004630  78.4096360  74.4912570  47.0217450  78.3682840  75.4398390
  46.5153140  79.2720510  74.3359300  50.8633000  76.1863760  82.5076260
  50.8805740  76.6372410  83.3518110  50.6148580  75.2869400  82.7209700
  45.9126130  80.7197500  73.8895870  45.3443030  80.2715750  73.2631780
  46.6215130  81.0790280  73.3561020  47.1392450  81.4686060  83.2471220
  47.5062580  80.9944630  83.9932560  46.9497510  82.3427630  83.5879560
  40.0032940  76.2129750  79.3764690  39.7179860  75.8485420  80.2143310
  39.9411800  75.4810210  78.7627830  44.9291820  80.5094700  85.5655430
  44.6248890  81.3886680  85.7905790  45.8838280  80.5694490  85.6012870
  43.4573610  84.7155690  76.1622280  42.6835870  84.1753310  76.0021000
  44.1868240  84.1962300  75.8240040  54.2161590  83.7121050  81.9548670
  54.9360710  84.2076340  81.5644780  54.0143410  83.0338940  81.3102540
  49.6771530  75.1059010  76.0978060  48.8636140  74.6072180  76.0223370
  49.4833480  75.9457260  75.6814410  52.3919920  79.4778660  74.3940220
  53.2799540  79.7895890  74.2191560  52.3625010  78.6050910  74.0020800
  43.5011010  84.3836070  79.8001090  44.0189680  83.5804330  79.7457980
  43.0495030  84.3215210  80.6417920  48.3880510  85.6502350  75.0728390
  48.7296210  86.3944580  74.5771710  47.5593220  85.9633470  75.4353220
  54.6634190  80.7890500  73.8620080  54.5797910  81.2204720  73.0116520
  55.3828380  81.2488850  74.2946900  51.2707920  84.9718190  80.4373900
  51.6231740  84.3746320  79.7775270  50.3870250  84.6462420  80.6082150
  47.3571200  85.7315880  77.8444310  48.0442330  86.2785090  78.2251900
  46.5703620  86.2756610  77.8793920  39.4963600  81.3488700  73.3361390
  40.3658450  81.6313500  73.6197310  39.0053920  82.1624570  73.2210200
  46.6598410  82.7361910  77.4569670  47.1161190  83.5467160  77.6829860
  46.3086620  82.4185050  78.2888160  42.5610190  73.0799560  77.9292190
  42.4324820  73.0717460  78.8777110  41.7372210  73.4182650  77.5783200
  50.2363100  86.2500600  83.4039420  50.8785330  85.5493760  83.5171590
  50.7612450  87.0299040  83.2236310  54.0818820  86.5349220  73.1278560
  53.8556400  85.8179660  73.7203200  53.6915020  86.2861660  72.2900310
  53.6635070  84.4521160  74.7892720  53.3756770  84.9133850  75.5770600
  54.4587240  83.9918930  75.0576940  41.4810110  83.1662170  75.4643450
  40.8738060  83.9061070  75.4738750  41.9559460  83.2561530  74.6381650
  51.0542900  77.3312990  85.1400340  51.4223720  76.5108200  85.4679910
  50.1941100  77.3914880  85.5555990  54.4204930  76.2869930  75.9487900
  53.7918090  76.3915600  75.2346130  53.9256850  76.5066710  76.7381780
  46.3888960  78.5655880  77.3645780  45.6805110  79.0342220  77.8059390
  46.6733440  77.9077890  77.9990970  50.4204390  75.2906540  78.8041570
  50.2972170  75.3092670  77.8551080  51.3688950  75.3385480  78.9239970
  44.5923980  76.8740960  74.7396490  45.4414510  77.3111110  74.6736680
  44.2255250  77.1861220  75.5668550  53.5133760  81.4453720  79.6528060
  52.5723900  81.4603950  79.8275750  53.8277830  80.6589680  80.0988360
  43.4915400  83.1273320  73.2132020  44.2578670  83.0154680  73.7757450
  43.5690090  82.4311290  72.5608790  42.1862160  80.5598390  73.8964910
  42.2665750  79.6125900  74.0082310  43.0781910  80.8905270  74.0025570
  46.6156580  85.1027500  72.6867370  46.5107220  84.4879850  73.4128750
  46.4480800  84.5793390  71.9030380  49.8559310  84.1647530  73.2909360
  49.3069410  84.6116830  73.9352100  50.4778570  83.6596780  73.8147030
  45.5234430  83.1238450  75.1874660  45.9450850  82.9578320  76.0306050
  45.6485270  82.3138680  74.6929800  48.0362070  82.1476060  72.4351760
  48.5567730  81.4325080  72.0692910  48.6830470  82.7861930  72.7352270
  46.9395590  74.6270610  85.1070320  46.4912890  74.6494870  84.2615870
  46.3060790  74.2289630  85.7040620  47.3455140  83.5224940  85.7282760
  47.7643250  84.3657670  85.5559000  46.4263770  83.6596980  85.4989540
  44.4193330  79.1971680  72.1332820  44.2182390  78.3339040  72.4946160
  44.2485380  79.1105040  71.1954420  51.8981640  74.0079910  74.6619700
  52.1783930  73.1647810  75.0179120  51.1247370  74.2403020  75.1758450
  43.2176130  76.2972300  72.1210700  43.5202030  76.3039730  71.2129850
  43.9570720  75.9470160  72.6178360  46.4361060  75.2406920  73.1066900
  46.0883060  74.5630910  72.5269350  46.6373830  74.7796430  73.9210290
  42.2406260  85.6014720  72.9540500  42.6781130  86.1444390  73.6098080
  42.7253990  84.7761670  72.9636840  44.0513980  86.7212760  78.0662730
  43.7509520  86.5977730  78.9666640  43.9451470  85.8621350  77.6578460
  56.2762360  83.2456640  75.2723610  57.0381270  83.8153290  75.3783300
  56.2916730  82.6783840  76.0431920  39.7766700  81.7694570  79.5031270
  39.1215540  81.5006210  78.8590970  40.6144650  81.6599050  79.0533250
  57.2822330  84.1006740  80.1165540  57.6531160  83.3174060  79.7101510
  57.9224260  84.7895840  79.9382840  54.2656090  85.4843320  85.5295860
  53.4515930  85.9140480  85.7921650  54.6730290  86.0961730  84.9164910
  56.3281530  83.5391010  72.4296130  56.6030370  84.4469890  72.3015350
  56.1392270  83.4753540  73.3658120  52.7257140  76.5635860  73.7249760
  53.1442020  76.3766840  72.8846420  52.4193200  75.7114910  74.0352690
  56.2246870  81.4760000  77.4225560  55.8490470  80.7087930  76.9906850
  55.4949990  81.8582700  77.9100490  40.8142630  82.1547140  84.0434610
  41.1815670  82.0674540  84.9230630  40.2453450  81.3913690  83.9441470
  38.9904780  78.9793500  75.4456600  38.0868860  79.2423700  75.2708260
  39.4745400  79.2504670  74.6656560  55.4997830  79.7017490  80.7232800
  56.0235310  79.2080140  80.0922970  56.0857250  79.8367850  81.4680370
  55.6787550  79.7857360  84.2452350  54.7290260  79.7520900  84.3597340
  55.8600560  80.6957470  84.0102120  41.5331990  78.0359040  73.3550980
  42.2423690  77.6142260  72.8698260  40.8171930  78.1034270  72.7234330
  41.1806150  74.0898370  72.3953630  41.9034280  74.6307310  72.7134850
  41.4530670  73.8161790  71.5195170  54.9897800  78.9590840  76.6625210
  55.4856920  78.7261710  77.4474090  54.7913870  78.1202680  76.2462850
  40.8698340  73.3404560  82.2976250  41.5174530  72.7901940  81.8571410
  41.2900180  73.5947710  83.1192060  56.4184960  77.5951790  79.1962890
  56.3084240  77.4407830  80.1345160  57.1792550  77.0672730  78.9538300
  57.3075230  75.4259710  72.4369030  58.2324540  75.2940890  72.2287320
  57.2851020  75.5052530  73.3905480  57.3813720  76.1970370  75.0625740
  56.5865220  76.1315490  75.5918650  57.5857000  77.1321010  75.0511090
  40.6230340  73.4960230  85.0401570  40.2745160  73.9524050  85.8059750
  40.2918040  72.6017360  85.1224000  51.5137760  72.9074310  84.5282570
  50.6397600  73.2409420  84.3255500  51.4048510  72.4347490  85.3534440
  52.4209740  75.1145180  85.9124290  52.0923100  74.2996940  85.5326020
  53.3692040  75.0714990  85.7889980  49.2612580  73.8244150  83.4675480
  48.4784370  74.2989650  83.7472240  48.9675510  72.9198980  83.3588660
  53.8133650  74.5267250  81.5124570  54.2541740  74.4712350  80.6646170
  53.5441240  75.4425260  81.5834750  55.6772220  74.1582490  79.5233390
  55.6160620  73.2143710  79.3764410  56.4564250  74.2662580  80.0686850
  40.6052990  74.1291630  75.9889200  41.3632350  74.2420510  75.4153230
  40.1430160  74.9660830  75.9432630  47.1466800  76.2430900  78.9791510
  46.3341310  75.8687790  78.6387390  47.6508440  75.4875980  79.2812700
  51.6491780  72.9073350  80.2174580  52.2521150  73.4793560  80.6923100
  50.9084770  73.4712790  79.9948480  54.7926380  73.3094910  75.4914860
  54.9877010  74.2078360  75.7582290  54.0056250  73.0781990  75.9847810
  42.9778140  74.6555680  74.5291170  43.5070900  73.8685480  74.3999120
  43.6106460  75.3346870  74.7626700  45.1715980  74.3930820  77.5836560
  44.5418720  73.6918130  77.7506690  44.6321120  75.1534950  77.3669720
  50.8045150  81.1060850  60.9604260  50.7239200  80.1915460  60.6895970
  50.3909570  81.6027920  60.2543970  48.9363190  82.8839870  62.8413530
  48.1605290  82.4040310  63.1312100  49.5876120  82.2045520  62.6669690
  42.9529020  83.1959680  63.7189290  42.1213900  82.9408390  64.1185800
  43.5610000  83.2670450  64.4547210  41.3620970  78.1561570  57.5031680
  40.4737670  78.4977540  57.4011560  41.6462160  77.9561890  56.6112510
  39.3253980  80.7567220  63.3871380  39.8970090  79.9889420  63.3875020
  39.3255520  81.0555980  62.4777990  48.3772180  85.5597060  62.8483690
  48.3080460  84.6187000  62.6872820  49.1392040  85.6498470  63.4206260
  40.5678850  76.1651580  65.1740310  40.3881690  75.2677330  65.4543070
  40.1658930  76.7123450  65.8487260  49.4077350  78.3667440  63.0752620
  49.7842170  77.4939320  62.9626290  49.3096860  78.7026140  62.1843060
  43.5382360  76.7393070  58.5370060  43.6449110  77.6396800  58.8438820
  42.6274720  76.6911040  58.2464710  53.1901470  75.8617880  60.0080960
  54.0111090  75.3714450  60.0506440  53.2235550  76.4515540  60.7612800
  41.1865520  78.6612080  63.7822650  41.8675630  78.9250450  64.4010050
  40.8713570  77.8212950  64.1160660  45.3790090  79.7079440  62.8695240
  45.8868310  80.2060410  63.5100260  45.9103330  78.9314640  62.6934600
  57.4801020  77.8784630  66.5724590  56.7753190  78.2666340  66.0539700
  57.7458940  78.5734920  67.1745520  43.6626190  74.3478000  67.1358660
  43.6644630  74.8650390  66.3304560  42.8330500  73.8708180  67.1128590
  50.0497280  84.4597310  58.6348560  49.4314550  84.9246760  58.0711280
  50.5620530  85.1524790  59.0518070  44.9129040  83.9873180  65.3132160
  44.5798420  84.6142100  65.9553230  45.0895720  84.5135060  64.5333830
  53.4262950  77.8018260  62.7808500  52.7218520  78.0903150  63.3611610
  53.7875110  78.6118370  62.4208060  43.3441520  76.0587960  65.1429110
  43.6858330  76.9030010  64.8482980  42.4057330  76.2071700  65.2594450
  44.1248140  85.9553980  67.1281340  44.7422140  86.6305060  66.8465790
  43.2641260  86.3641960  67.0368840  39.4180480  85.1453840  56.0088190
  39.0408460  85.6340940  55.2773090  39.6753550  85.8179120  56.6394720
  56.4949870  77.2473050  63.1717710  55.5474780  77.2812030  63.3033140
  56.8199860  78.0612000  63.5567070  47.0269410  73.5470230  61.4673700
  47.3344390  72.9917120  60.7509200  46.0970110  73.6814690  61.2846690
  53.8729890  85.9853740  58.8471330  53.7626220  85.0428070  58.9720750
  53.8698140  86.3469380  59.7334090  51.9769910  84.1667360  65.0863770
  52.3938700  83.9527470  64.2517230  52.7009730  84.4240150  65.6572390
  49.4150170  81.6119060  58.2033820  48.4879450  81.5456440  58.4322290
  49.5674990  82.5499190  58.0889060  49.4019250  77.8836060  55.2000980
  48.4622920  78.0450020  55.2853440  49.7202510  78.6021740  54.6536970
  55.9232010  82.5654580  65.1780010  55.0950640  82.6347670  64.7030140
  56.5182490  83.1508890  64.7095840  53.4447460  83.1739360  58.7069070
  52.8259880  82.8358910  58.0595370  53.4271910  82.5299120  59.4148260
  52.8874020  79.3523900  66.1234880  52.4745200  80.1777610  66.3774870
  52.1549970  78.7668940  65.9311240  45.0206810  82.1383800  60.9853550
  44.6163810  81.4261050  60.4899450  45.1069930  81.7937040  61.8741590
  45.4888510  85.8251360  63.1492760  45.1916800  85.2196830  62.4700540
  46.4388330  85.8628670  63.0382120  43.7335430  78.9127010  64.7652590
  44.2850020  79.0222350  63.9905840  44.2478940  79.2864610  65.4807820
  44.5806940  85.5633050  69.8000560  43.6835470  85.7873020  70.0473960
  44.6059810  85.6867990  68.8511960  51.6212160  82.4126170  55.7141820
  52.0605440  81.5748600  55.5679640  52.3340580  83.0455570  55.8005960
  43.4078160  82.4346370  68.3757930  43.2685930  83.3069170  68.7445330
  42.5259520  82.0919180  68.2305870  55.2029300  73.6668980  54.0282860
  54.8901960  73.7595810  54.9281930  55.9641770  74.2450010  53.9780290
  41.7211440  81.0328780  58.4860200  41.6009040  81.7590870  57.8741470
  41.4112330  80.2631690  58.0088110  39.3596810  84.2043920  64.2928840
  39.4377230  84.3392690  63.3484560  39.9738490  83.4959810  64.4856960
  40.6044440  85.9044110  60.7035020  40.1972520  86.0458700  59.8488620
  41.4957450  85.6204270  60.5006230  56.5606580  86.3508020  69.0407260
  56.6869640  86.1119900  68.1224440  56.6027960  85.5192560  69.5129340
  56.4130590  78.4040480  70.0057000  55.7974860  78.9120150  69.4772460
  56.0927010  77.5038810  69.9482940  39.4156330  85.2458090  66.8323300
  39.5787370  84.7763450  66.0142670  39.8808780  84.7381650  67.4972140
  44.1875100  74.3763850  61.8683870  43.7443250  75.1573390  61.5368390
  44.7460090  74.6993740  62.5754810  48.4744910  77.2432370  67.4719190
  48.0124280  77.4515390  68.2839130  48.0723020  76.4291720  67.1689860
  53.4749420  78.4641320  68.6015850  52.6243010  78.1647070  68.9224920
  53.3151210  78.7083330  67.6899670  50.5699130  79.9643070  70.7014640
  50.8952540  79.1306820  70.3616870  51.3579460  80.4871590  70.8492970
  47.3033920  73.9974550  56.7489700  46.6788100  73.9934420  57.4743010
  47.2164040  73.1305510  56.3525670  46.2251000  74.9211180  63.7273470
  46.5223330  75.8274010  63.6465490  46.7736560  74.4329960  63.1133040
  43.9789320  79.4997420  59.5965120  43.7530240  79.2834590  60.5011740
  43.1981850  79.9325880  59.2511090  51.2087080  79.5060790  58.1955770
  50.6095970  80.2296590  58.0119390  51.7566690  79.4437570  57.4132220
  46.4188530  80.3983000  70.2625390  46.3232130  79.4577730  70.1125790
  47.2620510  80.6198070  69.8673460  49.8151950  78.1424330  60.2259050
  50.2081520  78.4596530  59.4127740  50.1768800  77.2636210  60.3403570
  41.5499070  76.8096670  68.4159170  41.1562460  77.6571880  68.6231950
  40.8617470  76.1723040  68.6067810  48.1244120  76.8931640  71.4855910
  47.4342440  76.7003840  72.1202000  48.8676420  77.1766280  72.0180210
  38.8516120  74.7325130  62.4489250  38.5629170  75.3027990  63.1614230
  39.5961880  74.2529580  62.8120480  39.0386350  78.6745250  53.6591970
  38.9561020  79.6176010  53.8006960  38.6869410  78.5320160  52.7804320
  50.4007090  80.7330080  64.3209830  49.6688210  81.2416890  64.6699930
  50.0031430  79.9160060  64.0198610  46.8384480  77.4084280  62.7262320
  46.8420540  76.9674230  61.8766860  47.7335600  77.7301610  62.8334140
  42.6886860  77.2910770  61.6856530  42.3486910  77.7686000  62.4423580
  41.9264180  76.8375890  61.3257630  46.9004630  78.4096360  55.7169080
  47.0217450  78.3682840  56.6654900  46.5153140  79.2720510  55.5615810
  50.8633000  76.1863760  63.7332770  50.8805740  76.6372410  64.5774620
  50.6148580  75.2869400  63.9466210  45.9126130  80.7197500  55.1152380
  45.3443030  80.2715750  54.4888290  46.6215130  81.0790280  54.5817530
  54.2903750  73.5995940  69.5719150  54.6149520  72.8685600  70.0977130
  54.3260260  73.2809580  68.6700140  40.9895310  84.6209520  68.9919110
  40.6050100  83.9803190  69.5902070  41.3007500  85.3245640  69.5613840
  47.1392450  81.4686060  64.4727730  47.5062580  80.9944630  65.2189070
  46.9497510  82.3427630  64.8136070  40.0032940  76.2129750  60.6021200
  39.7179860  75.8485420  61.4399820  39.9411800  75.4810210  59.9884340
  44.9291820  80.5094700  66.7911940  44.6248890  81.3886680  67.0162300
  45.8838280  80.5694490  66.8269380  43.4573610  84.7155690  57.3878790
  42.6835870  84.1753310  57.2277510  44.1868240  84.1962300  57.0496550
  54.2161590  83.7121050  63.1805180  54.9360710  84.2076340  62.7901290
  54.0143410  83.0338940  62.5359050  49.6771530  75.1059010  57.3234570
  48.8636140  74.6072180  57.2479880  49.4833480  75.9457260  56.9070920
  49.5980390  83.7830110  69.0674180  49.5317700  82.8625780  68.8131770
  48.9685530  83.8805550  69.7818820  52.3919920  79.4778660  55.6196730
  53.2799540  79.7895890  55.4448070  52.3625010  78.6050910  55.2277310
  43.5011010  84.3836070  61.0257600  44.0189680  83.5804330  60.9714490
  43.0495030  84.3215210  61.8674430  48.3880510  85.6502350  56.2984900
  48.7296210  86.3944580  55.8028220  47.5593220  85.9633470  56.6609730
  40.9855550  81.3497440  67.9383300  40.6270490  82.0151290  68.5256640
  40.6910110  80.5180990  68.3095920  44.1868670  81.8081680  70.8222850
  43.8868810  81.9538860  69.9250670  44.9579910  81.2486970  70.7296240
  49.5297120  86.6050680  68.8177980  49.5441660  85.6731640  68.5996890
  48.8222220  86.6910440  69.4567750  54.6634190  80.7890500  55.0876590
  54.5797910  81.2204720  54.2373030  55.3828380  81.2488850  55.5203410
  55.7408330  83.2458020  68.1646560  55.0156520  83.8386800  67.9675950
  56.2683790  83.2381560  67.3659930  51.2707920  84.9718190  61.6630410
  51.6231740  84.3746320  61.0031780  50.3870250  84.6462420  61.8338660
  47.3571200  85.7315880  59.0700820  48.0442330  86.2785090  59.4508410
  46.5703620  86.2756610  59.1050430  39.4963600  81.3488700  54.5617900
  40.3658450  81.6313500  54.8453820  39.0053920  82.1624570  54.4466710
  46.6598410  82.7361910  58.6826180  47.1161190  83.5467160  58.9086370
  46.3086620  82.4185050  59.5144670  42.5610190  73.0799560  59.1548700
  42.4324820  73.0717460  60.1033620  41.7372210  73.4182650  58.8039710
  50.2363100  86.2500600  64.6295930  50.8785330  85.5493760  64.7428100
  50.7612450  87.0299040  64.4492820  54.0818820  86.5349220  54.3535070
  53.8556400  85.8179660  54.9459710  53.6915020  86.2861660  53.5156820
  39.5604120  74.8390680  68.6155400  38.8462640  75.0387600  69.2208010
  39.9799160  74.0630250  68.9870200  53.6635070  84.4521160  56.0149230
  53.3756770  84.9133850  56.8027110  54.4587240  83.9918930  56.2833450
  41.4810110  83.1662170  56.6899960  40.8738060  83.9061070  56.6995260
  41.9559460  83.2561530  55.8638160  51.0542900  77.3312990  66.3656850
  51.4223720  76.5108200  66.6936420  50.1941100  77.3914880  66.7812500
  54.4204930  76.2869930  57.1744410  53.7918090  76.3915600  56.4602640
  53.9256850  76.5066710  57.9638290  46.3888960  78.5655880  58.5902290
  45.6805110  79.0342220  59.0315900  46.6733440  77.9077890  59.2247480
  48.0144890  79.9852580  66.5894820  48.5130140  80.4598400  67.2546670
  48.1567840  79.0616100  66.7964850  50.4204390  75.2906540  60.0298080
  50.2972170  75.3092670  59.0807590  51.3688950  75.3385480  60.1496480
  44.5923980  76.8740960  55.9653000  45.4414510  77.3111110  55.8993190
  44.2255250  77.1861220  56.7925060  55.2211750  76.2020540  67.4323210
  54.7185350  76.9425940  67.7717020  56.0368410  76.5904540  67.1160000
  53.5133760  81.4453720  60.8784570  52.5723900  81.4603950  61.0532260
  53.8277830  80.6589680  61.3244870  43.4915400  83.1273320  54.4388530
  44.2578670  83.0154680  55.0013960  43.5690090  82.4311290  53.7865300
  42.1862160  80.5598390  55.1221420  42.2665750  79.6125900  55.2338820
  43.0781910  80.8905270  55.2282080  50.8299780  86.0019720  71.3616950
  50.2237940  86.0251320  70.6212700  50.5253890  85.2702760  71.8984200
  39.7132960  82.3813310  70.3577590  40.2171980  81.8020590  70.9293820
  38.9740380  82.6653540  70.8953960  46.6156580  85.1027500  53.9123880
  46.5107220  84.4879850  54.6385260  46.4480800  84.5793390  53.1286890
  46.7670900  83.7884300  69.8913110  46.0016570  84.3569300  69.8067780
  46.9486860  83.4960510  68.9981340  49.8559310  84.1647530  54.5165870
  49.3069410  84.6116830  55.1608610  50.4778570  83.6596780  55.0403540
  53.9094250  85.5189630  70.4488130  54.6503720  85.8565390  69.9455590
  53.1466930  85.6881690  69.8957900  41.7456040  80.5242900  71.2527660
  41.7861380  80.2256770  72.1612890  42.6001540  80.9250510  71.0935180
  45.5234430  83.1238450  56.4131170  45.9450850  82.9578320  57.2562560
  45.6485270  82.3138680  55.9186310  43.6861850  79.1035000  69.2202150
  43.1558310  78.6125950  68.5925490  44.3549920  79.5319200  68.6860080
  48.0362070  82.1476060  53.6608270  48.5567730  81.4325080  53.2949420
  48.6830470  82.7861930  53.9608780  52.5839910  83.5704460  68.9843340
  52.9980930  83.7249540  69.8333760  51.6490910  83.6959680  69.1469120
  53.0562080  80.9100620  70.9882490  53.6382850  80.1552940  70.9002970
  53.2323850  81.4408060  70.2113970  44.1734150  76.0697370  69.2999440
  44.0791020  75.4518120  68.5750310  43.5931540  76.7963660  69.0729350
  46.9395590  74.6270610  66.3326830  46.4912890  74.6494870  65.4872380
  46.3060790  74.2289630  66.9297130  47.3455140  83.5224940  66.9539270
  47.7643250  84.3657670  66.7815510  46.4263770  83.6596980  66.7246050
  49.6819040  81.2541120  68.3377110  49.8015250  80.6582260  69.0771950
  50.5413040  81.2910810  67.9178410  52.0206940  81.8078310  66.9139620
  51.4942160  82.3320930  66.3104760  52.3638280  82.4405700  67.5449350
  44.4193330  79.1971680  53.3589330  44.2182390  78.3339040  53.7202670
  44.2485380  79.1105040  52.4210930  46.4487810  77.7962470  69.5952930
  47.0387500  77.4878320  70.2830750  45.6308050  77.3242220  69.7512830
  51.2681240  77.4128280  69.8285950  50.5796760  76.7509820  69.7635940
  51.9887260  76.9666550  70.2734410  51.8981640  74.0079910  55.8876210
  52.1783930  73.1647810  56.2435630  51.1247370  74.2403020  56.4014960
  43.2176130  76.2972300  53.3467210  43.5202030  76.3039730  52.4386360
  43.9570720  75.9470160  53.8434870  46.4361060  75.2406920  54.3323410
  46.0883060  74.5630910  53.7525860  46.6373830  74.7796430  55.1466800
  42.2406260  85.6014720  54.1797010  42.6781130  86.1444390  54.8354590
  42.7253990  84.7761670  54.1893350  44.0513980  86.7212760  59.2919240
  43.7509520  86.5977730  60.1923150  43.9451470  85.8621350  58.8834970
  56.2762360  83.2456640  56.4980120  57.0381270  83.8153290  56.6039810
  56.2916730  82.6783840  57.2688430  39.7766700  81.7694570  60.7287780
  39.1215540  81.5006210  60.0847480  40.6144650  81.6599050  60.2789760
  57.2822330  84.1006740  61.3422050  57.6531160  83.3174060  60.9358020
  57.9224260  84.7895840  61.1639350  54.2656090  85.4843320  66.7552370
  53.4515930  85.9140480  67.0178160  54.6730290  86.0961730  66.1421420
  56.3281530  83.5391010  53.6552640  56.6030370  84.4469890  53.5271860
  56.1392270  83.4753540  54.5914630  52.7257140  76.5635860  54.9506270
  53.1442020  76.3766840  54.1102930  52.4193200  75.7114910  55.2609200
  56.2246870  81.4760000  58.6482070  55.8490470  80.7087930  58.2163360
  55.4949990  81.8582700  59.1357000  40.8142630  82.1547140  65.2691120
  41.1815670  82.0674540  66.1487140  40.2453450  81.3913690  65.1697980
  55.6146490  80.6231520  68.2821590  55.3832580  80.3944270  67.3819540
  55.8751040  81.5431070  68.2366480  40.3658630  79.0656230  69.1749540
  39.4714680  79.0322990  69.5143250  40.9056180  79.2643020  69.9400790
  54.0534560  75.8487950  71.0601290  54.9304740  75.8571350  71.4435290
  54.0655400  75.1118790  70.4493640  38.9904780  78.9793500  56.6713110
  38.0868860  79.2423700  56.4964770  39.4745400  79.2504670  55.8913070
  55.4997830  79.7017490  61.9489310  56.0235310  79.2080140  61.3179480
  56.0857250  79.8367850  62.6936880  55.6787550  79.7857360  65.4708860
  54.7290260  79.7520900  65.5853850  55.8600560  80.6957470  65.2358630
  41.5331990  78.0359040  54.5807490  42.2423690  77.6142260  54.0954770
  40.8171930  78.1034270  53.9490840  41.1806150  74.0898370  53.6210140
  41.9034280  74.6307310  53.9391360  41.4530670  73.8161790  52.7451680
  54.9897800  78.9590840  57.8881720  55.4856920  78.7261710  58.6730600
  54.7913870  78.1202680  57.4719360  40.8698340  73.3404560  63.5232760
  41.5174530  72.7901940  63.0827920  41.2900180  73.5947710  64.3448570
  56.4184960  77.5951790  60.4219400  56.3084240  77.4407830  61.3601670
  57.1792550  77.0672730  60.1794810  54.7650680  73.5345920  66.8802400
  55.4022900  74.1480060  67.2461590  54.9125570  73.5706580  65.9351630
  57.3075230  75.4259710  53.6625540  58.2324540  75.2940890  53.4543830
  57.2851020  75.5052530  54.6161990  57.3813720  76.1970370  56.2882250
  56.5865220  76.1315490  56.8175160  57.5857000  77.1321010  56.2767600
  40.6230340  73.4960230  66.2658080  40.2745160  73.9524050  67.0316260
  40.2918040  72.6017360  66.3480510  48.1355160  74.6872110  69.7877500
  48.0744050  75.2793940  70.5372910  49.0755540  74.5798070  69.6427760
  50.7729720  74.3442170  69.4269790  51.3870130  74.6621460  68.7650870
  51.3179280  73.8590760  70.0465650  41.2950980  73.0236430  69.5408850
  41.8433970  72.8424480  68.7774960  41.3606290  72.2330540  70.0765160
  51.5137760  72.9074310  65.7539080  50.6397600  73.2409420  65.5512010
  51.4048510  72.4347490  66.5790950  52.4209740  75.1145180  67.1380800
  52.0923100  74.2996940  66.7582530  53.3692040  75.0714990  67.0146490
  49.2612580  73.8244150  64.6931990  48.4784370  74.2989650  64.9728750
  48.9675510  72.9198980  64.5845170  53.8133650  74.5267250  62.7381080
  54.2541740  74.4712350  61.8902680  53.5441240  75.4425260  62.8091260
  55.6772220  74.1582490  60.7489900  55.6160620  73.2143710  60.6020920
  56.4564250  74.2662580  61.2943360  40.6052990  74.1291630  57.2145710
  41.3632350  74.2420510  56.6409740  40.1430160  74.9660830  57.1689140
  47.1466800  76.2430900  60.2048020  46.3341310  75.8687790  59.8643900
  47.6508440  75.4875980  60.5069210  51.6491780  72.9073350  61.4431090
  52.2521150  73.4793560  61.9179610  50.9084770  73.4712790  61.2204990
  54.7926380  73.3094910  56.7171370  54.9877010  74.2078360  56.9838800
  54.0056250  73.0781990  57.2104320  42.9778140  74.6555680  55.7547680
  43.5070900  73.8685480  55.6255630  43.6106460  75.3346870  55.9883210
  45.1715980  74.3930820  58.8093070  44.5418720  73.6918130  58.9763200
  44.6321120  75.1534950  58.5926230  45.2971540  73.6714800  71.2445560
  45.0155810  74.1748400  70.4806380  45.6791240  72.8736550  70.8787690
  51.8987000  73.0868380  71.8226030  51.7852450  73.4062990  72.7177550
  52.7156740  73.4880890  71.5263310  50.8045150  81.1060850  42.1860770
  50.7239200  80.1915460  41.9152480  50.3909570  81.6027920  41.4800480
  48.9363190  82.8839870  44.0670040  48.1605290  82.4040310  44.3568610
  49.5876120  82.2045520  43.8926200  42.9529020  83.1959680  44.9445800
  42.1213900  82.9408390  45.3442310  43.5610000  83.2670450  45.6803720
  41.3620970  78.1561570  38.7288190  40.4737670  78.4977540  38.6268070
  41.6462160  77.9561890  37.8369020  39.3253980  80.7567220  44.6127890
  39.8970090  79.9889420  44.6131530  39.3255520  81.0555980  43.7034500
  48.3772180  85.5597060  44.0740200  48.3080460  84.6187000  43.9129330
  49.1392040  85.6498470  44.6462770  40.5678850  76.1651580  46.3996820
  40.3881690  75.2677330  46.6799580  40.1658930  76.7123450  47.0743770
  49.4077350  78.3667440  44.3009130  49.7842170  77.4939320  44.1882800
  49.3096860  78.7026140  43.4099570  43.5382360  76.7393070  39.7626570
  43.6449110  77.6396800  40.0695330  42.6274720  76.6911040  39.4721220
  53.1901470  75.8617880  41.2337470  54.0111090  75.3714450  41.2762950
  53.2235550  76.4515540  41.9869310  41.1865520  78.6612080  45.0079160
  41.8675630  78.9250450  45.6266560  40.8713570  77.8212950  45.3417170
  45.3790090  79.7079440  44.0951750  45.8868310  80.2060410  44.7356770
  45.9103330  78.9314640  43.9191110  57.4801020  77.8784630  47.7981100
  56.7753190  78.2666340  47.2796210  57.7458940  78.5734920  48.4002030
  43.6626190  74.3478000  48.3615170  43.6644630  74.8650390  47.5561070
  42.8330500  73.8708180  48.3385100  50.0497280  84.4597310  39.8605070
  49.4314550  84.9246760  39.2967790  50.5620530  85.1524790  40.2774580
  44.9129040  83.9873180  46.5388670  44.5798420  84.6142100  47.1809740
  45.0895720  84.5135060  45.7590340  53.4262950  77.8018260  44.0065010
  52.7218520  78.0903150  44.5868120  53.7875110  78.6118370  43.6464570
  43.3441520  76.0587960  46.3685620  43.6858330  76.9030010  46.0739490
  42.4057330  76.2071700  46.4850960  44.1248140  85.9553980  48.3537850
  44.7422140  86.6305060  48.0722300  43.2641260  86.3641960  48.2625350
  39.4180480  85.1453840  37.2344700  39.0408460  85.6340940  36.5029600
  39.6753550  85.8179120  37.8651230  56.4949870  77.2473050  44.3974220
  55.5474780  77.2812030  44.5289650  56.8199860  78.0612000  44.7823580
  47.0269410  73.5470230  42.6930210  47.3344390  72.9917120  41.9765710
  46.0970110  73.6814690  42.5103200  53.8729890  85.9853740  40.0727840
  53.7626220  85.0428070  40.1977260  53.8698140  86.3469380  40.9590600
  51.9769910  84.1667360  46.3120280  52.3938700  83.9527470  45.4773740
  52.7009730  84.4240150  46.8828900  49.4150170  81.6119060  39.4290330
  48.4879450  81.5456440  39.6578800  49.5674990  82.5499190  39.3145570
  49.4019250  77.8836060  36.4257490  48.4622920  78.0450020  36.5109950
  49.7202510  78.6021740  35.8793480  55.9232010  82.5654580  46.4036520
  55.0950640  82.6347670  45.9286650  56.5182490  83.1508890  45.9352350
  53.4447460  83.1739360  39.9325580  52.8259880  82.8358910  39.2851880
  53.4271910  82.5299120  40.6404770  52.8874020  79.3523900  47.3491390
  52.4745200  80.1777610  47.6031380  52.1549970  78.7668940  47.1567750
  45.0206810  82.1383800  42.2110060  44.6163810  81.4261050  41.7155960
  45.1069930  81.7937040  43.0998100  45.4888510  85.8251360  44.3749270
  45.1916800  85.2196830  43.6957050  46.4388330  85.8628670  44.2638630
  43.7335430  78.9127010  45.9909100  44.2850020  79.0222350  45.2162350
  44.2478940  79.2864610  46.7064330  44.5806940  85.5633050  51.0257070
  43.6835470  85.7873020  51.2730470  44.6059810  85.6867990  50.0768470
  51.6212160  82.4126170  36.9398330  52.0605440  81.5748600  36.7936150
  52.3340580  83.0455570  37.0262470  43.4078160  82.4346370  49.6014440
  43.2685930  83.3069170  49.9701840  42.5259520  82.0919180  49.4562380
  55.2029300  73.6668980  35.2539370  54.8901960  73.7595810  36.1538440
  55.9641770  74.2450010  35.2036800  41.7211440  81.0328780  39.7116710
  41.6009040  81.7590870  39.0997980  41.4112330  80.2631690  39.2344620
  39.3596810  84.2043920  45.5185350  39.4377230  84.3392690  44.5741070
  39.9738490  83.4959810  45.7113470  40.6044440  85.9044110  41.9291530
  40.1972520  86.0458700  41.0745130  41.4957450  85.6204270  41.7262740
  56.5606580  86.3508020  50.2663770  56.6869640  86.1119900  49.3480950
  56.6027960  85.5192560  50.7385850  56.4130590  78.4040480  51.2313510
  55.7974860  78.9120150  50.7028970  56.0927010  77.5038810  51.1739450
  39.4156330  85.2458090  48.0579810  39.5787370  84.7763450  47.2399180
  39.8808780  84.7381650  48.7228650  44.1875100  74.3763850  43.0940380
  43.7443250  75.1573390  42.7624900  44.7460090  74.6993740  43.8011320
  48.4744910  77.2432370  48.6975700  48.0124280  77.4515390  49.5095640
  48.0723020  76.4291720  48.3946370  53.4749420  78.4641320  49.8272360
  52.6243010  78.1647070  50.1481430  53.3151210  78.7083330  48.9156180
  50.5699130  79.9643070  51.9271150  50.8952540  79.1306820  51.5873380
  51.3579460  80.4871590  52.0749480  47.3033920  73.9974550  37.9746210
  46.6788100  73.9934420  38.6999520  47.2164040  73.1305510  37.5782180
  46.2251000  74.9211180  44.9529980  46.5223330  75.8274010  44.8722000
  46.7736560  74.4329960  44.3389550  43.9789320  79.4997420  40.8221630
  43.7530240  79.2834590  41.7268250  43.1981850  79.9325880  40.4767600
  51.2087080  79.5060790  39.4212280  50.6095970  80.2296590  39.2375900
  51.7566690  79.4437570  38.6388730  46.4188530  80.3983000  51.4881900
  46.3232130  79.4577730  51.3382300  47.2620510  80.6198070  51.0929970
  49.8151950  78.1424330  41.4515560  50.2081520  78.4596530  40.6384250
  50.1768800  77.2636210  41.5660080  41.5499070  76.8096670  49.6415680
  41.1562460  77.6571880  49.8488460  40.8617470  76.1723040  49.8324320
  48.1244120  76.8931640  52.7112420  47.4342440  76.7003840  53.3458510
  48.8676420  77.1766280  53.2436720  38.8516120  74.7325130  43.6745760
  38.5629170  75.3027990  44.3870740  39.5961880  74.2529580  44.0376990
  39.0386350  78.6745250  34.8848480  38.9561020  79.6176010  35.0263470
  38.6869410  78.5320160  34.0060830  50.4007090  80.7330080  45.5466340
  49.6688210  81.2416890  45.8956440  50.0031430  79.9160060  45.2455120
  46.8384480  77.4084280  43.9518830  46.8420540  76.9674230  43.1023370
  47.7335600  77.7301610  44.0590650  42.6886860  77.2910770  42.9113040
  42.3486910  77.7686000  43.6680090  41.9264180  76.8375890  42.5514140
  46.9004630  78.4096360  36.9425590  47.0217450  78.3682840  37.8911410
  46.5153140  79.2720510  36.7872320  50.8633000  76.1863760  44.9589280
  50.8805740  76.6372410  45.8031130  50.6148580  75.2869400  45.1722720
  45.9126130  80.7197500  36.3408890  45.3443030  80.2715750  35.7144800
  46.6215130  81.0790280  35.8074040  54.2903750  73.5995940  50.7975660
  54.6149520  72.8685600  51.3233640  54.3260260  73.2809580  49.8956650
  40.9895310  84.6209520  50.2175620  40.6050100  83.9803190  50.8158580
  41.3007500  85.3245640  50.7870350  47.1392450  81.4686060  45.6984240
  47.5062580  80.9944630  46.4445580  46.9497510  82.3427630  46.0392580
  40.0032940  76.2129750  41.8277710  39.7179860  75.8485420  42.6656330
  39.9411800  75.4810210  41.2140850  44.9291820  80.5094700  48.0168450
  44.6248890  81.3886680  48.2418810  45.8838280  80.5694490  48.0525890
  43.4573610  84.7155690  38.6135300  42.6835870  84.1753310  38.4534020
  44.1868240  84.1962300  38.2753060  54.2161590  83.7121050  44.4061690
  54.9360710  84.2076340  44.0157800  54.0143410  83.0338940  43.7615560
  49.6771530  75.1059010  38.5491080  48.8636140  74.6072180  38.4736390
  49.4833480  75.9457260  38.1327430  49.5980390  83.7830110  50.2930690
  49.5317700  82.8625780  50.0388280  48.9685530  83.8805550  51.0075330
  52.3919920  79.4778660  36.8453240  53.2799540  79.7895890  36.6704580
  52.3625010  78.6050910  36.4533820  43.5011010  84.3836070  42.2514110
  44.0189680  83.5804330  42.1971000  43.0495030  84.3215210  43.0930940
  48.3880510  85.6502350  37.5241410  48.7296210  86.3944580  37.0284730
  47.5593220  85.9633470  37.8866240  40.9855550  81.3497440  49.1639810
  40.6270490  82.0151290  49.7513150  40.6910110  80.5180990  49.5352430
  44.1868670  81.8081680  52.0479360  43.8868810  81.9538860  51.1507180
  44.9579910  81.2486970  51.9552750  49.5297120  86.6050680  50.0434490
  49.5441660  85.6731640  49.8253400  48.8222220  86.6910440  50.6824260
  54.6634190  80.7890500  36.3133100  54.5797910  81.2204720  35.4629540
  55.3828380  81.2488850  36.7459920  55.7408330  83.2458020  49.3903070
  55.0156520  83.8386800  49.1932460  56.2683790  83.2381560  48.5916440
  51.2707920  84.9718190  42.8886920  51.6231740  84.3746320  42.2288290
  50.3870250  84.6462420  43.0595170  47.3571200  85.7315880  40.2957330
  48.0442330  86.2785090  40.6764920  46.5703620  86.2756610  40.3306940
  39.4963600  81.3488700  35.7874410  40.3658450  81.6313500  36.0710330
  39.0053920  82.1624570  35.6723220  46.6598410  82.7361910  39.9082690
  47.1161190  83.5467160  40.1342880  46.3086620  82.4185050  40.7401180
  42.5610190  73.0799560  40.3805210  42.4324820  73.0717460  41.3290130
  41.7372210  73.4182650  40.0296220  50.2363100  86.2500600  45.8552440
  50.8785330  85.5493760  45.9684610  50.7612450  87.0299040  45.6749330
  54.0818820  86.5349220  35.5791580  53.8556400  85.8179660  36.1716220
  53.6915020  86.2861660  34.7413330  39.5604120  74.8390680  49.8411910
  38.8462640  75.0387600  50.4464520  39.9799160  74.0630250  50.2126710
  53.6635070  84.4521160  37.2405740  53.3756770  84.9133850  38.0283620
  54.4587240  83.9918930  37.5089960  41.4810110  83.1662170  37.9156470
  40.8738060  83.9061070  37.9251770  41.9559460  83.2561530  37.0894670
  51.0542900  77.3312990  47.5913360  51.4223720  76.5108200  47.9192930
  50.1941100  77.3914880  48.0069010  54.4204930  76.2869930  38.4000920
  53.7918090  76.3915600  37.6859150  53.9256850  76.5066710  39.1894800
  46.3888960  78.5655880  39.8158800  45.6805110  79.0342220  40.2572410
  46.6733440  77.9077890  40.4503990  48.0144890  79.9852580  47.8151330
  48.5130140  80.4598400  48.4803180  48.1567840  79.0616100  48.0221360
  50.4204390  75.2906540  41.2554590  50.2972170  75.3092670  40.3064100
  51.3688950  75.3385480  41.3752990  44.5923980  76.8740960  37.1909510
  45.4414510  77.3111110  37.1249700  44.2255250  77.1861220  38.0181570
  55.2211750  76.2020540  48.6579720  54.7185350  76.9425940  48.9973530
  56.0368410  76.5904540  48.3416510  53.5133760  81.4453720  42.1041080
  52.5723900  81.4603950  42.2788770  53.8277830  80.6589680  42.5501380
  43.4915400  83.1273320  35.6645040  44.2578670  83.0154680  36.2270470
  43.5690090  82.4311290  35.0121810  42.1862160  80.5598390  36.3477930
  42.2665750  79.6125900  36.4595330  43.0781910  80.8905270  36.4538590
  50.8299780  86.0019720  52.5873460  50.2237940  86.0251320  51.8469210
  50.5253890  85.2702760  53.1240710  39.7132960  82.3813310  51.5834100
  40.2171980  81.8020590  52.1550330  38.9740380  82.6653540  52.1210470
  46.6156580  85.1027500  35.1380390  46.5107220  84.4879850  35.8641770
  46.4480800  84.5793390  34.3543400  46.7670900  83.7884300  51.1169620
  46.0016570  84.3569300  51.0324290  46.9486860  83.4960510  50.2237850
  49.8559310  84.1647530  35.7422380  49.3069410  84.6116830  36.3865120
  50.4778570  83.6596780  36.2660050  53.9094250  85.5189630  51.6744640
  54.6503720  85.8565390  51.1712100  53.1466930  85.6881690  51.1214410
  41.7456040  80.5242900  52.4784170  41.7861380  80.2256770  53.3869400
  42.6001540  80.9250510  52.3191690  45.5234430  83.1238450  37.6387680
  45.9450850  82.9578320  38.4819070  45.6485270  82.3138680  37.1442820
  43.6861850  79.1035000  50.4458660  43.1558310  78.6125950  49.8182000
  44.3549920  79.5319200  49.9116590  48.0362070  82.1476060  34.8864780
  48.5567730  81.4325080  34.5205930  48.6830470  82.7861930  35.1865290
  52.5839910  83.5704460  50.2099850  52.9980930  83.7249540  51.0590270
  51.6490910  83.6959680  50.3725630  53.0562080  80.9100620  52.2139000
  53.6382850  80.1552940  52.1259480  53.2323850  81.4408060  51.4370480
  44.1734150  76.0697370  50.5255950  44.0791020  75.4518120  49.8006820
  43.5931540  76.7963660  50.2985860  46.9395590  74.6270610  47.5583340
  46.4912890  74.6494870  46.7128890  46.3060790  74.2289630  48.1553640
  47.3455140  83.5224940  48.1795780  47.7643250  84.3657670  48.0072020
  46.4263770  83.6596980  47.9502560  49.6819040  81.2541120  49.5633620
  49.8015250  80.6582260  50.3028460  50.5413040  81.2910810  49.1434920
  52.0206940  81.8078310  48.1396130  51.4942160  82.3320930  47.5361270
  52.3638280  82.4405700  48.7705860  44.4193330  79.1971680  34.5845840
  44.2182390  78.3339040  34.9459180  44.2485380  79.1105040  33.6467440
  46.4487810  77.7962470  50.8209440  47.0387500  77.4878320  51.5087260
  45.6308050  77.3242220  50.9769340  51.2681240  77.4128280  51.0542460
  50.5796760  76.7509820  50.9892450  51.9887260  76.9666550  51.4990920
  51.8981640  74.0079910  37.1132720  52.1783930  73.1647810  37.4692140
  51.1247370  74.2403020  37.6271470  43.2176130  76.2972300  34.5723720
  43.5202030  76.3039730  33.6642870  43.9570720  75.9470160  35.0691380
  46.4361060  75.2406920  35.5579920  46.0883060  74.5630910  34.9782370
  46.6373830  74.7796430  36.3723310  42.2406260  85.6014720  35.4053520
  42.6781130  86.1444390  36.0611100  42.7253990  84.7761670  35.4149860
  44.0513980  86.7212760  40.5175750  43.7509520  86.5977730  41.4179660
  43.9451470  85.8621350  40.1091480  56.2762360  83.2456640  37.7236630
  57.0381270  83.8153290  37.8296320  56.2916730  82.6783840  38.4944940
  39.7766700  81.7694570  41.9544290  39.1215540  81.5006210  41.3103990
  40.6144650  81.6599050  41.5046270  57.2822330  84.1006740  42.5678560
  57.6531160  83.3174060  42.1614530  57.9224260  84.7895840  42.3895860
  54.2656090  85.4843320  47.9808880  53.4515930  85.9140480  48.2434670
  54.6730290  86.0961730  47.3677930  56.3281530  83.5391010  34.8809150
  56.6030370  84.4469890  34.7528370  56.1392270  83.4753540  35.8171140
  52.7257140  76.5635860  36.1762780  53.1442020  76.3766840  35.3359440
  52.4193200  75.7114910  36.4865710  56.2246870  81.4760000  39.8738580
  55.8490470  80.7087930  39.4419870  55.4949990  81.8582700  40.3613510
  40.8142630  82.1547140  46.4947630  41.1815670  82.0674540  47.3743650
  40.2453450  81.3913690  46.3954490  55.6146490  80.6231520  49.5078100
  55.3832580  80.3944270  48.6076050  55.8751040  81.5431070  49.4622990
  40.3658630  79.0656230  50.4006050  39.4714680  79.0322990  50.7399760
  40.9056180  79.2643020  51.1657300  54.0534560  75.8487950  52.2857800
  54.9304740  75.8571350  52.6691800  54.0655400  75.1118790  51.6750150
  38.9904780  78.9793500  37.8969620  38.0868860  79.2423700  37.7221280
  39.4745400  79.2504670  37.1169580  55.4997830  79.7017490  43.1745820
  56.0235310  79.2080140  42.5435990  56.0857250  79.8367850  43.9193390
  55.6787550  79.7857360  46.6965370  54.7290260  79.7520900  46.8110360
  55.8600560  80.6957470  46.4615140  41.5331990  78.0359040  35.8064000
  42.2423690  77.6142260  35.3211280  40.8171930  78.1034270  35.1747350
  41.1806150  74.0898370  34.8466650  41.9034280  74.6307310  35.1647870
  41.4530670  73.8161790  33.9708190  54.9897800  78.9590840  39.1138230
  55.4856920  78.7261710  39.8987110  54.7913870  78.1202680  38.6975870
  40.8698340  73.3404560  44.7489270  41.5174530  72.7901940  44.3084430
  41.2900180  73.5947710  45.5705080  56.4184960  77.5951790  41.6475910
  56.3084240  77.4407830  42.5858180  57.1792550  77.0672730  41.4051320
  54.7650680  73.5345920  48.1058910  55.4022900  74.1480060  48.4718100
  54.9125570  73.5706580  47.1608140  57.3075230  75.4259710  34.8882050
  58.2324540  75.2940890  34.6800340  57.2851020  75.5052530  35.8418500
  57.3813720  76.1970370  37.5138760  56.5865220  76.1315490  38.0431670
  57.5857000  77.1321010  37.5024110  40.6230340  73.4960230  47.4914590
  40.2745160  73.9524050  48.2572770  40.2918040  72.6017360  47.5737020
  48.1355160  74.6872110  51.0134010  48.0744050  75.2793940  51.7629420
  49.0755540  74.5798070  50.8684270  50.7729720  74.3442170  50.6526300
  51.3870130  74.6621460  49.9907380  51.3179280  73.8590760  51.2722160
  41.2950980  73.0236430  50.7665360  41.8433970  72.8424480  50.0031470
  41.3606290  72.2330540  51.3021670  51.5137760  72.9074310  46.9795590
  50.6397600  73.2409420  46.7768520  51.4048510  72.4347490  47.8047460
  52.4209740  75.1145180  48.3637310  52.0923100  74.2996940  47.9839040
  53.3692040  75.0714990  48.2403000  49.2612580  73.8244150  45.9188500
  48.4784370  74.2989650  46.1985260  48.9675510  72.9198980  45.8101680
  53.8133650  74.5267250  43.9637590  54.2541740  74.4712350  43.1159190
  53.5441240  75.4425260  44.0347770  55.6772220  74.1582490  41.9746410
  55.6160620  73.2143710  41.8277430  56.4564250  74.2662580  42.5199870
  40.6052990  74.1291630  38.4402220  41.3632350  74.2420510  37.8666250
  40.1430160  74.9660830  38.3945650  47.1466800  76.2430900  41.4304530
  46.3341310  75.8687790  41.0900410  47.6508440  75.4875980  41.7325720
  51.6491780  72.9073350  42.6687600  52.2521150  73.4793560  43.1436120
  50.9084770  73.4712790  42.4461500  54.7926380  73.3094910  37.9427880
  54.9877010  74.2078360  38.2095310  54.0056250  73.0781990  38.4360830
  42.9778140  74.6555680  36.9804190  43.5070900  73.8685480  36.8512140
  43.6106460  75.3346870  37.2139720  45.1715980  74.3930820  40.0349580
  44.5418720  73.6918130  40.2019710  44.6321120  75.1534950  39.8182740
  45.2971540  73.6714800  52.4702070  45.0155810  74.1748400  51.7062890
  45.6791240  72.8736550  52.1044200  51.8987000  73.0868380  53.0482540
  51.7852450  73.4062990  53.9434060  52.7156740  73.4880890  52.7519820
  50.8045150  81.1060850  23.4117280  50.7239200  80.1915460  23.1408990
  50.3909570  81.6027920  22.7056990  48.9363190  82.8839870  25.2926550
  48.1605290  82.4040310  25.5825120  49.5876120  82.2045520  25.1182710
  42.9529020  83.1959680  26.1702310  42.1213900  82.9408390  26.5698820
  43.5610000  83.2670450  26.9060230  41.3620970  78.1561570  19.9544700
  40.4737670  78.4977540  19.8524580  41.6462160  77.9561890  19.0625530
  39.3253980  80.7567220  25.8384400  39.8970090  79.9889420  25.8388040
  39.3255520  81.0555980  24.9291010  48.3772180  85.5597060  25.2996710
  48.3080460  84.6187000  25.1385840  49.1392040  85.6498470  25.8719280
  40.5678850  76.1651580  27.6253330  40.3881690  75.2677330  27.9056090
  40.1658930  76.7123450  28.3000280  49.4077350  78.3667440  25.5265640
  49.7842170  77.4939320  25.4139310  49.3096860  78.7026140  24.6356080
  43.5382360  76.7393070  20.9883080  43.6449110  77.6396800  21.2951840
  42.6274720  76.6911040  20.6977730  53.1901470  75.8617880  22.4593980
  54.0111090  75.3714450  22.5019460  53.2235550  76.4515540  23.2125820
  41.1865520  78.6612080  26.2335670  41.8675630  78.9250450  26.8523070
  40.8713570  77.8212950  26.5673680  45.3790090  79.7079440  25.3208260
  45.8868310  80.2060410  25.9613280  45.9103330  78.9314640  25.1447620
  57.4801020  77.8784630  29.0237610  56.7753190  78.2666340  28.5052720
  57.7458940  78.5734920  29.6258540  43.6626190  74.3478000  29.5871680
  43.6644630  74.8650390  28.7817580  42.8330500  73.8708180  29.5641610
  50.0497280  84.4597310  21.0861580  49.4314550  84.9246760  20.5224300
  50.5620530  85.1524790  21.5031090  44.9129040  83.9873180  27.7645180
  44.5798420  84.6142100  28.4066250  45.0895720  84.5135060  26.9846850
  53.4262950  77.8018260  25.2321520  52.7218520  78.0903150  25.8124630
  53.7875110  78.6118370  24.8721080  43.3441520  76.0587960  27.5942130
  43.6858330  76.9030010  27.2996000  42.4057330  76.2071700  27.7107470
  44.1248140  85.9553980  29.5794360  44.7422140  86.6305060  29.2978810
  43.2641260  86.3641960  29.4881860  39.4180480  85.1453840  18.4601210
  39.0408460  85.6340940  17.7286110  39.6753550  85.8179120  19.0907740
  56.4949870  77.2473050  25.6230730  55.5474780  77.2812030  25.7546160
  56.8199860  78.0612000  26.0080090  47.0269410  73.5470230  23.9186720
  47.3344390  72.9917120  23.2022220  46.0970110  73.6814690  23.7359710
  53.8729890  85.9853740  21.2984350  53.7626220  85.0428070  21.4233770
  53.8698140  86.3469380  22.1847110  51.9769910  84.1667360  27.5376790
  52.3938700  83.9527470  26.7030250  52.7009730  84.4240150  28.1085410
  49.4150170  81.6119060  20.6546840  48.4879450  81.5456440  20.8835310
  49.5674990  82.5499190  20.5402080  49.4019250  77.8836060  17.6514000
  48.4622920  78.0450020  17.7366460  49.7202510  78.6021740  17.1049990
  55.9232010  82.5654580  27.6293030  55.0950640  82.6347670  27.1543160
  56.5182490  83.1508890  27.1608860  53.4447460  83.1739360  21.1582090
  52.8259880  82.8358910  20.5108390  53.4271910  82.5299120  21.8661280
  52.8874020  79.3523900  28.5747900  52.4745200  80.1777610  28.8287890
  52.1549970  78.7668940  28.3824260  45.0206810  82.1383800  23.4366570
  44.6163810  81.4261050  22.9412470  45.1069930  81.7937040  24.3254610
  45.4888510  85.8251360  25.6005780  45.1916800  85.2196830  24.9213560
  46.4388330  85.8628670  25.4895140  43.7335430  78.9127010  27.2165610
  44.2850020  79.0222350  26.4418860  44.2478940  79.2864610  27.9320840
  44.5806940  85.5633050  32.2513580  43.6835470  85.7873020  32.4986980
  44.6059810  85.6867990  31.3024980  51.6212160  82.4126170  18.1654840
  52.0605440  81.5748600  18.0192660  52.3340580  83.0455570  18.2518980
  43.4078160  82.4346370  30.8270950  43.2685930  83.3069170  31.1958350
  42.5259520  82.0919180  30.6818890  55.2029300  73.6668980  16.4795880
  54.8901960  73.7595810  17.3794950  55.9641770  74.2450010  16.4293310
  41.7211440  81.0328780  20.9373220  41.6009040  81.7590870  20.3254490
  41.4112330  80.2631690  20.4601130  39.3596810  84.2043920  26.7441860
  39.4377230  84.3392690  25.7997580  39.9738490  83.4959810  26.9369980
  40.6044440  85.9044110  23.1548040  40.1972520  86.0458700  22.3001640
  41.4957450  85.6204270  22.9519250  56.5606580  86.3508020  31.4920280
  56.6869640  86.1119900  30.5737460  56.6027960  85.5192560  31.9642360
  56.4130590  78.4040480  32.4570020  55.7974860  78.9120150  31.9285480
  56.0927010  77.5038810  32.3995960  39.4156330  85.2458090  29.2836320
  39.5787370  84.7763450  28.4655690  39.8808780  84.7381650  29.9485160
  44.1875100  74.3763850  24.3196890  43.7443250  75.1573390  23.9881410
  44.7460090  74.6993740  25.0267830  48.4744910  77.2432370  29.9232210
  48.0124280  77.4515390  30.7352150  48.0723020  76.4291720  29.6202880
  53.4749420  78.4641320  31.0528870  52.6243010  78.1647070  31.3737940
  53.3151210  78.7083330  30.1412690  50.5699130  79.9643070  33.1527660
  50.8952540  79.1306820  32.8129890  51.3579460  80.4871590  33.3005990
  47.3033920  73.9974550  19.2002720  46.6788100  73.9934420  19.9256030
  47.2164040  73.1305510  18.8038690  46.2251000  74.9211180  26.1786490
  46.5223330  75.8274010  26.0978510  46.7736560  74.4329960  25.5646060
  43.9789320  79.4997420  22.0478140  43.7530240  79.2834590  22.9524760
  43.1981850  79.9325880  21.7024110  51.2087080  79.5060790  20.6468790
  50.6095970  80.2296590  20.4632410  51.7566690  79.4437570  19.8645240
  46.4188530  80.3983000  32.7138410  46.3232130  79.4577730  32.5638810
  47.2620510  80.6198070  32.3186480  49.8151950  78.1424330  22.6772070
  50.2081520  78.4596530  21.8640760  50.1768800  77.2636210  22.7916590
  41.5499070  76.8096670  30.8672190  41.1562460  77.6571880  31.0744970
  40.8617470  76.1723040  31.0580830  48.1244120  76.8931640  33.9368930
  47.4342440  76.7003840  34.5715020  48.8676420  77.1766280  34.4693230
  38.8516120  74.7325130  24.9002270  38.5629170  75.3027990  25.6127250
  39.5961880  74.2529580  25.2633500  39.0386350  78.6745250  16.1104990
  38.9561020  79.6176010  16.2519980  38.6869410  78.5320160  15.2317340
  50.4007090  80.7330080  26.7722850  49.6688210  81.2416890  27.1212950
  50.0031430  79.9160060  26.4711630  46.8384480  77.4084280  25.1775340
  46.8420540  76.9674230  24.3279880  47.7335600  77.7301610  25.2847160
  42.6886860  77.2910770  24.1369550  42.3486910  77.7686000  24.8936600
  41.9264180  76.8375890  23.7770650  46.9004630  78.4096360  18.1682100
  47.0217450  78.3682840  19.1167920  46.5153140  79.2720510  18.0128830
  50.8633000  76.1863760  26.1845790  50.8805740  76.6372410  27.0287640
  50.6148580  75.2869400  26.3979230  45.9126130  80.7197500  17.5665400
  45.3443030  80.2715750  16.9401310  46.6215130  81.0790280  17.0330550
  54.2903750  73.5995940  32.0232170  54.6149520  72.8685600  32.5490150
  54.3260260  73.2809580  31.1213160  40.9895310  84.6209520  31.4432130
  40.6050100  83.9803190  32.0415090  41.3007500  85.3245640  32.0126860
  47.1392450  81.4686060  26.9240750  47.5062580  80.9944630  27.6702090
  46.9497510  82.3427630  27.2649090  40.0032940  76.2129750  23.0534220
  39.7179860  75.8485420  23.8912840  39.9411800  75.4810210  22.4397360
  44.9291820  80.5094700  29.2424960  44.6248890  81.3886680  29.4675320
  45.8838280  80.5694490  29.2782400  43.4573610  84.7155690  19.8391810
  42.6835870  84.1753310  19.6790530  44.1868240  84.1962300  19.5009570
  54.2161590  83.7121050  25.6318200  54.9360710  84.2076340  25.2414310
  54.0143410  83.0338940  24.9872070  49.6771530  75.1059010  19.7747590
  48.8636140  74.6072180  19.6992900  49.4833480  75.9457260  19.3583940
  49.5980390  83.7830110  31.5187200  49.5317700  82.8625780  31.2644790
  48.9685530  83.8805550  32.2331840  52.3919920  79.4778660  18.0709750
  53.2799540  79.7895890  17.8961090  52.3625010  78.6050910  17.6790330
  43.5011010  84.3836070  23.4770620  44.0189680  83.5804330  23.4227510
  43.0495030  84.3215210  24.3187450  48.3880510  85.6502350  18.7497920
  48.7296210  86.3944580  18.2541240  47.5593220  85.9633470  19.1122750
  40.9855550  81.3497440  30.3896320  40.6270490  82.0151290  30.9769660
  40.6910110  80.5180990  30.7608940  44.1868670  81.8081680  33.2735870
  43.8868810  81.9538860  32.3763690  44.9579910  81.2486970  33.1809260
  49.5297120  86.6050680  31.2691000  49.5441660  85.6731640  31.0509910
  48.8222220  86.6910440  31.9080770  54.6634190  80.7890500  17.5389610
  54.5797910  81.2204720  16.6886050  55.3828380  81.2488850  17.9716430
  55.7408330  83.2458020  30.6159580  55.0156520  83.8386800  30.4188970
  56.2683790  83.2381560  29.8172950  51.2707920  84.9718190  24.1143430
  51.6231740  84.3746320  23.4544800  50.3870250  84.6462420  24.2851680
  47.3571200  85.7315880  21.5213840  48.0442330  86.2785090  21.9021430
  46.5703620  86.2756610  21.5563450  39.4963600  81.3488700  17.0130920
  40.3658450  81.6313500  17.2966840  39.0053920  82.1624570  16.8979730
  46.6598410  82.7361910  21.1339200  47.1161190  83.5467160  21.3599390
  46.3086620  82.4185050  21.9657690  42.5610190  73.0799560  21.6061720
  42.4324820  73.0717460  22.5546640  41.7372210  73.4182650  21.2552730
  50.2363100  86.2500600  27.0808950  50.8785330  85.5493760  27.1941120
  50.7612450  87.0299040  26.9005840  54.0818820  86.5349220  16.8048090
  53.8556400  85.8179660  17.3972730  53.6915020  86.2861660  15.9669840
  39.5604120  74.8390680  31.0668420  38.8462640  75.0387600  31.6721030
  39.9799160  74.0630250  31.4383220  53.6635070  84.4521160  18.4662250
  53.3756770  84.9133850  19.2540130  54.4587240  83.9918930  18.7346470
  41.4810110  83.1662170  19.1412980  40.8738060  83.9061070  19.1508280
  41.9559460  83.2561530  18.3151180  51.0542900  77.3312990  28.8169870
  51.4223720  76.5108200  29.1449440  50.1941100  77.3914880  29.2325520
  54.4204930  76.2869930  19.6257430  53.7918090  76.3915600  18.9115660
  53.9256850  76.5066710  20.4151310  46.3888960  78.5655880  21.0415310
  45.6805110  79.0342220  21.4828920  46.6733440  77.9077890  21.6760500
  48.0144890  79.9852580  29.0407840  48.5130140  80.4598400  29.7059690
  48.1567840  79.0616100  29.2477870  50.4204390  75.2906540  22.4811100
  50.2972170  75.3092670  21.5320610  51.3688950  75.3385480  22.6009500
  44.5923980  76.8740960  18.4166020  45.4414510  77.3111110  18.3506210
  44.2255250  77.1861220  19.2438080  55.2211750  76.2020540  29.8836230
  54.7185350  76.9425940  30.2230040  56.0368410  76.5904540  29.5673020
  53.5133760  81.4453720  23.3297590  52.5723900  81.4603950  23.5045280
  53.8277830  80.6589680  23.7757890  43.4915400  83.1273320  16.8901550
  44.2578670  83.0154680  17.4526980  43.5690090  82.4311290  16.2378320
  42.1862160  80.5598390  17.5734440  42.2665750  79.6125900  17.6851840
  43.0781910  80.8905270  17.6795100  50.8299780  86.0019720  33.8129970
  50.2237940  86.0251320  33.0725720  50.5253890  85.2702760  34.3497220
  39.7132960  82.3813310  32.8090610  40.2171980  81.8020590  33.3806840
  38.9740380  82.6653540  33.3466980  46.6156580  85.1027500  16.3636900
  46.5107220  84.4879850  17.0898280  46.4480800  84.5793390  15.5799910
  46.7670900  83.7884300  32.3426130  46.0016570  84.3569300  32.2580800
  46.9486860  83.4960510  31.4494360  49.8559310  84.1647530  16.9678890
  49.3069410  84.6116830  17.6121630  50.4778570  83.6596780  17.4916560
  53.9094250  85.5189630  32.9001150  54.6503720  85.8565390  32.3968610
  53.1466930  85.6881690  32.3470920  41.7456040  80.5242900  33.7040680
  41.7861380  80.2256770  34.6125910  42.6001540  80.9250510  33.5448200
  45.5234430  83.1238450  18.8644190  45.9450850  82.9578320  19.7075580
  45.6485270  82.3138680  18.3699330  43.6861850  79.1035000  31.6715170
  43.1558310  78.6125950  31.0438510  44.3549920  79.5319200  31.1373100
  48.0362070  82.1476060  16.1121290  48.5567730  81.4325080  15.7462440
  48.6830470  82.7861930  16.4121800  52.5839910  83.5704460  31.4356360
  52.9980930  83.7249540  32.2846780  51.6490910  83.6959680  31.5982140
  53.0562080  80.9100620  33.4395510  53.6382850  80.1552940  33.3515990
  53.2323850  81.4408060  32.6626990  44.1734150  76.0697370  31.7512460
  44.0791020  75.4518120  31.0263330  43.5931540  76.7963660  31.5242370
  46.9395590  74.6270610  28.7839850  46.4912890  74.6494870  27.9385400
  46.3060790  74.2289630  29.3810150  47.3455140  83.5224940  29.4052290
  47.7643250  84.3657670  29.2328530  46.4263770  83.6596980  29.1759070
  49.6819040  81.2541120  30.7890130  49.8015250  80.6582260  31.5284970
  50.5413040  81.2910810  30.3691430  52.0206940  81.8078310  29.3652640
  51.4942160  82.3320930  28.7617780  52.3638280  82.4405700  29.9962370
  44.4193330  79.1971680  15.8102350  44.2182390  78.3339040  16.1715690
  44.2485380  79.1105040  14.8723950  46.4487810  77.7962470  32.0465950
  47.0387500  77.4878320  32.7343770  45.6308050  77.3242220  32.2025850
  51.2681240  77.4128280  32.2798970  50.5796760  76.7509820  32.2148960
  51.9887260  76.9666550  32.7247430  51.8981640  74.0079910  18.3389230
  52.1783930  73.1647810  18.6948650  51.1247370  74.2403020  18.8527980
  43.2176130  76.2972300  15.7980230  43.5202030  76.3039730  14.8899380
  43.9570720  75.9470160  16.2947890  46.4361060  75.2406920  16.7836430
  46.0883060  74.5630910  16.2038880  46.6373830  74.7796430  17.5979820
  42.2406260  85.6014720  16.6310030  42.6781130  86.1444390  17.2867610
  42.7253990  84.7761670  16.6406370  44.0513980  86.7212760  21.7432260
  43.7509520  86.5977730  22.6436170  43.9451470  85.8621350  21.3347990
  56.2762360  83.2456640  18.9493140  57.0381270  83.8153290  19.0552830
  56.2916730  82.6783840  19.7201450  39.7766700  81.7694570  23.1800800
  39.1215540  81.5006210  22.5360500  40.6144650  81.6599050  22.7302780
  57.2822330  84.1006740  23.7935070  57.6531160  83.3174060  23.3871040
  57.9224260  84.7895840  23.6152370  54.2656090  85.4843320  29.2065390
  53.4515930  85.9140480  29.4691180  54.6730290  86.0961730  28.5934440
  56.3281530  83.5391010  16.1065660  56.6030370  84.4469890  15.9784880
  56.1392270  83.4753540  17.0427650  52.7257140  76.5635860  17.4019290
  53.1442020  76.3766840  16.5615950  52.4193200  75.7114910  17.7122220
  56.2246870  81.4760000  21.0995090  55.8490470  80.7087930  20.6676380
  55.4949990  81.8582700  21.5870020  40.8142630  82.1547140  27.7204140
  41.1815670  82.0674540  28.6000160  40.2453450  81.3913690  27.6211000
  55.6146490  80.6231520  30.7334610  55.3832580  80.3944270  29.8332560
  55.8751040  81.5431070  30.6879500  40.3658630  79.0656230  31.6262560
  39.4714680  79.0322990  31.9656270  40.9056180  79.2643020  32.3913810
  54.0534560  75.8487950  33.5114310  54.9304740  75.8571350  33.8948310
  54.0655400  75.1118790  32.9006660  38.9904780  78.9793500  19.1226130
  38.0868860  79.2423700  18.9477790  39.4745400  79.2504670  18.3426090
  55.4997830  79.7017490  24.4002330  56.0235310  79.2080140  23.7692500
  56.0857250  79.8367850  25.1449900  55.6787550  79.7857360  27.9221880
  54.7290260  79.7520900  28.0366870  55.8600560  80.6957470  27.6871650
  41.5331990  78.0359040  17.0320510  42.2423690  77.6142260  16.5467790
  40.8171930  78.1034270  16.4003860  41.1806150  74.0898370  16.0723160
  41.9034280  74.6307310  16.3904380  41.4530670  73.8161790  15.1964700
  54.9897800  78.9590840  20.3394740  55.4856920  78.7261710  21.1243620
  54.7913870  78.1202680  19.9232380  40.8698340  73.3404560  25.9745780
  41.5174530  72.7901940  25.5340940  41.2900180  73.5947710  26.7961590
  56.4184960  77.5951790  22.8732420  56.3084240  77.4407830  23.8114690
  57.1792550  77.0672730  22.6307830  54.7650680  73.5345920  29.3315420
  55.4022900  74.1480060  29.6974610  54.9125570  73.5706580  28.3864650
  57.3075230  75.4259710  16.1138560  58.2324540  75.2940890  15.9056850
  57.2851020  75.5052530  17.0675010  57.3813720  76.1970370  18.7395270
  56.5865220  76.1315490  19.2688180  57.5857000  77.1321010  18.7280620
  40.6230340  73.4960230  28.7171100  40.2745160  73.9524050  29.4829280
  40.2918040  72.6017360  28.7993530  48.1355160  74.6872110  32.2390520
  48.0744050  75.2793940  32.9885930  49.0755540  74.5798070  32.0940780
  50.7729720  74.3442170  31.8782810  51.3870130  74.6621460  31.2163890
  51.3179280  73.8590760  32.4978670  41.2950980  73.0236430  31.9921870
  41.8433970  72.8424480  31.2287980  41.3606290  72.2330540  32.5278180
  51.5137760  72.9074310  28.2052100  50.6397600  73.2409420  28.0025030
  51.4048510  72.4347490  29.0303970  52.4209740  75.1145180  29.5893820
  52.0923100  74.2996940  29.2095550  53.3692040  75.0714990  29.4659510
  49.2612580  73.8244150  27.1445010  48.4784370  74.2989650  27.4241770
  48.9675510  72.9198980  27.0358190  53.8133650  74.5267250  25.1894100
  54.2541740  74.4712350  24.3415700  53.5441240  75.4425260  25.2604280
  55.6772220  74.1582490  23.2002920  55.6160620  73.2143710  23.0533940
  56.4564250  74.2662580  23.7456380  40.6052990  74.1291630  19.6658730
  41.3632350  74.2420510  19.0922760  40.1430160  74.9660830  19.6202160
  47.1466800  76.2430900  22.6561040  46.3341310  75.8687790  22.3156920
  47.6508440  75.4875980  22.9582230  51.6491780  72.9073350  23.8944110
  52.2521150  73.4793560  24.3692630  50.9084770  73.4712790  23.6718010
  54.7926380  73.3094910  19.1684390  54.9877010  74.2078360  19.4351820
  54.0056250  73.0781990  19.6617340  42.9778140  74.6555680  18.2060700
  43.5070900  73.8685480  18.0768650  43.6106460  75.3346870  18.4396230
  45.1715980  74.3930820  21.2606090  44.5418720  73.6918130  21.4276220
  44.6321120  75.1534950  21.0439250  45.2971540  73.6714800  33.6958580
  45.0155810  74.1748400  32.9319400  45.6791240  72.8736550  33.3300710
  51.8987000  73.0868380  34.2739050  51.7852450  73.4062990  35.1690570
  52.7156740  73.4880890  33.9776330  50.8045150  81.1060850   4.6373790
  50.7239200  80.1915460   4.3665500  50.3909570  81.6027920   3.9313500
  48.9363190  82.8839870   6.5183060  48.1605290  82.4040310   6.8081630
  49.5876120  82.2045520   6.3439220  42.9529020  83.1959680   7.3958820
  42.1213900  82.9408390   7.7955330  43.5610000  83.2670450   8.1316740
  39.3253980  80.7567220   7.0640910  39.8970090  79.9889420   7.0644550
  39.3255520  81.0555980   6.1547520  48.3772180  85.5597060   6.5253220
  48.3080460  84.6187000   6.3642350  49.1392040  85.6498470   7.0975790
  40.5678850  76.1651580   8.8509840  40.3881690  75.2677330   9.1312600
  40.1658930  76.7123450   9.5256790  49.4077350  78.3667440   6.7522150
  49.7842170  77.4939320   6.6395820  49.3096860  78.7026140   5.8612590
  43.5382360  76.7393070   2.2139590  43.6449110  77.6396800   2.5208350
  42.6274720  76.6911040   1.9234240  53.1901470  75.8617880   3.6850490
  54.0111090  75.3714450   3.7275970  53.2235550  76.4515540   4.4382330
  41.1865520  78.6612080   7.4592180  41.8675630  78.9250450   8.0779580
  40.8713570  77.8212950   7.7930190  45.3790090  79.7079440   6.5464770
  45.8868310  80.2060410   7.1869790  45.9103330  78.9314640   6.3704130
  57.4801020  77.8784630  10.2494120  56.7753190  78.2666340   9.7309230
  57.7458940  78.5734920  10.8515050  43.6626190  74.3478000  10.8128190
  43.6644630  74.8650390  10.0074090  42.8330500  73.8708180  10.7898120
  50.0497280  84.4597310   2.3118090  49.4314550  84.9246760   1.7480810
  50.5620530  85.1524790   2.7287600  44.9129040  83.9873180   8.9901690
  44.5798420  84.6142100   9.6322760  45.0895720  84.5135060   8.2103360
  53.4262950  77.8018260   6.4578030  52.7218520  78.0903150   7.0381140
  53.7875110  78.6118370   6.0977590  43.3441520  76.0587960   8.8198640
  43.6858330  76.9030010   8.5252510  42.4057330  76.2071700   8.9363980
  44.1248140  85.9553980  10.8050870  44.7422140  86.6305060  10.5235320
  43.2641260  86.3641960  10.7138370  56.4949870  77.2473050   6.8487240
  55.5474780  77.2812030   6.9802670  56.8199860  78.0612000   7.2336600
  47.0269410  73.5470230   5.1443230  47.3344390  72.9917120   4.4278730
  46.0970110  73.6814690   4.9616220  53.8729890  85.9853740   2.5240860
  53.7626220  85.0428070   2.6490280  53.8698140  86.3469380   3.4103620
  51.9769910  84.1667360   8.7633300  52.3938700  83.9527470   7.9286760
  52.7009730  84.4240150   9.3341920  49.4150170  81.6119060   1.8803350
  48.4879450  81.5456440   2.1091820  49.5674990  82.5499190   1.7658590
  55.9232010  82.5654580   8.8549540  55.0950640  82.6347670   8.3799670
  56.5182490  83.1508890   8.3865370  53.4447460  83.1739360   2.3838600
  52.8259880  82.8358910   1.7364900  53.4271910  82.5299120   3.0917790
  52.8874020  79.3523900   9.8004410  52.4745200  80.1777610  10.0544400
  52.1549970  78.7668940   9.6080770  45.0206810  82.1383800   4.6623080
  44.6163810  81.4261050   4.1668980  45.1069930  81.7937040   5.5511120
  45.4888510  85.8251360   6.8262290  45.1916800  85.2196830   6.1470070
  46.4388330  85.8628670   6.7151650  43.7335430  78.9127010   8.4422120
  44.2850020  79.0222350   7.6675370  44.2478940  79.2864610   9.1577350
  44.5806940  85.5633050  13.4770090  43.6835470  85.7873020  13.7243490
  44.6059810  85.6867990  12.5281490  43.4078160  82.4346370  12.0527460
  43.2685930  83.3069170  12.4214860  42.5259520  82.0919180  11.9075400
  39.3596810  84.2043920   7.9698370  39.4377230  84.3392690   7.0254090
  39.9738490  83.4959810   8.1626490  40.6044440  85.9044110   4.3804550
  40.1972520  86.0458700   3.5258150  41.4957450  85.6204270   4.1775760
  56.5606580  86.3508020  12.7176790  56.6869640  86.1119900  11.7993970
  56.6027960  85.5192560  13.1898870  56.4130590  78.4040480  13.6826530
  55.7974860  78.9120150  13.1541990  56.0927010  77.5038810  13.6252470
  39.4156330  85.2458090  10.5092830  39.5787370  84.7763450   9.6912200
  39.8808780  84.7381650  11.1741670  44.1875100  74.3763850   5.5453400
  43.7443250  75.1573390   5.2137920  44.7460090  74.6993740   6.2524340
  48.4744910  77.2432370  11.1488720  48.0124280  77.4515390  11.9608660
  48.0723020  76.4291720  10.8459390  53.4749420  78.4641320  12.2785380
  52.6243010  78.1647070  12.5994450  53.3151210  78.7083330  11.3669200
  50.5699130  79.9643070  14.3784170  50.8952540  79.1306820  14.0386400
  51.3579460  80.4871590  14.5262500  46.2251000  74.9211180   7.4043000
  46.5223330  75.8274010   7.3235020  46.7736560  74.4329960   6.7902570
  43.9789320  79.4997420   3.2734650  43.7530240  79.2834590   4.1781270
  43.1981850  79.9325880   2.9280620  46.4188530  80.3983000  13.9394920
  46.3232130  79.4577730  13.7895320  47.2620510  80.6198070  13.5442990
  49.8151950  78.1424330   3.9028580  50.2081520  78.4596530   3.0897270
  50.1768800  77.2636210   4.0173100  41.5499070  76.8096670  12.0928700
  41.1562460  77.6571880  12.3001480  40.8617470  76.1723040  12.2837340
  48.1244120  76.8931640  15.1625440  47.4342440  76.7003840  15.7971530
  48.8676420  77.1766280  15.6949740  38.8516120  74.7325130   6.1258780
  38.5629170  75.3027990   6.8383760  39.5961880  74.2529580   6.4890010
  50.4007090  80.7330080   7.9979360  49.6688210  81.2416890   8.3469460
  50.0031430  79.9160060   7.6968140  46.8384480  77.4084280   6.4031850
  46.8420540  76.9674230   5.5536390  47.7335600  77.7301610   6.5103670
  42.6886860  77.2910770   5.3626060  42.3486910  77.7686000   6.1193110
  41.9264180  76.8375890   5.0027160  50.8633000  76.1863760   7.4102300
  50.8805740  76.6372410   8.2544150  50.6148580  75.2869400   7.6235740
  54.2903750  73.5995940  13.2488680  54.6149520  72.8685600  13.7746660
  54.3260260  73.2809580  12.3469670  40.9895310  84.6209520  12.6688640
  40.6050100  83.9803190  13.2671600  41.3007500  85.3245640  13.2383370
  47.1392450  81.4686060   8.1497260  47.5062580  80.9944630   8.8958600
  46.9497510  82.3427630   8.4905600  40.0032940  76.2129750   4.2790730
  39.7179860  75.8485420   5.1169350  39.9411800  75.4810210   3.6653870
  44.9291820  80.5094700  10.4681470  44.6248890  81.3886680  10.6931830
  45.8838280  80.5694490  10.5038910  54.2161590  83.7121050   6.8574710
  54.9360710  84.2076340   6.4670820  54.0143410  83.0338940   6.2128580
  49.5980390  83.7830110  12.7443710  49.5317700  82.8625780  12.4901300
  48.9685530  83.8805550  13.4588350  43.5011010  84.3836070   4.7027130
  44.0189680  83.5804330   4.6484020  43.0495030  84.3215210   5.5443960
  40.9855550  81.3497440  11.6152830  40.6270490  82.0151290  12.2026170
  40.6910110  80.5180990  11.9865450  44.1868670  81.8081680  14.4992380
  43.8868810  81.9538860  13.6020200  44.9579910  81.2486970  14.4065770
  49.5297120  86.6050680  12.4947510  49.5441660  85.6731640  12.2766420
  48.8222220  86.6910440  13.1337280  55.7408330  83.2458020  11.8416090
  55.0156520  83.8386800  11.6445480  56.2683790  83.2381560  11.0429460
  51.2707920  84.9718190   5.3399940  51.6231740  84.3746320   4.6801310
  50.3870250  84.6462420   5.5108190  47.3571200  85.7315880   2.7470350
  48.0442330  86.2785090   3.1277940  46.5703620  86.2756610   2.7819960
  46.6598410  82.7361910   2.3595710  47.1161190  83.5467160   2.5855900
  46.3086620  82.4185050   3.1914200  42.5610190  73.0799560   2.8318230
  42.4324820  73.0717460   3.7803150  41.7372210  73.4182650   2.4809240
  50.2363100  86.2500600   8.3065460  50.8785330  85.5493760   8.4197630
  50.7612450  87.0299040   8.1262350  39.5604120  74.8390680  12.2924930
  38.8462640  75.0387600  12.8977540  39.9799160  74.0630250  12.6639730
  51.0542900  77.3312990  10.0426380  51.4223720  76.5108200  10.3705950
  50.1941100  77.3914880  10.4582030  46.3888960  78.5655880   2.2671820
  45.6805110  79.0342220   2.7085430  46.6733440  77.9077890   2.9017010
  48.0144890  79.9852580  10.2664350  48.5130140  80.4598400  10.9316200
  48.1567840  79.0616100  10.4734380  50.4204390  75.2906540   3.7067610
  50.2972170  75.3092670   2.7577120  51.3688950  75.3385480   3.8266010
  55.2211750  76.2020540  11.1092740  54.7185350  76.9425940  11.4486550
  56.0368410  76.5904540  10.7929530  53.5133760  81.4453720   4.5554100
  52.5723900  81.4603950   4.7301790  53.8277830  80.6589680   5.0014400
  50.8299780  86.0019720  15.0386480  50.2237940  86.0251320  14.2982230
  50.5253890  85.2702760  15.5753730  39.7132960  82.3813310  14.0347120
  40.2171980  81.8020590  14.6063350  38.9740380  82.6653540  14.5723490
  46.7670900  83.7884300  13.5682640  46.0016570  84.3569300  13.4837310
  46.9486860  83.4960510  12.6750870  53.9094250  85.5189630  14.1257660
  54.6503720  85.8565390  13.6225120  53.1466930  85.6881690  13.5727430
  41.7456040  80.5242900  14.9297190  41.7861380  80.2256770  15.8382420
  42.6001540  80.9250510  14.7704710  43.6861850  79.1035000  12.8971680
  43.1558310  78.6125950  12.2695020  44.3549920  79.5319200  12.3629610
  52.5839910  83.5704460  12.6612870  52.9980930  83.7249540  13.5103290
  51.6490910  83.6959680  12.8238650  53.0562080  80.9100620  14.6652020
  53.6382850  80.1552940  14.5772500  53.2323850  81.4408060  13.8883500
  44.1734150  76.0697370  12.9768970  44.0791020  75.4518120  12.2519840
  43.5931540  76.7963660  12.7498880  46.9395590  74.6270610  10.0096360
  46.4912890  74.6494870   9.1641910  46.3060790  74.2289630  10.6066660
  47.3455140  83.5224940  10.6308800  47.7643250  84.3657670  10.4585040
  46.4263770  83.6596980  10.4015580  49.6819040  81.2541120  12.0146640
  49.8015250  80.6582260  12.7541480  50.5413040  81.2910810  11.5947940
  52.0206940  81.8078310  10.5909150  51.4942160  82.3320930   9.9874290
  52.3638280  82.4405700  11.2218880  46.4487810  77.7962470  13.2722460
  47.0387500  77.4878320  13.9600280  45.6308050  77.3242220  13.4282360
  51.2681240  77.4128280  13.5055480  50.5796760  76.7509820  13.4405470
  51.9887260  76.9666550  13.9503940  44.0513980  86.7212760   2.9688770
  43.7509520  86.5977730   3.8692680  43.9451470  85.8621350   2.5604500
  39.7766700  81.7694570   4.4057310  39.1215540  81.5006210   3.7617010
  40.6144650  81.6599050   3.9559290  57.2822330  84.1006740   5.0191580
  57.6531160  83.3174060   4.6127550  57.9224260  84.7895840   4.8408880
  54.2656090  85.4843320  10.4321900  53.4515930  85.9140480  10.6947690
  54.6730290  86.0961730   9.8190950  56.2246870  81.4760000   2.3251600
  55.8490470  80.7087930   1.8932890  55.4949990  81.8582700   2.8126530
  40.8142630  82.1547140   8.9460650  41.1815670  82.0674540   9.8256670
  40.2453450  81.3913690   8.8467510  55.6146490  80.6231520  11.9591120
  55.3832580  80.3944270  11.0589070  55.8751040  81.5431070  11.9136010
  40.3658630  79.0656230  12.8519070  39.4714680  79.0322990  13.1912780
  40.9056180  79.2643020  13.6170320  54.0534560  75.8487950  14.7370820
  54.9304740  75.8571350  15.1204820  54.0655400  75.1118790  14.1263170
  55.4997830  79.7017490   5.6258840  56.0235310  79.2080140   4.9949010
  56.0857250  79.8367850   6.3706410  55.6787550  79.7857360   9.1478390
  54.7290260  79.7520900   9.2623380  55.8600560  80.6957470   8.9128160
  40.8698340  73.3404560   7.2002290  41.5174530  72.7901940   6.7597450
  41.2900180  73.5947710   8.0218100  56.4184960  77.5951790   4.0988930
  56.3084240  77.4407830   5.0371200  57.1792550  77.0672730   3.8564340
  54.7650680  73.5345920  10.5571930  55.4022900  74.1480060  10.9231120
  54.9125570  73.5706580   9.6121160  40.6230340  73.4960230   9.9427610
  40.2745160  73.9524050  10.7085790  40.2918040  72.6017360  10.0250040
  48.1355160  74.6872110  13.4647030  48.0744050  75.2793940  14.2142440
  49.0755540  74.5798070  13.3197290  50.7729720  74.3442170  13.1039320
  51.3870130  74.6621460  12.4420400  51.3179280  73.8590760  13.7235180
  41.2950980  73.0236430  13.2178380  41.8433970  72.8424480  12.4544490
  41.3606290  72.2330540  13.7534690  51.5137760  72.9074310   9.4308610
  50.6397600  73.2409420   9.2281540  51.4048510  72.4347490  10.2560480
  52.4209740  75.1145180  10.8150330  52.0923100  74.2996940  10.4352060
  53.3692040  75.0714990  10.6916020  49.2612580  73.8244150   8.3701520
  48.4784370  74.2989650   8.6498280  48.9675510  72.9198980   8.2614700
  53.8133650  74.5267250   6.4150610  54.2541740  74.4712350   5.5672210
  53.5441240  75.4425260   6.4860790  55.6772220  74.1582490   4.4259430
  55.6160620  73.2143710   4.2790450  56.4564250  74.2662580   4.9712890
  47.1466800  76.2430900   3.8817550  46.3341310  75.8687790   3.5413430
  47.6508440  75.4875980   4.1838740  51.6491780  72.9073350   5.1200620
  52.2521150  73.4793560   5.5949140  50.9084770  73.4712790   4.8974520
  45.1715980  74.3930820   2.4862600  44.5418720  73.6918130   2.6532730
  44.6321120  75.1534950   2.2695760  45.2971540  73.6714800  14.9215090
  45.0155810  74.1748400  14.1575910  45.6791240  72.8736550  14.5557220
  51.8987000  73.0868380  15.4995560  51.7852450  73.4062990  16.3947080
  52.7156740  73.4880890  15.2032840  50.8045150  62.3317360  79.7347750
  50.7239200  61.4171970  79.4639460  50.3909570  62.8284430  79.0287460
  48.9363190  64.1096380  81.6157020  48.1605290  63.6296820  81.9055590
  49.5876120  63.4302030  81.4413180  42.9529020  64.4216190  82.4932780
  42.1213900  64.1664900  82.8929290  43.5610000  64.4926960  83.2290700
  52.9570620  68.5156570  80.3956150  52.4952150  67.7443810  80.7243320
  53.7696170  68.5422640  80.9008600  42.9330280  68.4556280  82.6890800
  43.2358320  67.5654020  82.5101020  43.6773870  69.0126500  82.4613050
  41.3620970  59.3818080  76.2775170  40.4737670  59.7234050  76.1755050
  41.6462160  59.1818400  75.3856000  39.3253980  61.9823730  82.1614870
  39.8970090  61.2145930  82.1618510  39.3255520  62.2812490  81.2521480
  49.1833930  70.8014580  80.0160140  48.5645370  71.2572080  79.4454580
  50.0385710  70.9566040  79.6149840  48.3772180  66.7853570  81.6227180
  48.3080460  65.8443510  81.4616310  49.1392040  66.8754980  82.1949750
  40.5678850  57.3908090  83.9483800  40.3881690  56.4933840  84.2286560
  40.1658930  57.9379960  84.6230750  49.4077350  59.5923950  81.8496110
  49.7842170  58.7195830  81.7369780  49.3096860  59.9282650  80.9586550
  43.5382360  57.9649580  77.3113550  43.6449110  58.8653310  77.6182310
  42.6274720  57.9167550  77.0208200  53.1901470  57.0874390  78.7824450
  54.0111090  56.5970960  78.8249930  53.2235550  57.6772050  79.5356290
  41.1865520  59.8868590  82.5566140  41.8675630  60.1506960  83.1753540
  40.8713570  59.0469460  82.8904150  45.3790090  60.9335950  81.6438730
  45.8868310  61.4316920  82.2843750  45.9103330  60.1571150  81.4678090
  57.4801020  59.1041140  85.3468080  56.7753190  59.4922850  84.8283190
  57.7458940  59.7991430  85.9489010  43.6626190  55.5734510  85.9102150
  43.6644630  56.0906900  85.1048050  42.8330500  55.0964690  85.8872080
  50.0497280  65.6853820  77.4092050  49.4314550  66.1503270  76.8454770
  50.5620530  66.3781300  77.8261560  44.9129040  65.2129690  84.0875650
  44.5798420  65.8398610  84.7296720  45.0895720  65.7391570  83.3077320
  53.4262950  59.0274770  81.5551990  52.7218520  59.3159660  82.1355100
  53.7875110  59.8374880  81.1951550  43.3441520  57.2844470  83.9172600
  43.6858330  58.1286520  83.6226470  42.4057330  57.4328210  84.0337940
  44.1248140  67.1810490  85.9024830  44.7422140  67.8561570  85.6209280
  43.2641260  67.5898470  85.8112330  39.4180480  66.3710350  74.7831680
  39.0408460  66.8597450  74.0516580  39.6753550  67.0435630  75.4138210
  55.0425730  68.6449900  83.8179470  54.3589250  69.3149010  83.8096140
  55.5820020  68.8430550  83.0524330  56.4949870  58.4729560  81.9461200
  55.5474780  58.5068540  82.0776630  56.8199860  59.2868510  82.3310560
  47.0269410  54.7726740  80.2417190  47.3344390  54.2173630  79.5252690
  46.0970110  54.9071200  80.0590180  52.5784470  70.4894030  82.5324650
  52.5911630  70.0856320  81.6646910  52.0259690  71.2641320  82.4286080
  53.8729890  67.2110250  77.6214820  53.7626220  66.2684580  77.7464240
  53.8698140  67.5725890  78.5077580  51.9769910  65.3923870  83.8607260
  52.3938700  65.1783980  83.0260720  52.7009730  65.6496660  84.4315880
  49.4150170  62.8375570  76.9777310  48.4879450  62.7712950  77.2065780
  49.5674990  63.7755700  76.8632550  49.4019250  59.1092570  73.9744470
  48.4622920  59.2706530  74.0596930  49.7202510  59.8278250  73.4280460
  55.9232010  63.7911090  83.9523500  55.0950640  63.8604180  83.4773630
  56.5182490  64.3765400  83.4839330  53.4447460  64.3995870  77.4812560
  52.8259880  64.0615420  76.8338860  53.4271910  63.7555630  78.1891750
  52.8874020  60.5780410  84.8978370  52.4745200  61.4034120  85.1518360
  52.1549970  59.9925450  84.7054730  45.0206810  63.3640310  79.7597040
  44.6163810  62.6517560  79.2642940  45.1069930  63.0193550  80.6485080
  45.4888510  67.0507870  81.9236250  45.1916800  66.4453340  81.2444030
  46.4388330  67.0885180  81.8125610  43.7335430  60.1383520  83.5396080
  44.2850020  60.2478860  82.7649330  44.2478940  60.5121120  84.2551310
  53.5774120  70.6239740  85.5859350  53.1004680  71.4311930  85.3931960
  52.8935910  69.9718070  85.7385560  51.6212160  63.6382680  74.4885310
  52.0605440  62.8005110  74.3423130  52.3340580  64.2712080  74.5749450
  49.7307540  68.5778750  78.4566550  50.1703450  69.3203080  78.0421940
  49.6694430  68.8205320  79.3805510  55.2029300  54.8925490  72.8026350
  54.8901960  54.9852320  73.7025420  55.9641770  55.4706520  72.7523780
  41.7211440  62.2585290  77.2603690  41.6009040  62.9847380  76.6484960
  41.4112330  61.4888200  76.7831600  39.3596810  65.4300430  83.0672330
  39.4377230  65.5649200  82.1228050  39.9738490  64.7216320  83.2600450
  40.6044440  67.1300620  79.4778510  40.1972520  67.2715210  78.6232110
  41.4957450  66.8460780  79.2749720  52.3977720  71.5647870  75.8129560
  52.2378860  71.2750810  76.7111390  52.2324430  70.7888000  75.2774790
  44.8766100  71.3446400  77.5901180  44.7008580  70.4281940  77.3768980
  44.0221840  71.7033690  77.8298980  52.1003850  69.0735430  74.3727560
  51.4069010  69.0712720  73.7129840  52.8426710  68.6494750  73.9421730
  51.6653780  70.6998140  78.4476050  52.1210730  69.9187520  78.7614670
  52.0046300  71.4104960  78.9917230  44.1875100  55.6020360  80.6427360
  43.7443250  56.3829900  80.3111880  44.7460090  55.9250250  81.3498300
  47.3033920  55.2231060  75.5233190  46.6788100  55.2190930  76.2486500
  47.2164040  54.3562020  75.1269160  46.2251000  56.1467690  82.5016960
  46.5223330  57.0530520  82.4208980  46.7736560  55.6586470  81.8876530
  43.9789320  60.7253930  78.3708610  43.7530240  60.5091100  79.2755230
  43.1981850  61.1582390  78.0254580  51.2087080  60.7317300  76.9699260
  50.6095970  61.4553100  76.7862880  51.7566690  60.6694080  76.1875710
  49.8151950  59.3680840  79.0002540  50.2081520  59.6853040  78.1871230
  50.1768800  58.4892720  79.1147060  38.8516120  55.9581640  81.2232740
  38.5629170  56.5284500  81.9357720  39.5961880  55.4786090  81.5863970
  39.0386350  59.9001760  72.4335460  38.9561020  60.8432520  72.5750450
  38.6869410  59.7576670  71.5547810  50.4007090  61.9586590  83.0953320
  49.6688210  62.4673400  83.4443420  50.0031430  61.1416570  82.7942100
  46.8384480  58.6340790  81.5005810  46.8420540  58.1930740  80.6510350
  47.7335600  58.9558120  81.6077630  42.6886860  58.5167280  80.4600020
  42.3486910  58.9942510  81.2167070  41.9264180  58.0632400  80.1001120
  46.9004630  59.6352870  74.4912570  47.0217450  59.5939350  75.4398390
  46.5153140  60.4977020  74.3359300  50.8633000  57.4120270  82.5076260
  50.8805740  57.8628920  83.3518110  50.6148580  56.5125910  82.7209700
  45.9126130  61.9454010  73.8895870  45.3443030  61.4972260  73.2631780
  46.6215130  62.3046790  73.3561020  47.1392450  62.6942570  83.2471220
  47.5062580  62.2201140  83.9932560  46.9497510  63.5684140  83.5879560
  40.0032940  57.4386260  79.3764690  39.7179860  57.0741930  80.2143310
  39.9411800  56.7066720  78.7627830  44.9291820  61.7351210  85.5655430
  44.6248890  62.6143190  85.7905790  45.8838280  61.7951000  85.6012870
  43.4573610  65.9412200  76.1622280  42.6835870  65.4009820  76.0021000
  44.1868240  65.4218810  75.8240040  54.2161590  64.9377560  81.9548670
  54.9360710  65.4332850  81.5644780  54.0143410  64.2595450  81.3102540
  49.6771530  56.3315520  76.0978060  48.8636140  55.8328690  76.0223370
  49.4833480  57.1713770  75.6814410  52.3919920  60.7035170  74.3940220
  53.2799540  61.0152400  74.2191560  52.3625010  59.8307420  74.0020800
  43.5011010  65.6092580  79.8001090  44.0189680  64.8060840  79.7457980
  43.0495030  65.5471720  80.6417920  48.3880510  66.8758860  75.0728390
  48.7296210  67.6201090  74.5771710  47.5593220  67.1889980  75.4353220
  54.6634190  62.0147010  73.8620080  54.5797910  62.4461230  73.0116520
  55.3828380  62.4745360  74.2946900  55.6921440  68.8689270  76.5902210
  55.0497600  68.2144890  76.8645930  55.3052100  69.2744360  75.8142880
  51.2707920  66.1974700  80.4373900  51.6231740  65.6002830  79.7775270
  50.3870250  65.8718930  80.6082150  47.3571200  66.9572390  77.8444310
  48.0442330  67.5041600  78.2251900  46.5703620  67.5013120  77.8793920
  39.4963600  62.5745210  73.3361390  40.3658450  62.8570010  73.6197310
  39.0053920  63.3881080  73.2210200  46.6598410  63.9618420  77.4569670
  47.1161190  64.7723670  77.6829860  46.3086620  63.6441560  78.2888160
  48.9631020  69.4724760  84.6861970  49.6073240  69.6784140  85.3635390
  49.3260460  68.7113160  84.2332820  42.5610190  54.3056070  77.9292190
  42.4324820  54.2973970  78.8777110  41.7372210  54.6439160  77.5783200
  50.2363100  67.4757110  83.4039420  50.8785330  66.7750270  83.5171590
  50.7612450  68.2555550  83.2236310  54.0818820  67.7605730  73.1278560
  53.8556400  67.0436170  73.7203200  53.6915020  67.5118170  72.2900310
  39.8634850  71.7872590  73.9023020  40.2232490  72.3861930  73.2480290
  39.7227190  72.3332480  74.6758050  53.6635070  65.6777670  74.7892720
  53.3756770  66.1390360  75.5770600  54.4587240  65.2175440  75.0576940
  45.8803470  69.1703790  74.7196690  45.8713570  69.9033480  74.1041200
  44.9601830  68.9235370  74.8123650  41.4810110  64.3918680  75.4643450
  40.8738060  65.1317580  75.4738750  41.9559460  64.4818040  74.6381650
  51.0542900  58.5569500  85.1400340  51.4223720  57.7364710  85.4679910
  50.1941100  58.6171390  85.5555990  54.4204930  57.5126440  75.9487900
  53.7918090  57.6172110  75.2346130  53.9256850  57.7323220  76.7381780
  48.8663070  69.2332030  73.3821880  48.9675050  69.0296020  72.4523860
  47.9664810  68.9790310  73.5869660  46.3888960  59.7912390  77.3645780
  45.6805110  60.2598730  77.8059390  46.6733440  59.1334400  77.9990970
  50.4204390  56.5163050  78.8041570  50.2972170  56.5349180  77.8551080
  51.3688950  56.5641990  78.9239970  47.5081180  71.7518350  78.0769550
  47.7622680  71.7139740  77.1548920  46.5593660  71.6251680  78.0697800
  44.5923980  58.0997470  74.7396490  45.4414510  58.5367620  74.6736680
  44.2255250  58.4117730  75.5668550  53.5133760  62.6710230  79.6528060
  52.5723900  62.6860460  79.8275750  53.8277830  61.8846190  80.0988360
  43.4915400  64.3529830  73.2132020  44.2578670  64.2411190  73.7757450
  43.5690090  63.6567800  72.5608790  42.1862160  61.7854900  73.8964910
  42.2665750  60.8382410  74.0082310  43.0781910  62.1161780  74.0025570
  55.5159340  69.8419080  81.3282320  55.6406760  70.6650250  81.8006130
  56.3824900  69.6309810  80.9806470  42.9876870  71.9350290  80.9999450
  43.7239350  71.3865750  81.2708020  43.3717790  72.8006300  80.8605440
  39.8722350  68.0023860  76.8740960  38.9462130  68.2445000  76.8646370
  40.3378780  68.8298120  76.7525710  46.0979180  71.1080600  72.8225020
  46.8907790  71.3969430  72.3706810  45.5783530  70.6772770  72.1437500
  55.1509350  70.3350730  74.2461760  54.8650860  69.9215870  73.4315940
  54.9528900  71.2638440  74.1262280  46.6156580  66.3284010  72.6867370
  46.5107220  65.7136360  73.4128750  46.4480800  65.8049900  71.9030380
  49.8559310  65.3904040  73.2909360  49.3069410  65.8373340  73.9352100
  50.4778570  64.8853290  73.8147030  45.5234430  64.3494960  75.1874660
  45.9450850  64.1834830  76.0306050  45.6485270  63.5395190  74.6929800
  48.0362070  63.3732570  72.4351760  48.5567730  62.6581590  72.0692910
  48.6830470  64.0118440  72.7352270  46.9395590  55.8527120  85.1070320
  46.4912890  55.8751380  84.2615870  46.3060790  55.4546140  85.7040620
  47.3455140  64.7481450  85.7282760  47.7643250  65.5914180  85.5559000
  46.4263770  64.8853490  85.4989540  44.4193330  60.4228190  72.1332820
  44.2182390  59.5595550  72.4946160  44.2485380  60.3361550  71.1954420
  51.8981640  55.2336420  74.6619700  52.1783930  54.3904320  75.0179120
  51.1247370  55.4659530  75.1758450  43.2176130  57.5228810  72.1210700
  43.5202030  57.5296240  71.2129850  43.9570720  57.1726670  72.6178360
  46.4361060  56.4663430  73.1066900  46.0883060  55.7887420  72.5269350
  46.6373830  56.0052940  73.9210290  48.6010100  71.4544180  74.7253500
  49.4960890  71.7929150  74.7472260  48.6327730  70.7323590  74.0977780
  42.2406260  66.8271230  72.9540500  42.6781130  67.3700900  73.6098080
  42.7253990  66.0018180  72.9636840  39.4552060  69.6160260  80.4060760
  39.7855070  68.7481320  80.1739400  39.8843060  69.8218780  81.2365720
  44.0513980  67.9469270  78.0662730  43.7509520  67.8234240  78.9666640
  43.9451470  67.0877860  77.6578460  39.9442270  70.4830850  83.1442390
  39.5073260  70.6631650  83.9766540  40.5119950  71.2405470  83.0024110
  56.8205900  67.7265670  72.7689410  55.9898860  67.7942320  73.2396640
  56.9977730  68.6169790  72.4656270  56.2762360  64.4713150  75.2723610
  57.0381270  65.0409800  75.3783300  56.2916730  63.9040350  76.0431920
  39.7766700  62.9951080  79.5031270  39.1215540  62.7262720  78.8590970
  40.6144650  62.8855560  79.0533250  57.2822330  65.3263250  80.1165540
  57.6531160  64.5430570  79.7101510  57.9224260  66.0152350  79.9382840
  54.2656090  66.7099830  85.5295860  53.4515930  67.1396990  85.7921650
  54.6730290  67.3218240  84.9164910  56.3281530  64.7647520  72.4296130
  56.6030370  65.6726400  72.3015350  56.1392270  64.7010050  73.3658120
  52.7257140  57.7892370  73.7249760  53.1442020  57.6023350  72.8846420
  52.4193200  56.9371420  74.0352690  56.2246870  62.7016510  77.4225560
  55.8490470  61.9344440  76.9906850  55.4949990  63.0839210  77.9100490
  40.8142630  63.3803650  84.0434610  41.1815670  63.2931050  84.9230630
  40.2453450  62.6170200  83.9441470  38.9904780  60.2050010  75.4456600
  38.0868860  60.4680210  75.2708260  39.4745400  60.4761180  74.6656560
  55.4997830  60.9274000  80.7232800  56.0235310  60.4336650  80.0922970
  56.0857250  61.0624360  81.4680370  55.6787550  61.0113870  84.2452350
  54.7290260  60.9777410  84.3597340  55.8600560  61.9213980  84.0102120
  41.5331990  59.2615550  73.3550980  42.2423690  58.8398770  72.8698260
  40.8171930  59.3290780  72.7234330  41.1806150  55.3154880  72.3953630
  41.9034280  55.8563820  72.7134850  41.4530670  55.0418300  71.5195170
  54.9897800  60.1847350  76.6625210  55.4856920  59.9518220  77.4474090
  54.7913870  59.3459190  76.2462850  40.8698340  54.5661070  82.2976250
  41.5174530  54.0158450  81.8571410  41.2900180  54.8204220  83.1192060
  56.4184960  58.8208300  79.1962890  56.3084240  58.6664340  80.1345160
  57.1792550  58.2929240  78.9538300  57.3075230  56.6516220  72.4369030
  58.2324540  56.5197400  72.2287320  57.2851020  56.7309040  73.3905480
  57.3813720  57.4226880  75.0625740  56.5865220  57.3572000  75.5918650
  57.5857000  58.3577520  75.0511090  54.3232140  71.4618430  79.0564130
  54.9191210  71.1403000  78.3798550  54.5810290  70.9890250  79.8477400
  40.6230340  54.7216740  85.0401570  40.2745160  55.1780560  85.8059750
  40.2918040  53.8273870  85.1224000  45.9300740  69.4495930  84.8064480
  45.6892100  69.7170490  83.9195000  46.8703380  69.6201660  84.8615340
  51.5137760  54.1330820  84.5282570  50.6397600  54.4665930  84.3255500
  51.4048510  53.6604000  85.3534440  52.4209740  56.3401690  85.9124290
  52.0923100  55.5253450  85.5326020  53.3692040  56.2971500  85.7889980
  54.8744350  72.1113730  82.8861860  54.4147320  72.8629540  82.5119880
  54.2456810  71.3920200  82.8276660  41.6994970  68.2056970  85.2760580
  40.9729030  67.5862260  85.2086530  41.7604120  68.5997580  84.4058660
  45.3040070  70.4201970  82.0609990  45.8205090  69.8089330  81.5358250
  45.9537450  70.9230750  82.5521000  48.0435570  71.3110460  82.8878970
  48.3313380  71.0564760  82.0111980  48.5558790  70.7587820  83.4784540
  49.2612580  55.0500660  83.4675480  48.4784370  55.5246160  83.7472240
  48.9675510  54.1455490  83.3588660  53.8133650  55.7523760  81.5124570
  54.2541740  55.6968860  80.6646170  53.5441240  56.6681770  81.5834750
  55.6772220  55.3839000  79.5233390  55.6160620  54.4400220  79.3764410
  56.4564250  55.4919090  80.0686850  39.9824970  71.5231360  78.4857340
  39.8147010  70.8902040  79.1839230  39.1159480  71.7290760  78.1351530
  40.6052990  55.3548140  75.9889200  41.3632350  55.4677020  75.4153230
  40.1430160  56.1917340  75.9432630  47.1466800  57.4687410  78.9791510
  46.3341310  57.0944300  78.6387390  47.6508440  56.7132490  79.2812700
  51.6491780  54.1329860  80.2174580  52.2521150  54.7050070  80.6923100
  50.9084770  54.6969300  79.9948480  54.7926380  54.5351420  75.4914860
  54.9877010  55.4334870  75.7582290  54.0056250  54.3038500  75.9847810
  41.5887670  70.2164590  75.9307480  41.0635290  70.5972620  75.2269440
  41.5132250  70.8415360  76.6517190  42.9778140  55.8812190  74.5291170
  43.5070900  55.0941990  74.3999120  43.6106460  56.5603380  74.7626700
  45.1715980  55.6187330  77.5836560  44.5418720  54.9174640  77.7506690
  44.6321120  56.3791460  77.3669720  56.3452990  71.7752130  77.2521420
  56.5205180  71.0889870  76.6082340  55.6474560  72.2999180  76.8598090
  44.1880640  72.1646970  74.8056730  44.9199460  71.8806250  74.2580620
  44.4474310  71.9260250  75.6956110  43.3495430  68.2811700  74.8103060
  42.7204310  68.7496800  75.3588890  43.4643260  67.4360920  75.2449250
  50.8045150  62.3317360  60.9604260  50.7239200  61.4171970  60.6895970
  50.3909570  62.8284430  60.2543970  48.9363190  64.1096380  62.8413530
  48.1605290  63.6296820  63.1312100  49.5876120  63.4302030  62.6669690
  42.9529020  64.4216190  63.7189290  42.1213900  64.1664900  64.1185800
  43.5610000  64.4926960  64.4547210  52.9570620  68.5156570  61.6212660
  52.4952150  67.7443810  61.9499830  53.7696170  68.5422640  62.1265110
  42.9330280  68.4556280  63.9147310  43.2358320  67.5654020  63.7357530
  43.6773870  69.0126500  63.6869560  41.3620970  59.3818080  57.5031680
  40.4737670  59.7234050  57.4011560  41.6462160  59.1818400  56.6112510
  39.3253980  61.9823730  63.3871380  39.8970090  61.2145930  63.3875020
  39.3255520  62.2812490  62.4777990  49.1833930  70.8014580  61.2416650
  48.5645370  71.2572080  60.6711090  50.0385710  70.9566040  60.8406350
  48.3772180  66.7853570  62.8483690  48.3080460  65.8443510  62.6872820
  49.1392040  66.8754980  63.4206260  40.5678850  57.3908090  65.1740310
  40.3881690  56.4933840  65.4543070  40.1658930  57.9379960  65.8487260
  49.4077350  59.5923950  63.0752620  49.7842170  58.7195830  62.9626290
  49.3096860  59.9282650  62.1843060  43.5382360  57.9649580  58.5370060
  43.6449110  58.8653310  58.8438820  42.6274720  57.9167550  58.2464710
  53.1901470  57.0874390  60.0080960  54.0111090  56.5970960  60.0506440
  53.2235550  57.6772050  60.7612800  41.1865520  59.8868590  63.7822650
  41.8675630  60.1506960  64.4010050  40.8713570  59.0469460  64.1160660
  45.3790090  60.9335950  62.8695240  45.8868310  61.4316920  63.5100260
  45.9103330  60.1571150  62.6934600  57.4801020  59.1041140  66.5724590
  56.7753190  59.4922850  66.0539700  57.7458940  59.7991430  67.1745520
  43.6626190  55.5734510  67.1358660  43.6644630  56.0906900  66.3304560
  42.8330500  55.0964690  67.1128590  50.0497280  65.6853820  58.6348560
  49.4314550  66.1503270  58.0711280  50.5620530  66.3781300  59.0518070
  44.9129040  65.2129690  65.3132160  44.5798420  65.8398610  65.9553230
  45.0895720  65.7391570  64.5333830  53.4262950  59.0274770  62.7808500
  52.7218520  59.3159660  63.3611610  53.7875110  59.8374880  62.4208060
  43.3441520  57.2844470  65.1429110  43.6858330  58.1286520  64.8482980
  42.4057330  57.4328210  65.2594450  44.1248140  67.1810490  67.1281340
  44.7422140  67.8561570  66.8465790  43.2641260  67.5898470  67.0368840
  39.4180480  66.3710350  56.0088190  39.0408460  66.8597450  55.2773090
  39.6753550  67.0435630  56.6394720  55.0425730  68.6449900  65.0435980
  54.3589250  69.3149010  65.0352650  55.5820020  68.8430550  64.2780840
  56.4949870  58.4729560  63.1717710  55.5474780  58.5068540  63.3033140
  56.8199860  59.2868510  63.5567070  47.0269410  54.7726740  61.4673700
  47.3344390  54.2173630  60.7509200  46.0970110  54.9071200  61.2846690
  52.5784470  70.4894030  63.7581160  52.5911630  70.0856320  62.8903420
  52.0259690  71.2641320  63.6542590  53.8729890  67.2110250  58.8471330
  53.7626220  66.2684580  58.9720750  53.8698140  67.5725890  59.7334090
  51.9769910  65.3923870  65.0863770  52.3938700  65.1783980  64.2517230
  52.7009730  65.6496660  65.6572390  49.4150170  62.8375570  58.2033820
  48.4879450  62.7712950  58.4322290  49.5674990  63.7755700  58.0889060
  49.4019250  59.1092570  55.2000980  48.4622920  59.2706530  55.2853440
  49.7202510  59.8278250  54.6536970  55.9232010  63.7911090  65.1780010
  55.0950640  63.8604180  64.7030140  56.5182490  64.3765400  64.7095840
  53.4447460  64.3995870  58.7069070  52.8259880  64.0615420  58.0595370
  53.4271910  63.7555630  59.4148260  52.8874020  60.5780410  66.1234880
  52.4745200  61.4034120  66.3774870  52.1549970  59.9925450  65.9311240
  45.0206810  63.3640310  60.9853550  44.6163810  62.6517560  60.4899450
  45.1069930  63.0193550  61.8741590  45.4888510  67.0507870  63.1492760
  45.1916800  66.4453340  62.4700540  46.4388330  67.0885180  63.0382120
  43.7335430  60.1383520  64.7652590  44.2850020  60.2478860  63.9905840
  44.2478940  60.5121120  65.4807820  53.5774120  70.6239740  66.8115860
  53.1004680  71.4311930  66.6188470  52.8935910  69.9718070  66.9642070
  44.5806940  66.7889560  69.8000560  43.6835470  67.0129530  70.0473960
  44.6059810  66.9124500  68.8511960  51.6212160  63.6382680  55.7141820
  52.0605440  62.8005110  55.5679640  52.3340580  64.2712080  55.8005960
  43.4078160  63.6602880  68.3757930  43.2685930  64.5325680  68.7445330
  42.5259520  63.3175690  68.2305870  49.7307540  68.5778750  59.6823060
  50.1703450  69.3203080  59.2678450  49.6694430  68.8205320  60.6062020
  45.2058510  69.6024580  70.5843080  45.1773940  70.0067530  69.7171510
  45.0423480  68.6734940  70.4214680  55.2029300  54.8925490  54.0282860
  54.8901960  54.9852320  54.9281930  55.9641770  55.4706520  53.9780290
  41.7211440  62.2585290  58.4860200  41.6009040  62.9847380  57.8741470
  41.4112330  61.4888200  58.0088110  57.1573330  70.3851680  71.8807250
  57.6333050  70.8634570  72.5596330  57.7780490  70.3169170  71.1552750
  39.3596810  65.4300430  64.2928840  39.4377230  65.5649200  63.3484560
  39.9738490  64.7216320  64.4856960  40.6044440  67.1300620  60.7035020
  40.1972520  67.2715210  59.8488620  41.4957450  66.8460780  60.5006230
  56.5606580  67.5764530  69.0407260  56.6869640  67.3376410  68.1224440
  56.6027960  66.7449070  69.5129340  50.4223320  71.2792530  67.6102070
  50.9367990  71.1900540  68.4124500  49.5792400  71.6252230  67.9029980
  52.3977720  71.5647870  57.0386070  52.2378860  71.2750810  57.9367900
  52.2324430  70.7888000  56.5031300  44.8766100  71.3446400  58.8157690
  44.7008580  70.4281940  58.6025490  44.0221840  71.7033690  59.0555490
  52.1003850  69.0735430  55.5984070  51.4069010  69.0712720  54.9386350
  52.8426710  68.6494750  55.1678240  51.6653780  70.6998140  59.6732560
  52.1210730  69.9187520  59.9871180  52.0046300  71.4104960  60.2173740
  56.4130590  59.6296990  70.0057000  55.7974860  60.1376660  69.4772460
  56.0927010  58.7295320  69.9482940  39.4156330  66.4714600  66.8323300
  39.5787370  66.0019960  66.0142670  39.8808780  65.9638160  67.4972140
  44.1875100  55.6020360  61.8683870  43.7443250  56.3829900  61.5368390
  44.7460090  55.9250250  62.5754810  48.4744910  58.4688880  67.4719190
  48.0124280  58.6771900  68.2839130  48.0723020  57.6548230  67.1689860
  53.4749420  59.6897830  68.6015850  52.6243010  59.3903580  68.9224920
  53.3151210  59.9339840  67.6899670  50.5699130  61.1899580  70.7014640
  50.8952540  60.3563330  70.3616870  51.3579460  61.7128100  70.8492970
  47.3033920  55.2231060  56.7489700  46.6788100  55.2190930  57.4743010
  47.2164040  54.3562020  56.3525670  46.2251000  56.1467690  63.7273470
  46.5223330  57.0530520  63.6465490  46.7736560  55.6586470  63.1133040
  43.9789320  60.7253930  59.5965120  43.7530240  60.5091100  60.5011740
  43.1981850  61.1582390  59.2511090  51.2087080  60.7317300  58.1955770
  50.6095970  61.4553100  58.0119390  51.7566690  60.6694080  57.4132220
  46.4188530  61.6239510  70.2625390  46.3232130  60.6834240  70.1125790
  47.2620510  61.8454580  69.8673460  49.8151950  59.3680840  60.2259050
  50.2081520  59.6853040  59.4127740  50.1768800  58.4892720  60.3403570
  41.5499070  58.0353180  68.4159170  41.1562460  58.8828390  68.6231950
  40.8617470  57.3979550  68.6067810  48.1244120  58.1188150  71.4855910
  47.4342440  57.9260350  72.1202000  48.8676420  58.4022790  72.0180210
  38.8516120  55.9581640  62.4489250  38.5629170  56.5284500  63.1614230
  39.5961880  55.4786090  62.8120480  39.0386350  59.9001760  53.6591970
  38.9561020  60.8432520  53.8006960  38.6869410  59.7576670  52.7804320
  50.4007090  61.9586590  64.3209830  49.6688210  62.4673400  64.6699930
  50.0031430  61.1416570  64.0198610  46.8384480  58.6340790  62.7262320
  46.8420540  58.1930740  61.8766860  47.7335600  58.9558120  62.8334140
  42.6886860  58.5167280  61.6856530  42.3486910  58.9942510  62.4423580
  41.9264180  58.0632400  61.3257630  46.9004630  59.6352870  55.7169080
  47.0217450  59.5939350  56.6654900  46.5153140  60.4977020  55.5615810
  50.8633000  57.4120270  63.7332770  50.8805740  57.8628920  64.5774620
  50.6148580  56.5125910  63.9466210  45.9126130  61.9454010  55.1152380
  45.3443030  61.4972260  54.4888290  46.6215130  62.3046790  54.5817530
  54.2903750  54.8252450  69.5719150  54.6149520  54.0942110  70.0977130
  54.3260260  54.5066090  68.6700140  40.9895310  65.8466030  68.9919110
  40.6050100  65.2059700  69.5902070  41.3007500  66.5502150  69.5613840
  47.1392450  62.6942570  64.4727730  47.5062580  62.2201140  65.2189070
  46.9497510  63.5684140  64.8136070  40.0032940  57.4386260  60.6021200
  39.7179860  57.0741930  61.4399820  39.9411800  56.7066720  59.9884340
  44.9291820  61.7351210  66.7911940  44.6248890  62.6143190  67.0162300
  45.8838280  61.7951000  66.8269380  43.4573610  65.9412200  57.3878790
  42.6835870  65.4009820  57.2277510  44.1868240  65.4218810  57.0496550
  54.2161590  64.9377560  63.1805180  54.9360710  65.4332850  62.7901290
  54.0143410  64.2595450  62.5359050  49.6771530  56.3315520  57.3234570
  48.8636140  55.8328690  57.2479880  49.4833480  57.1713770  56.9070920
  49.5980390  65.0086620  69.0674180  49.5317700  64.0882290  68.8131770
  48.9685530  65.1062060  69.7818820  52.3919920  60.7035170  55.6196730
  53.2799540  61.0152400  55.4448070  52.3625010  59.8307420  55.2277310
  43.5011010  65.6092580  61.0257600  44.0189680  64.8060840  60.9714490
  43.0495030  65.5471720  61.8674430  48.3880510  66.8758860  56.2984900
  48.7296210  67.6201090  55.8028220  47.5593220  67.1889980  56.6609730
  40.9855550  62.5753950  67.9383300  40.6270490  63.2407800  68.5256640
  40.6910110  61.7437500  68.3095920  44.1868670  63.0338190  70.8222850
  43.8868810  63.1795370  69.9250670  44.9579910  62.4743480  70.7296240
  49.5297120  67.8307190  68.8177980  49.5441660  66.8988150  68.5996890
  48.8222220  67.9166950  69.4567750  54.6634190  62.0147010  55.0876590
  54.5797910  62.4461230  54.2373030  55.3828380  62.4745360  55.5203410
  55.7408330  64.4714530  68.1646560  55.0156520  65.0643310  67.9675950
  56.2683790  64.4638070  67.3659930  55.6921440  68.8689270  57.8158720
  55.0497600  68.2144890  58.0902440  55.3052100  69.2744360  57.0399390
  51.2707920  66.1974700  61.6630410  51.6231740  65.6002830  61.0031780
  50.3870250  65.8718930  61.8338660  47.3571200  66.9572390  59.0700820
  48.0442330  67.5041600  59.4508410  46.5703620  67.5013120  59.1050430
  39.4963600  62.5745210  54.5617900  40.3658450  62.8570010  54.8453820
  39.0053920  63.3881080  54.4466710  46.6598410  63.9618420  58.6826180
  47.1161190  64.7723670  58.9086370  46.3086620  63.6441560  59.5144670
  48.9631020  69.4724760  65.9118480  49.6073240  69.6784140  66.5891900
  49.3260460  68.7113160  65.4589330  42.5610190  54.3056070  59.1548700
  42.4324820  54.2973970  60.1033620  41.7372210  54.6439160  58.8039710
  50.2363100  67.4757110  64.6295930  50.8785330  66.7750270  64.7428100
  50.7612450  68.2555550  64.4492820  54.0818820  67.7605730  54.3535070
  53.8556400  67.0436170  54.9459710  53.6915020  67.5118170  53.5156820
  52.0100720  68.2752010  67.8331990  52.3456960  68.8618700  68.5109910
  51.0901060  68.1444720  68.0629780  39.8634850  71.7872590  55.1279530
  40.2232490  72.3861930  54.4736800  39.7227190  72.3332480  55.9014560
  39.5604120  56.0647190  68.6155400  38.8462640  56.2644110  69.2208010
  39.9799160  55.2886760  68.9870200  53.6635070  65.6777670  56.0149230
  53.3756770  66.1390360  56.8027110  54.4587240  65.2175440  56.2833450
  39.8476710  70.0527450  69.6021930  39.9567830  69.1122190  69.4617320
  39.1957270  70.3182200  68.9535660  47.8389300  68.3243340  71.0020050
  47.5186170  67.6052580  71.5465740  47.1647660  68.9998410  71.0756110
  45.8803470  69.1703790  55.9453200  45.8713570  69.9033480  55.3297710
  44.9601830  68.9235370  56.0380160  41.4810110  64.3918680  56.6899960
  40.8738060  65.1317580  56.6995260  41.9559460  64.4818040  55.8638160
  51.0542900  58.5569500  66.3656850  51.4223720  57.7364710  66.6936420
  50.1941100  58.6171390  66.7812500  54.4204930  57.5126440  57.1744410
  53.7918090  57.6172110  56.4602640  53.9256850  57.7323220  57.9638290
  48.8663070  69.2332030  54.6078390  48.9675050  69.0296020  53.6780370
  47.9664810  68.9790310  54.8126170  46.3888960  59.7912390  58.5902290
  45.6805110  60.2598730  59.0315900  46.6733440  59.1334400  59.2247480
  48.0144890  61.2109090  66.5894820  48.5130140  61.6854910  67.2546670
  48.1567840  60.2872610  66.7964850  50.4204390  56.5163050  60.0298080
  50.2972170  56.5349180  59.0807590  51.3688950  56.5641990  60.1496480
  47.5081180  71.7518350  59.3026060  47.7622680  71.7139740  58.3805430
  46.5593660  71.6251680  59.2954310  44.5923980  58.0997470  55.9653000
  45.4414510  58.5367620  55.8993190  44.2255250  58.4117730  56.7925060
  55.2211750  57.4277050  67.4323210  54.7185350  58.1682450  67.7717020
  56.0368410  57.8161050  67.1160000  53.5133760  62.6710230  60.8784570
  52.5723900  62.6860460  61.0532260  53.8277830  61.8846190  61.3244870
  43.4915400  64.3529830  54.4388530  44.2578670  64.2411190  55.0013960
  43.5690090  63.6567800  53.7865300  42.1862160  61.7854900  55.1221420
  42.2665750  60.8382410  55.2338820  43.0781910  62.1161780  55.2282080
  55.5159340  69.8419080  62.5538830  55.6406760  70.6650250  63.0262640
  56.3824900  69.6309810  62.2062980  42.9876870  71.9350290  62.2255960
  43.7239350  71.3865750  62.4964530  43.3717790  72.8006300  62.0861950
  39.8722350  68.0023860  58.0997470  38.9462130  68.2445000  58.0902880
  40.3378780  68.8298120  57.9782220  41.9935150  71.1196360  71.4141540
  42.7947880  71.4408410  71.8276940  41.4786970  70.7591940  72.1361450
  46.0979180  71.1080600  54.0481530  46.8907790  71.3969430  53.5963320
  45.5783530  70.6772770  53.3694010  50.8299780  67.2276230  71.3616950
  50.2237940  67.2507830  70.6212700  50.5253890  66.4959270  71.8984200
  52.2600150  70.9556520  69.9726360  53.2121900  70.8714540  69.9226600
  52.1128370  71.6198230  70.6460150  55.1509350  70.3350730  55.4718270
  54.8650860  69.9215870  54.6572450  54.9528900  71.2638440  55.3518790
  39.7132960  63.6069820  70.3577590  40.2171980  63.0277100  70.9293820
  38.9740380  63.8910050  70.8953960  46.6156580  66.3284010  53.9123880
  46.5107220  65.7136360  54.6385260  46.4480800  65.8049900  53.1286890
  46.7670900  65.0140810  69.8913110  46.0016570  65.5825810  69.8067780
  46.9486860  64.7217020  68.9981340  49.8559310  65.3904040  54.5165870
  49.3069410  65.8373340  55.1608610  50.4778570  64.8853290  55.0403540
  53.9094250  66.7446140  70.4488130  54.6503720  67.0821900  69.9455590
  53.1466930  66.9138200  69.8957900  41.7456040  61.7499410  71.2527660
  41.7861380  61.4513280  72.1612890  42.6001540  62.1507020  71.0935180
  45.5234430  64.3494960  56.4131170  45.9450850  64.1834830  57.2562560
  45.6485270  63.5395190  55.9186310  43.6861850  60.3291510  69.2202150
  43.1558310  59.8382460  68.5925490  44.3549920  60.7575710  68.6860080
  48.0362070  63.3732570  53.6608270  48.5567730  62.6581590  53.2949420
  48.6830470  64.0118440  53.9608780  52.5839910  64.7960970  68.9843340
  52.9980930  64.9506050  69.8333760  51.6490910  64.9216190  69.1469120
  53.0562080  62.1357130  70.9882490  53.6382850  61.3809450  70.9002970
  53.2323850  62.6664570  70.2113970  44.1734150  57.2953880  69.2999440
  44.0791020  56.6774630  68.5750310  43.5931540  58.0220170  69.0729350
  46.9395590  55.8527120  66.3326830  46.4912890  55.8751380  65.4872380
  46.3060790  55.4546140  66.9297130  47.3455140  64.7481450  66.9539270
  47.7643250  65.5914180  66.7815510  46.4263770  64.8853490  66.7246050
  49.6819040  62.4797630  68.3377110  49.8015250  61.8838770  69.0771950
  50.5413040  62.5167320  67.9178410  52.0206940  63.0334820  66.9139620
  51.4942160  63.5577440  66.3104760  52.3638280  63.6662210  67.5449350
  44.4193330  60.4228190  53.3589330  44.2182390  59.5595550  53.7202670
  44.2485380  60.3361550  52.4210930  45.1962560  71.0534460  68.0697000
  44.6583650  71.7780520  67.7505700  45.4496520  70.5764800  67.2794340
  46.4487810  59.0218980  69.5952930  47.0387500  58.7134830  70.2830750
  45.6308050  58.5498730  69.7512830  51.2681240  58.6384790  69.8285950
  50.5796760  57.9766330  69.7635940  51.9887260  58.1923060  70.2734410
  51.8981640  55.2336420  55.8876210  52.1783930  54.3904320  56.2435630
  51.1247370  55.4659530  56.4014960  43.2176130  57.5228810  53.3467210
  43.5202030  57.5296240  52.4386360  43.9570720  57.1726670  53.8434870
  48.0524770  72.2885670  68.3283650  47.9783470  73.1920810  68.6356020
  47.1503610  71.9697570  68.3005720  46.4361060  56.4663430  54.3323410
  46.0883060  55.7887420  53.7525860  46.6373830  56.0052940  55.1466800
  48.6010100  71.4544180  55.9510010  49.4960890  71.7929150  55.9728770
  48.6327730  70.7323590  55.3234290  42.2406260  66.8271230  54.1797010
  42.6781130  67.3700900  54.8354590  42.7253990  66.0018180  54.1893350
  39.4552060  69.6160260  61.6317270  39.7855070  68.7481320  61.3995910
  39.8843060  69.8218780  62.4622230  44.0513980  67.9469270  59.2919240
  43.7509520  67.8234240  60.1923150  43.9451470  67.0877860  58.8834970
  39.9442270  70.4830850  64.3698900  39.5073260  70.6631650  65.2023050
  40.5119950  71.2405470  64.2280620  55.5804450  69.9847850  68.6576210
  54.9806440  70.0440410  67.9140130  55.7098350  69.0452830  68.7873060
  56.8205900  67.7265670  53.9945920  55.9898860  67.7942320  54.4653150
  56.9977730  68.6169790  53.6912780  56.2762360  64.4713150  56.4980120
  57.0381270  65.0409800  56.6039810  56.2916730  63.9040350  57.2688430
  39.7766700  62.9951080  60.7287780  39.1215540  62.7262720  60.0847480
  40.6144650  62.8855560  60.2789760  57.2822330  65.3263250  61.3422050
  57.6531160  64.5430570  60.9358020  57.9224260  66.0152350  61.1639350
  54.2656090  66.7099830  66.7552370  53.4515930  67.1396990  67.0178160
  54.6730290  67.3218240  66.1421420  56.3281530  64.7647520  53.6552640
  56.6030370  65.6726400  53.5271860  56.1392270  64.7010050  54.5914630
  52.7257140  57.7892370  54.9506270  53.1442020  57.6023350  54.1102930
  52.4193200  56.9371420  55.2609200  56.2246870  62.7016510  58.6482070
  55.8490470  61.9344440  58.2163360  55.4949990  63.0839210  59.1357000
  40.8142630  63.3803650  65.2691120  41.1815670  63.2931050  66.1487140
  40.2453450  62.6170200  65.1697980  55.6146490  61.8488030  68.2821590
  55.3832580  61.6200780  67.3819540  55.8751040  62.7687580  68.2366480
  40.3658630  60.2912740  69.1749540  39.4714680  60.2579500  69.5143250
  40.9056180  60.4899530  69.9400790  54.0534560  57.0744460  71.0601290
  54.9304740  57.0827860  71.4435290  54.0655400  56.3375300  70.4493640
  38.9904780  60.2050010  56.6713110  38.0868860  60.4680210  56.4964770
  39.4745400  60.4761180  55.8913070  55.4997830  60.9274000  61.9489310
  56.0235310  60.4336650  61.3179480  56.0857250  61.0624360  62.6936880
  55.6787550  61.0113870  65.4708860  54.7290260  60.9777410  65.5853850
  55.8600560  61.9213980  65.2358630  41.5331990  59.2615550  54.5807490
  42.2423690  58.8398770  54.0954770  40.8171930  59.3290780  53.9490840
  41.1806150  55.3154880  53.6210140  41.9034280  55.8563820  53.9391360
  41.4530670  55.0418300  52.7451680  54.9897800  60.1847350  57.8881720
  55.4856920  59.9518220  58.6730600  54.7913870  59.3459190  57.4719360
  40.8698340  54.5661070  63.5232760  41.5174530  54.0158450  63.0827920
  41.2900180  54.8204220  64.3448570  56.4184960  58.8208300  60.4219400
  56.3084240  58.6664340  61.3601670  57.1792550  58.2929240  60.1794810
  54.7650680  54.7602430  66.8802400  55.4022900  55.3736570  67.2461590
  54.9125570  54.7963090  65.9351630  57.3075230  56.6516220  53.6625540
  58.2324540  56.5197400  53.4543830  57.2851020  56.7309040  54.6161990
  57.3813720  57.4226880  56.2882250  56.5865220  57.3572000  56.8175160
  57.5857000  58.3577520  56.2767600  54.3232140  71.4618430  60.2820640
  54.9191210  71.1403000  59.6055060  54.5810290  70.9890250  61.0733910
  40.6230340  54.7216740  66.2658080  40.2745160  55.1780560  67.0316260
  40.2918040  53.8273870  66.3480510  42.2294710  67.8936340  70.4311270
  42.1864340  67.5229250  71.3125730  42.3605720  68.8313910  70.5713090
  45.9300740  69.4495930  66.0320990  45.6892100  69.7170490  65.1451510
  46.8703380  69.6201660  66.0871850  48.1355160  55.9128620  69.7877500
  48.0744050  56.5050450  70.5372910  49.0755540  55.8054580  69.6427760
  50.7729720  55.5698680  69.4269790  51.3870130  55.8877970  68.7650870
  51.3179280  55.0847270  70.0465650  57.1904900  71.4690310  66.8331630
  56.6963180  71.8659180  66.1158760  56.5818190  70.8439520  67.2268910
  41.2950980  54.2492940  69.5408850  41.8433970  54.0680990  68.7774960
  41.3606290  53.4587050  70.0765160  42.0682740  70.8398590  67.5509050
  41.4743060  70.7083290  68.2899090  42.0606580  70.0036730  67.0851150
  51.5137760  54.1330820  65.7539080  50.6397600  54.4665930  65.5512010
  51.4048510  53.6604000  66.5790950  52.4209740  56.3401690  67.1380800
  52.0923100  55.5253450  66.7582530  53.3692040  56.2971500  67.0146490
  54.8744350  72.1113730  64.1118370  54.4147320  72.8629540  63.7376390
  54.2456810  71.3920200  64.0533170  41.6994970  68.2056970  66.5017090
  40.9729030  67.5862260  66.4343040  41.7604120  68.5997580  65.6315170
  45.3040070  70.4201970  63.2866500  45.8205090  69.8089330  62.7614760
  45.9537450  70.9230750  63.7777510  48.0435570  71.3110460  64.1135480
  48.3313380  71.0564760  63.2368490  48.5558790  70.7587820  64.7041050
  49.2612580  55.0500660  64.6931990  48.4784370  55.5246160  64.9728750
  48.9675510  54.1455490  64.5845170  53.8133650  55.7523760  62.7381080
  54.2541740  55.6968860  61.8902680  53.5441240  56.6681770  62.8091260
  55.6772220  55.3839000  60.7489900  55.6160620  54.4400220  60.6020920
  56.4564250  55.4919090  61.2943360  39.9824970  71.5231360  59.7113850
  39.8147010  70.8902040  60.4095740  39.1159480  71.7290760  59.3608040
  40.6052990  55.3548140  57.2145710  41.3632350  55.4677020  56.6409740
  40.1430160  56.1917340  57.1689140  47.1466800  57.4687410  60.2048020
  46.3341310  57.0944300  59.8643900  47.6508440  56.7132490  60.5069210
  51.6491780  54.1329860  61.4431090  52.2521150  54.7050070  61.9179610
  50.9084770  54.6969300  61.2204990  54.7926380  54.5351420  56.7171370
  54.9877010  55.4334870  56.9838800  54.0056250  54.3038500  57.2104320
  41.5887670  70.2164590  57.1563990  41.0635290  70.5972620  56.4525950
  41.5132250  70.8415360  57.8773700  42.9778140  55.8812190  55.7547680
  43.5070900  55.0941990  55.6255630  43.6106460  56.5603380  55.9883210
  45.1715980  55.6187330  58.8093070  44.5418720  54.9174640  58.9763200
  44.6321120  56.3791460  58.5926230  48.1107930  72.2326560  71.4803680
  49.0375240  71.9970830  71.5239640  48.0958360  73.0598560  70.9989710
  56.3452990  71.7752130  58.4777930  56.5205180  71.0889870  57.8338850
  55.6474560  72.2999180  58.0854600  45.2971540  54.8971310  71.2445560
  45.0155810  55.4004910  70.4806380  45.6791240  54.0993060  70.8787690
  44.1880640  72.1646970  56.0313240  44.9199460  71.8806250  55.4837130
  44.4474310  71.9260250  56.9212620  43.3495430  68.2811700  56.0359570
  42.7204310  68.7496800  56.5845400  43.4643260  67.4360920  56.4705760
  51.8987000  54.3124890  71.8226030  51.7852450  54.6319500  72.7177550
  52.7156740  54.7137400  71.5263310  54.6785490  71.4596420  71.3044720
  55.4710810  70.9645650  71.0970680  54.9718640  72.1386560  71.9120330
  50.8045150  62.3317360  42.1860770  50.7239200  61.4171970  41.9152480
  50.3909570  62.8284430  41.4800480  48.9363190  64.1096380  44.0670040
  48.1605290  63.6296820  44.3568610  49.5876120  63.4302030  43.8926200
  42.9529020  64.4216190  44.9445800  42.1213900  64.1664900  45.3442310
  43.5610000  64.4926960  45.6803720  52.9570620  68.5156570  42.8469170
  52.4952150  67.7443810  43.1756340  53.7696170  68.5422640  43.3521620
  42.9330280  68.4556280  45.1403820  43.2358320  67.5654020  44.9614040
  43.6773870  69.0126500  44.9126070  41.3620970  59.3818080  38.7288190
  40.4737670  59.7234050  38.6268070  41.6462160  59.1818400  37.8369020
  39.3253980  61.9823730  44.6127890  39.8970090  61.2145930  44.6131530
  39.3255520  62.2812490  43.7034500  49.1833930  70.8014580  42.4673160
  48.5645370  71.2572080  41.8967600  50.0385710  70.9566040  42.0662860
  48.3772180  66.7853570  44.0740200  48.3080460  65.8443510  43.9129330
  49.1392040  66.8754980  44.6462770  40.5678850  57.3908090  46.3996820
  40.3881690  56.4933840  46.6799580  40.1658930  57.9379960  47.0743770
  49.4077350  59.5923950  44.3009130  49.7842170  58.7195830  44.1882800
  49.3096860  59.9282650  43.4099570  43.5382360  57.9649580  39.7626570
  43.6449110  58.8653310  40.0695330  42.6274720  57.9167550  39.4721220
  53.1901470  57.0874390  41.2337470  54.0111090  56.5970960  41.2762950
  53.2235550  57.6772050  41.9869310  41.1865520  59.8868590  45.0079160
  41.8675630  60.1506960  45.6266560  40.8713570  59.0469460  45.3417170
  45.3790090  60.9335950  44.0951750  45.8868310  61.4316920  44.7356770
  45.9103330  60.1571150  43.9191110  57.4801020  59.1041140  47.7981100
  56.7753190  59.4922850  47.2796210  57.7458940  59.7991430  48.4002030
  43.6626190  55.5734510  48.3615170  43.6644630  56.0906900  47.5561070
  42.8330500  55.0964690  48.3385100  50.0497280  65.6853820  39.8605070
  49.4314550  66.1503270  39.2967790  50.5620530  66.3781300  40.2774580
  44.9129040  65.2129690  46.5388670  44.5798420  65.8398610  47.1809740
  45.0895720  65.7391570  45.7590340  53.4262950  59.0274770  44.0065010
  52.7218520  59.3159660  44.5868120  53.7875110  59.8374880  43.6464570
  43.3441520  57.2844470  46.3685620  43.6858330  58.1286520  46.0739490
  42.4057330  57.4328210  46.4850960  44.1248140  67.1810490  48.3537850
  44.7422140  67.8561570  48.0722300  43.2641260  67.5898470  48.2625350
  39.4180480  66.3710350  37.2344700  39.0408460  66.8597450  36.5029600
  39.6753550  67.0435630  37.8651230  55.0425730  68.6449900  46.2692490
  54.3589250  69.3149010  46.2609160  55.5820020  68.8430550  45.5037350
  56.4949870  58.4729560  44.3974220  55.5474780  58.5068540  44.5289650
  56.8199860  59.2868510  44.7823580  47.0269410  54.7726740  42.6930210
  47.3344390  54.2173630  41.9765710  46.0970110  54.9071200  42.5103200
  52.5784470  70.4894030  44.9837670  52.5911630  70.0856320  44.1159930
  52.0259690  71.2641320  44.8799100  53.8729890  67.2110250  40.0727840
  53.7626220  66.2684580  40.1977260  53.8698140  67.5725890  40.9590600
  51.9769910  65.3923870  46.3120280  52.3938700  65.1783980  45.4773740
  52.7009730  65.6496660  46.8828900  49.4150170  62.8375570  39.4290330
  48.4879450  62.7712950  39.6578800  49.5674990  63.7755700  39.3145570
  49.4019250  59.1092570  36.4257490  48.4622920  59.2706530  36.5109950
  49.7202510  59.8278250  35.8793480  55.9232010  63.7911090  46.4036520
  55.0950640  63.8604180  45.9286650  56.5182490  64.3765400  45.9352350
  53.4447460  64.3995870  39.9325580  52.8259880  64.0615420  39.2851880
  53.4271910  63.7555630  40.6404770  52.8874020  60.5780410  47.3491390
  52.4745200  61.4034120  47.6031380  52.1549970  59.9925450  47.1567750
  45.0206810  63.3640310  42.2110060  44.6163810  62.6517560  41.7155960
  45.1069930  63.0193550  43.0998100  45.4888510  67.0507870  44.3749270
  45.1916800  66.4453340  43.6957050  46.4388330  67.0885180  44.2638630
  43.7335430  60.1383520  45.9909100  44.2850020  60.2478860  45.2162350
  44.2478940  60.5121120  46.7064330  53.5774120  70.6239740  48.0372370
  53.1004680  71.4311930  47.8444980  52.8935910  69.9718070  48.1898580
  44.5806940  66.7889560  51.0257070  43.6835470  67.0129530  51.2730470
  44.6059810  66.9124500  50.0768470  51.6212160  63.6382680  36.9398330
  52.0605440  62.8005110  36.7936150  52.3340580  64.2712080  37.0262470
  43.4078160  63.6602880  49.6014440  43.2685930  64.5325680  49.9701840
  42.5259520  63.3175690  49.4562380  49.7307540  68.5778750  40.9079570
  50.1703450  69.3203080  40.4934960  49.6694430  68.8205320  41.8318530
  45.2058510  69.6024580  51.8099590  45.1773940  70.0067530  50.9428020
  45.0423480  68.6734940  51.6471190  55.2029300  54.8925490  35.2539370
  54.8901960  54.9852320  36.1538440  55.9641770  55.4706520  35.2036800
  41.7211440  62.2585290  39.7116710  41.6009040  62.9847380  39.0997980
  41.4112330  61.4888200  39.2344620  57.1573330  70.3851680  53.1063760
  57.6333050  70.8634570  53.7852840  57.7780490  70.3169170  52.3809260
  39.3596810  65.4300430  45.5185350  39.4377230  65.5649200  44.5741070
  39.9738490  64.7216320  45.7113470  40.6044440  67.1300620  41.9291530
  40.1972520  67.2715210  41.0745130  41.4957450  66.8460780  41.7262740
  56.5606580  67.5764530  50.2663770  56.6869640  67.3376410  49.3480950
  56.6027960  66.7449070  50.7385850  50.4223320  71.2792530  48.8358580
  50.9367990  71.1900540  49.6381010  49.5792400  71.6252230  49.1286490
  52.3977720  71.5647870  38.2642580  52.2378860  71.2750810  39.1624410
  52.2324430  70.7888000  37.7287810  44.8766100  71.3446400  40.0414200
  44.7008580  70.4281940  39.8282000  44.0221840  71.7033690  40.2812000
  52.1003850  69.0735430  36.8240580  51.4069010  69.0712720  36.1642860
  52.8426710  68.6494750  36.3934750  51.6653780  70.6998140  40.8989070
  52.1210730  69.9187520  41.2127690  52.0046300  71.4104960  41.4430250
  56.4130590  59.6296990  51.2313510  55.7974860  60.1376660  50.7028970
  56.0927010  58.7295320  51.1739450  39.4156330  66.4714600  48.0579810
  39.5787370  66.0019960  47.2399180  39.8808780  65.9638160  48.7228650
  44.1875100  55.6020360  43.0940380  43.7443250  56.3829900  42.7624900
  44.7460090  55.9250250  43.8011320  48.4744910  58.4688880  48.6975700
  48.0124280  58.6771900  49.5095640  48.0723020  57.6548230  48.3946370
  53.4749420  59.6897830  49.8272360  52.6243010  59.3903580  50.1481430
  53.3151210  59.9339840  48.9156180  50.5699130  61.1899580  51.9271150
  50.8952540  60.3563330  51.5873380  51.3579460  61.7128100  52.0749480
  47.3033920  55.2231060  37.9746210  46.6788100  55.2190930  38.6999520
  47.2164040  54.3562020  37.5782180  46.2251000  56.1467690  44.9529980
  46.5223330  57.0530520  44.8722000  46.7736560  55.6586470  44.3389550
  43.9789320  60.7253930  40.8221630  43.7530240  60.5091100  41.7268250
  43.1981850  61.1582390  40.4767600  51.2087080  60.7317300  39.4212280
  50.6095970  61.4553100  39.2375900  51.7566690  60.6694080  38.6388730
  46.4188530  61.6239510  51.4881900  46.3232130  60.6834240  51.3382300
  47.2620510  61.8454580  51.0929970  49.8151950  59.3680840  41.4515560
  50.2081520  59.6853040  40.6384250  50.1768800  58.4892720  41.5660080
  41.5499070  58.0353180  49.6415680  41.1562460  58.8828390  49.8488460
  40.8617470  57.3979550  49.8324320  48.1244120  58.1188150  52.7112420
  47.4342440  57.9260350  53.3458510  48.8676420  58.4022790  53.2436720
  38.8516120  55.9581640  43.6745760  38.5629170  56.5284500  44.3870740
  39.5961880  55.4786090  44.0376990  39.0386350  59.9001760  34.8848480
  38.9561020  60.8432520  35.0263470  38.6869410  59.7576670  34.0060830
  50.4007090  61.9586590  45.5466340  49.6688210  62.4673400  45.8956440
  50.0031430  61.1416570  45.2455120  46.8384480  58.6340790  43.9518830
  46.8420540  58.1930740  43.1023370  47.7335600  58.9558120  44.0590650
  42.6886860  58.5167280  42.9113040  42.3486910  58.9942510  43.6680090
  41.9264180  58.0632400  42.5514140  46.9004630  59.6352870  36.9425590
  47.0217450  59.5939350  37.8911410  46.5153140  60.4977020  36.7872320
  50.8633000  57.4120270  44.9589280  50.8805740  57.8628920  45.8031130
  50.6148580  56.5125910  45.1722720  45.9126130  61.9454010  36.3408890
  45.3443030  61.4972260  35.7144800  46.6215130  62.3046790  35.8074040
  54.2903750  54.8252450  50.7975660  54.6149520  54.0942110  51.3233640
  54.3260260  54.5066090  49.8956650  40.9895310  65.8466030  50.2175620
  40.6050100  65.2059700  50.8158580  41.3007500  66.5502150  50.7870350
  47.1392450  62.6942570  45.6984240  47.5062580  62.2201140  46.4445580
  46.9497510  63.5684140  46.0392580  40.0032940  57.4386260  41.8277710
  39.7179860  57.0741930  42.6656330  39.9411800  56.7066720  41.2140850
  44.9291820  61.7351210  48.0168450  44.6248890  62.6143190  48.2418810
  45.8838280  61.7951000  48.0525890  43.4573610  65.9412200  38.6135300
  42.6835870  65.4009820  38.4534020  44.1868240  65.4218810  38.2753060
  54.2161590  64.9377560  44.4061690  54.9360710  65.4332850  44.0157800
  54.0143410  64.2595450  43.7615560  49.6771530  56.3315520  38.5491080
  48.8636140  55.8328690  38.4736390  49.4833480  57.1713770  38.1327430
  49.5980390  65.0086620  50.2930690  49.5317700  64.0882290  50.0388280
  48.9685530  65.1062060  51.0075330  52.3919920  60.7035170  36.8453240
  53.2799540  61.0152400  36.6704580  52.3625010  59.8307420  36.4533820
  43.5011010  65.6092580  42.2514110  44.0189680  64.8060840  42.1971000
  43.0495030  65.5471720  43.0930940  48.3880510  66.8758860  37.5241410
  48.7296210  67.6201090  37.0284730  47.5593220  67.1889980  37.8866240
  40.9855550  62.5753950  49.1639810  40.6270490  63.2407800  49.7513150
  40.6910110  61.7437500  49.5352430  44.1868670  63.0338190  52.0479360
  43.8868810  63.1795370  51.1507180  44.9579910  62.4743480  51.9552750
  49.5297120  67.8307190  50.0434490  49.5441660  66.8988150  49.8253400
  48.8222220  67.9166950  50.6824260  54.6634190  62.0147010  36.3133100
  54.5797910  62.4461230  35.4629540  55.3828380  62.4745360  36.7459920
  55.7408330  64.4714530  49.3903070  55.0156520  65.0643310  49.1932460
  56.2683790  64.4638070  48.5916440  55.6921440  68.8689270  39.0415230
  55.0497600  68.2144890  39.3158950  55.3052100  69.2744360  38.2655900
  51.2707920  66.1974700  42.8886920  51.6231740  65.6002830  42.2288290
  50.3870250  65.8718930  43.0595170  47.3571200  66.9572390  40.2957330
  48.0442330  67.5041600  40.6764920  46.5703620  67.5013120  40.3306940
  39.4963600  62.5745210  35.7874410  40.3658450  62.8570010  36.0710330
  39.0053920  63.3881080  35.6723220  46.6598410  63.9618420  39.9082690
  47.1161190  64.7723670  40.1342880  46.3086620  63.6441560  40.7401180
  48.9631020  69.4724760  47.1374990  49.6073240  69.6784140  47.8148410
  49.3260460  68.7113160  46.6845840  42.5610190  54.3056070  40.3805210
  42.4324820  54.2973970  41.3290130  41.7372210  54.6439160  40.0296220
  50.2363100  67.4757110  45.8552440  50.8785330  66.7750270  45.9684610
  50.7612450  68.2555550  45.6749330  54.0818820  67.7605730  35.5791580
  53.8556400  67.0436170  36.1716220  53.6915020  67.5118170  34.7413330
  52.0100720  68.2752010  49.0588500  52.3456960  68.8618700  49.7366420
  51.0901060  68.1444720  49.2886290  39.8634850  71.7872590  36.3536040
  40.2232490  72.3861930  35.6993310  39.7227190  72.3332480  37.1271070
  39.5604120  56.0647190  49.8411910  38.8462640  56.2644110  50.4464520
  39.9799160  55.2886760  50.2126710  53.6635070  65.6777670  37.2405740
  53.3756770  66.1390360  38.0283620  54.4587240  65.2175440  37.5089960
  39.8476710  70.0527450  50.8278440  39.9567830  69.1122190  50.6873830
  39.1957270  70.3182200  50.1792170  47.8389300  68.3243340  52.2276560
  47.5186170  67.6052580  52.7722250  47.1647660  68.9998410  52.3012620
  45.8803470  69.1703790  37.1709710  45.8713570  69.9033480  36.5554220
  44.9601830  68.9235370  37.2636670  41.4810110  64.3918680  37.9156470
  40.8738060  65.1317580  37.9251770  41.9559460  64.4818040  37.0894670
  51.0542900  58.5569500  47.5913360  51.4223720  57.7364710  47.9192930
  50.1941100  58.6171390  48.0069010  54.4204930  57.5126440  38.4000920
  53.7918090  57.6172110  37.6859150  53.9256850  57.7323220  39.1894800
  48.8663070  69.2332030  35.8334900  48.9675050  69.0296020  34.9036880
  47.9664810  68.9790310  36.0382680  46.3888960  59.7912390  39.8158800
  45.6805110  60.2598730  40.2572410  46.6733440  59.1334400  40.4503990
  48.0144890  61.2109090  47.8151330  48.5130140  61.6854910  48.4803180
  48.1567840  60.2872610  48.0221360  50.4204390  56.5163050  41.2554590
  50.2972170  56.5349180  40.3064100  51.3688950  56.5641990  41.3752990
  47.5081180  71.7518350  40.5282570  47.7622680  71.7139740  39.6061940
  46.5593660  71.6251680  40.5210820  44.5923980  58.0997470  37.1909510
  45.4414510  58.5367620  37.1249700  44.2255250  58.4117730  38.0181570
  55.2211750  57.4277050  48.6579720  54.7185350  58.1682450  48.9973530
  56.0368410  57.8161050  48.3416510  53.5133760  62.6710230  42.1041080
  52.5723900  62.6860460  42.2788770  53.8277830  61.8846190  42.5501380
  43.4915400  64.3529830  35.6645040  44.2578670  64.2411190  36.2270470
  43.5690090  63.6567800  35.0121810  42.1862160  61.7854900  36.3477930
  42.2665750  60.8382410  36.4595330  43.0781910  62.1161780  36.4538590
  55.5159340  69.8419080  43.7795340  55.6406760  70.6650250  44.2519150
  56.3824900  69.6309810  43.4319490  42.9876870  71.9350290  43.4512470
  43.7239350  71.3865750  43.7221040  43.3717790  72.8006300  43.3118460
  39.8722350  68.0023860  39.3253980  38.9462130  68.2445000  39.3159390
  40.3378780  68.8298120  39.2038730  41.9935150  71.1196360  52.6398050
  42.7947880  71.4408410  53.0533450  41.4786970  70.7591940  53.3617960
  46.0979180  71.1080600  35.2738040  46.8907790  71.3969430  34.8219830
  45.5783530  70.6772770  34.5950520  50.8299780  67.2276230  52.5873460
  50.2237940  67.2507830  51.8469210  50.5253890  66.4959270  53.1240710
  52.2600150  70.9556520  51.1982870  53.2121900  70.8714540  51.1483110
  52.1128370  71.6198230  51.8716660  55.1509350  70.3350730  36.6974780
  54.8650860  69.9215870  35.8828960  54.9528900  71.2638440  36.5775300
  39.7132960  63.6069820  51.5834100  40.2171980  63.0277100  52.1550330
  38.9740380  63.8910050  52.1210470  46.6156580  66.3284010  35.1380390
  46.5107220  65.7136360  35.8641770  46.4480800  65.8049900  34.3543400
  46.7670900  65.0140810  51.1169620  46.0016570  65.5825810  51.0324290
  46.9486860  64.7217020  50.2237850  49.8559310  65.3904040  35.7422380
  49.3069410  65.8373340  36.3865120  50.4778570  64.8853290  36.2660050
  53.9094250  66.7446140  51.6744640  54.6503720  67.0821900  51.1712100
  53.1466930  66.9138200  51.1214410  41.7456040  61.7499410  52.4784170
  41.7861380  61.4513280  53.3869400  42.6001540  62.1507020  52.3191690
  45.5234430  64.3494960  37.6387680  45.9450850  64.1834830  38.4819070
  45.6485270  63.5395190  37.1442820  43.6861850  60.3291510  50.4458660
  43.1558310  59.8382460  49.8182000  44.3549920  60.7575710  49.9116590
  48.0362070  63.3732570  34.8864780  48.5567730  62.6581590  34.5205930
  48.6830470  64.0118440  35.1865290  52.5839910  64.7960970  50.2099850
  52.9980930  64.9506050  51.0590270  51.6490910  64.9216190  50.3725630
  53.0562080  62.1357130  52.2139000  53.6382850  61.3809450  52.1259480
  53.2323850  62.6664570  51.4370480  44.1734150  57.2953880  50.5255950
  44.0791020  56.6774630  49.8006820  43.5931540  58.0220170  50.2985860
  46.9395590  55.8527120  47.5583340  46.4912890  55.8751380  46.7128890
  46.3060790  55.4546140  48.1553640  47.3455140  64.7481450  48.1795780
  47.7643250  65.5914180  48.0072020  46.4263770  64.8853490  47.9502560
  49.6819040  62.4797630  49.5633620  49.8015250  61.8838770  50.3028460
  50.5413040  62.5167320  49.1434920  52.0206940  63.0334820  48.1396130
  51.4942160  63.5577440  47.5361270  52.3638280  63.6662210  48.7705860
  44.4193330  60.4228190  34.5845840  44.2182390  59.5595550  34.9459180
  44.2485380  60.3361550  33.6467440  45.1962560  71.0534460  49.2953510
  44.6583650  71.7780520  48.9762210  45.4496520  70.5764800  48.5050850
  46.4487810  59.0218980  50.8209440  47.0387500  58.7134830  51.5087260
  45.6308050  58.5498730  50.9769340  51.2681240  58.6384790  51.0542460
  50.5796760  57.9766330  50.9892450  51.9887260  58.1923060  51.4990920
  51.8981640  55.2336420  37.1132720  52.1783930  54.3904320  37.4692140
  51.1247370  55.4659530  37.6271470  43.2176130  57.5228810  34.5723720
  43.5202030  57.5296240  33.6642870  43.9570720  57.1726670  35.0691380
  48.0524770  72.2885670  49.5540160  47.9783470  73.1920810  49.8612530
  47.1503610  71.9697570  49.5262230  46.4361060  56.4663430  35.5579920
  46.0883060  55.7887420  34.9782370  46.6373830  56.0052940  36.3723310
  48.6010100  71.4544180  37.1766520  49.4960890  71.7929150  37.1985280
  48.6327730  70.7323590  36.5490800  42.2406260  66.8271230  35.4053520
  42.6781130  67.3700900  36.0611100  42.7253990  66.0018180  35.4149860
  39.4552060  69.6160260  42.8573780  39.7855070  68.7481320  42.6252420
  39.8843060  69.8218780  43.6878740  44.0513980  67.9469270  40.5175750
  43.7509520  67.8234240  41.4179660  43.9451470  67.0877860  40.1091480
  39.9442270  70.4830850  45.5955410  39.5073260  70.6631650  46.4279560
  40.5119950  71.2405470  45.4537130  55.5804450  69.9847850  49.8832720
  54.9806440  70.0440410  49.1396640  55.7098350  69.0452830  50.0129570
  56.8205900  67.7265670  35.2202430  55.9898860  67.7942320  35.6909660
  56.9977730  68.6169790  34.9169290  56.2762360  64.4713150  37.7236630
  57.0381270  65.0409800  37.8296320  56.2916730  63.9040350  38.4944940
  39.7766700  62.9951080  41.9544290  39.1215540  62.7262720  41.3103990
  40.6144650  62.8855560  41.5046270  57.2822330  65.3263250  42.5678560
  57.6531160  64.5430570  42.1614530  57.9224260  66.0152350  42.3895860
  54.2656090  66.7099830  47.9808880  53.4515930  67.1396990  48.2434670
  54.6730290  67.3218240  47.3677930  56.3281530  64.7647520  34.8809150
  56.6030370  65.6726400  34.7528370  56.1392270  64.7010050  35.8171140
  52.7257140  57.7892370  36.1762780  53.1442020  57.6023350  35.3359440
  52.4193200  56.9371420  36.4865710  56.2246870  62.7016510  39.8738580
  55.8490470  61.9344440  39.4419870  55.4949990  63.0839210  40.3613510
  40.8142630  63.3803650  46.4947630  41.1815670  63.2931050  47.3743650
  40.2453450  62.6170200  46.3954490  55.6146490  61.8488030  49.5078100
  55.3832580  61.6200780  48.6076050  55.8751040  62.7687580  49.4622990
  40.3658630  60.2912740  50.4006050  39.4714680  60.2579500  50.7399760
  40.9056180  60.4899530  51.1657300  54.0534560  57.0744460  52.2857800
  54.9304740  57.0827860  52.6691800  54.0655400  56.3375300  51.6750150
  38.9904780  60.2050010  37.8969620  38.0868860  60.4680210  37.7221280
  39.4745400  60.4761180  37.1169580  55.4997830  60.9274000  43.1745820
  56.0235310  60.4336650  42.5435990  56.0857250  61.0624360  43.9193390
  55.6787550  61.0113870  46.6965370  54.7290260  60.9777410  46.8110360
  55.8600560  61.9213980  46.4615140  41.5331990  59.2615550  35.8064000
  42.2423690  58.8398770  35.3211280  40.8171930  59.3290780  35.1747350
  41.1806150  55.3154880  34.8466650  41.9034280  55.8563820  35.1647870
  41.4530670  55.0418300  33.9708190  54.9897800  60.1847350  39.1138230
  55.4856920  59.9518220  39.8987110  54.7913870  59.3459190  38.6975870
  40.8698340  54.5661070  44.7489270  41.5174530  54.0158450  44.3084430
  41.2900180  54.8204220  45.5705080  56.4184960  58.8208300  41.6475910
  56.3084240  58.6664340  42.5858180  57.1792550  58.2929240  41.4051320
  54.7650680  54.7602430  48.1058910  55.4022900  55.3736570  48.4718100
  54.9125570  54.7963090  47.1608140  57.3075230  56.6516220  34.8882050
  58.2324540  56.5197400  34.6800340  57.2851020  56.7309040  35.8418500
  57.3813720  57.4226880  37.5138760  56.5865220  57.3572000  38.0431670
  57.5857000  58.3577520  37.5024110  54.3232140  71.4618430  41.5077150
  54.9191210  71.1403000  40.8311570  54.5810290  70.9890250  42.2990420
  40.6230340  54.7216740  47.4914590  40.2745160  55.1780560  48.2572770
  40.2918040  53.8273870  47.5737020  42.2294710  67.8936340  51.6567780
  42.1864340  67.5229250  52.5382240  42.3605720  68.8313910  51.7969600
  45.9300740  69.4495930  47.2577500  45.6892100  69.7170490  46.3708020
  46.8703380  69.6201660  47.3128360  48.1355160  55.9128620  51.0134010
  48.0744050  56.5050450  51.7629420  49.0755540  55.8054580  50.8684270
  50.7729720  55.5698680  50.6526300  51.3870130  55.8877970  49.9907380
  51.3179280  55.0847270  51.2722160  57.1904900  71.4690310  48.0588140
  56.6963180  71.8659180  47.3415270  56.5818190  70.8439520  48.4525420
  41.2950980  54.2492940  50.7665360  41.8433970  54.0680990  50.0031470
  41.3606290  53.4587050  51.3021670  42.0682740  70.8398590  48.7765560
  41.4743060  70.7083290  49.5155600  42.0606580  70.0036730  48.3107660
  51.5137760  54.1330820  46.9795590  50.6397600  54.4665930  46.7768520
  51.4048510  53.6604000  47.8047460  52.4209740  56.3401690  48.3637310
  52.0923100  55.5253450  47.9839040  53.3692040  56.2971500  48.2403000
  54.8744350  72.1113730  45.3374880  54.4147320  72.8629540  44.9632900
  54.2456810  71.3920200  45.2789680  41.6994970  68.2056970  47.7273600
  40.9729030  67.5862260  47.6599550  41.7604120  68.5997580  46.8571680
  45.3040070  70.4201970  44.5123010  45.8205090  69.8089330  43.9871270
  45.9537450  70.9230750  45.0034020  48.0435570  71.3110460  45.3391990
  48.3313380  71.0564760  44.4625000  48.5558790  70.7587820  45.9297560
  49.2612580  55.0500660  45.9188500  48.4784370  55.5246160  46.1985260
  48.9675510  54.1455490  45.8101680  53.8133650  55.7523760  43.9637590
  54.2541740  55.6968860  43.1159190  53.5441240  56.6681770  44.0347770
  55.6772220  55.3839000  41.9746410  55.6160620  54.4400220  41.8277430
  56.4564250  55.4919090  42.5199870  39.9824970  71.5231360  40.9370360
  39.8147010  70.8902040  41.6352250  39.1159480  71.7290760  40.5864550
  40.6052990  55.3548140  38.4402220  41.3632350  55.4677020  37.8666250
  40.1430160  56.1917340  38.3945650  47.1466800  57.4687410  41.4304530
  46.3341310  57.0944300  41.0900410  47.6508440  56.7132490  41.7325720
  51.6491780  54.1329860  42.6687600  52.2521150  54.7050070  43.1436120
  50.9084770  54.6969300  42.4461500  54.7926380  54.5351420  37.9427880
  54.9877010  55.4334870  38.2095310  54.0056250  54.3038500  38.4360830
  41.5887670  70.2164590  38.3820500  41.0635290  70.5972620  37.6782460
  41.5132250  70.8415360  39.1030210  42.9778140  55.8812190  36.9804190
  43.5070900  55.0941990  36.8512140  43.6106460  56.5603380  37.2139720
  45.1715980  55.6187330  40.0349580  44.5418720  54.9174640  40.2019710
  44.6321120  56.3791460  39.8182740  48.1107930  72.2326560  52.7060190
  49.0375240  71.9970830  52.7496150  48.0958360  73.0598560  52.2246220
  56.3452990  71.7752130  39.7034440  56.5205180  71.0889870  39.0595360
  55.6474560  72.2999180  39.3111110  45.2971540  54.8971310  52.4702070
  45.0155810  55.4004910  51.7062890  45.6791240  54.0993060  52.1044200
  44.1880640  72.1646970  37.2569750  44.9199460  71.8806250  36.7093640
  44.4474310  71.9260250  38.1469130  43.3495430  68.2811700  37.2616080
  42.7204310  68.7496800  37.8101910  43.4643260  67.4360920  37.6962270
  51.8987000  54.3124890  53.0482540  51.7852450  54.6319500  53.9434060
  52.7156740  54.7137400  52.7519820  54.6785490  71.4596420  52.5301230
  55.4710810  70.9645650  52.3227190  54.9718640  72.1386560  53.1376840
  50.8045150  62.3317360  23.4117280  50.7239200  61.4171970  23.1408990
  50.3909570  62.8284430  22.7056990  48.9363190  64.1096380  25.2926550
  48.1605290  63.6296820  25.5825120  49.5876120  63.4302030  25.1182710
  42.9529020  64.4216190  26.1702310  42.1213900  64.1664900  26.5698820
  43.5610000  64.4926960  26.9060230  52.9570620  68.5156570  24.0725680
  52.4952150  67.7443810  24.4012850  53.7696170  68.5422640  24.5778130
  42.9330280  68.4556280  26.3660330  43.2358320  67.5654020  26.1870550
  43.6773870  69.0126500  26.1382580  41.3620970  59.3818080  19.9544700
  40.4737670  59.7234050  19.8524580  41.6462160  59.1818400  19.0625530
  39.3253980  61.9823730  25.8384400  39.8970090  61.2145930  25.8388040
  39.3255520  62.2812490  24.9291010  49.1833930  70.8014580  23.6929670
  48.5645370  71.2572080  23.1224110  50.0385710  70.9566040  23.2919370
  48.3772180  66.7853570  25.2996710  48.3080460  65.8443510  25.1385840
  49.1392040  66.8754980  25.8719280  40.5678850  57.3908090  27.6253330
  40.3881690  56.4933840  27.9056090  40.1658930  57.9379960  28.3000280
  49.4077350  59.5923950  25.5265640  49.7842170  58.7195830  25.4139310
  49.3096860  59.9282650  24.6356080  43.5382360  57.9649580  20.9883080
  43.6449110  58.8653310  21.2951840  42.6274720  57.9167550  20.6977730
  53.1901470  57.0874390  22.4593980  54.0111090  56.5970960  22.5019460
  53.2235550  57.6772050  23.2125820  41.1865520  59.8868590  26.2335670
  41.8675630  60.1506960  26.8523070  40.8713570  59.0469460  26.5673680
  45.3790090  60.9335950  25.3208260  45.8868310  61.4316920  25.9613280
  45.9103330  60.1571150  25.1447620  57.4801020  59.1041140  29.0237610
  56.7753190  59.4922850  28.5052720  57.7458940  59.7991430  29.6258540
  43.6626190  55.5734510  29.5871680  43.6644630  56.0906900  28.7817580
  42.8330500  55.0964690  29.5641610  50.0497280  65.6853820  21.0861580
  49.4314550  66.1503270  20.5224300  50.5620530  66.3781300  21.5031090
  44.9129040  65.2129690  27.7645180  44.5798420  65.8398610  28.4066250
  45.0895720  65.7391570  26.9846850  53.4262950  59.0274770  25.2321520
  52.7218520  59.3159660  25.8124630  53.7875110  59.8374880  24.8721080
  43.3441520  57.2844470  27.5942130  43.6858330  58.1286520  27.2996000
  42.4057330  57.4328210  27.7107470  44.1248140  67.1810490  29.5794360
  44.7422140  67.8561570  29.2978810  43.2641260  67.5898470  29.4881860
  39.4180480  66.3710350  18.4601210  39.0408460  66.8597450  17.7286110
  39.6753550  67.0435630  19.0907740  55.0425730  68.6449900  27.4949000
  54.3589250  69.3149010  27.4865670  55.5820020  68.8430550  26.7293860
  56.4949870  58.4729560  25.6230730  55.5474780  58.5068540  25.7546160
  56.8199860  59.2868510  26.0080090  47.0269410  54.7726740  23.9186720
  47.3344390  54.2173630  23.2022220  46.0970110  54.9071200  23.7359710
  52.5784470  70.4894030  26.2094180  52.5911630  70.0856320  25.3416440
  52.0259690  71.2641320  26.1055610  53.8729890  67.2110250  21.2984350
  53.7626220  66.2684580  21.4233770  53.8698140  67.5725890  22.1847110
  51.9769910  65.3923870  27.5376790  52.3938700  65.1783980  26.7030250
  52.7009730  65.6496660  28.1085410  49.4150170  62.8375570  20.6546840
  48.4879450  62.7712950  20.8835310  49.5674990  63.7755700  20.5402080
  49.4019250  59.1092570  17.6514000  48.4622920  59.2706530  17.7366460
  49.7202510  59.8278250  17.1049990  55.9232010  63.7911090  27.6293030
  55.0950640  63.8604180  27.1543160  56.5182490  64.3765400  27.1608860
  53.4447460  64.3995870  21.1582090  52.8259880  64.0615420  20.5108390
  53.4271910  63.7555630  21.8661280  52.8874020  60.5780410  28.5747900
  52.4745200  61.4034120  28.8287890  52.1549970  59.9925450  28.3824260
  45.0206810  63.3640310  23.4366570  44.6163810  62.6517560  22.9412470
  45.1069930  63.0193550  24.3254610  45.4888510  67.0507870  25.6005780
  45.1916800  66.4453340  24.9213560  46.4388330  67.0885180  25.4895140
  43.7335430  60.1383520  27.2165610  44.2850020  60.2478860  26.4418860
  44.2478940  60.5121120  27.9320840  53.5774120  70.6239740  29.2628880
  53.1004680  71.4311930  29.0701490  52.8935910  69.9718070  29.4155090
  44.5806940  66.7889560  32.2513580  43.6835470  67.0129530  32.4986980
  44.6059810  66.9124500  31.3024980  51.6212160  63.6382680  18.1654840
  52.0605440  62.8005110  18.0192660  52.3340580  64.2712080  18.2518980
  43.4078160  63.6602880  30.8270950  43.2685930  64.5325680  31.1958350
  42.5259520  63.3175690  30.6818890  49.7307540  68.5778750  22.1336080
  50.1703450  69.3203080  21.7191470  49.6694430  68.8205320  23.0575040
  45.2058510  69.6024580  33.0356100  45.1773940  70.0067530  32.1684530
  45.0423480  68.6734940  32.8727700  55.2029300  54.8925490  16.4795880
  54.8901960  54.9852320  17.3794950  55.9641770  55.4706520  16.4293310
  41.7211440  62.2585290  20.9373220  41.6009040  62.9847380  20.3254490
  41.4112330  61.4888200  20.4601130  57.1573330  70.3851680  34.3320270
  57.6333050  70.8634570  35.0109350  57.7780490  70.3169170  33.6065770
  39.3596810  65.4300430  26.7441860  39.4377230  65.5649200  25.7997580
  39.9738490  64.7216320  26.9369980  40.6044440  67.1300620  23.1548040
  40.1972520  67.2715210  22.3001640  41.4957450  66.8460780  22.9519250
  56.5606580  67.5764530  31.4920280  56.6869640  67.3376410  30.5737460
  56.6027960  66.7449070  31.9642360  50.4223320  71.2792530  30.0615090
  50.9367990  71.1900540  30.8637520  49.5792400  71.6252230  30.3543000
  52.3977720  71.5647870  19.4899090  52.2378860  71.2750810  20.3880920
  52.2324430  70.7888000  18.9544320  44.8766100  71.3446400  21.2670710
  44.7008580  70.4281940  21.0538510  44.0221840  71.7033690  21.5068510
  52.1003850  69.0735430  18.0497090  51.4069010  69.0712720  17.3899370
  52.8426710  68.6494750  17.6191260  51.6653780  70.6998140  22.1245580
  52.1210730  69.9187520  22.4384200  52.0046300  71.4104960  22.6686760
  56.4130590  59.6296990  32.4570020  55.7974860  60.1376660  31.9285480
  56.0927010  58.7295320  32.3995960  39.4156330  66.4714600  29.2836320
  39.5787370  66.0019960  28.4655690  39.8808780  65.9638160  29.9485160
  44.1875100  55.6020360  24.3196890  43.7443250  56.3829900  23.9881410
  44.7460090  55.9250250  25.0267830  48.4744910  58.4688880  29.9232210
  48.0124280  58.6771900  30.7352150  48.0723020  57.6548230  29.6202880
  53.4749420  59.6897830  31.0528870  52.6243010  59.3903580  31.3737940
  53.3151210  59.9339840  30.1412690  50.5699130  61.1899580  33.1527660
  50.8952540  60.3563330  32.8129890  51.3579460  61.7128100  33.3005990
  47.3033920  55.2231060  19.2002720  46.6788100  55.2190930  19.9256030
  47.2164040  54.3562020  18.8038690  46.2251000  56.1467690  26.1786490
  46.5223330  57.0530520  26.0978510  46.7736560  55.6586470  25.5646060
  43.9789320  60.7253930  22.0478140  43.7530240  60.5091100  22.9524760
  43.1981850  61.1582390  21.7024110  51.2087080  60.7317300  20.6468790
  50.6095970  61.4553100  20.4632410  51.7566690  60.6694080  19.8645240
  46.4188530  61.6239510  32.7138410  46.3232130  60.6834240  32.5638810
  47.2620510  61.8454580  32.3186480  49.8151950  59.3680840  22.6772070
  50.2081520  59.6853040  21.8640760  50.1768800  58.4892720  22.7916590
  41.5499070  58.0353180  30.8672190  41.1562460  58.8828390  31.0744970
  40.8617470  57.3979550  31.0580830  48.1244120  58.1188150  33.9368930
  47.4342440  57.9260350  34.5715020  48.8676420  58.4022790  34.4693230
  38.8516120  55.9581640  24.9002270  38.5629170  56.5284500  25.6127250
  39.5961880  55.4786090  25.2633500  39.0386350  59.9001760  16.1104990
  38.9561020  60.8432520  16.2519980  38.6869410  59.7576670  15.2317340
  50.4007090  61.9586590  26.7722850  49.6688210  62.4673400  27.1212950
  50.0031430  61.1416570  26.4711630  46.8384480  58.6340790  25.1775340
  46.8420540  58.1930740  24.3279880  47.7335600  58.9558120  25.2847160
  42.6886860  58.5167280  24.1369550  42.3486910  58.9942510  24.8936600
  41.9264180  58.0632400  23.7770650  46.9004630  59.6352870  18.1682100
  47.0217450  59.5939350  19.1167920  46.5153140  60.4977020  18.0128830
  50.8633000  57.4120270  26.1845790  50.8805740  57.8628920  27.0287640
  50.6148580  56.5125910  26.3979230  45.9126130  61.9454010  17.5665400
  45.3443030  61.4972260  16.9401310  46.6215130  62.3046790  17.0330550
  54.2903750  54.8252450  32.0232170  54.6149520  54.0942110  32.5490150
  54.3260260  54.5066090  31.1213160  40.9895310  65.8466030  31.4432130
  40.6050100  65.2059700  32.0415090  41.3007500  66.5502150  32.0126860
  47.1392450  62.6942570  26.9240750  47.5062580  62.2201140  27.6702090
  46.9497510  63.5684140  27.2649090  40.0032940  57.4386260  23.0534220
  39.7179860  57.0741930  23.8912840  39.9411800  56.7066720  22.4397360
  44.9291820  61.7351210  29.2424960  44.6248890  62.6143190  29.4675320
  45.8838280  61.7951000  29.2782400  43.4573610  65.9412200  19.8391810
  42.6835870  65.4009820  19.6790530  44.1868240  65.4218810  19.5009570
  54.2161590  64.9377560  25.6318200  54.9360710  65.4332850  25.2414310
  54.0143410  64.2595450  24.9872070  49.6771530  56.3315520  19.7747590
  48.8636140  55.8328690  19.6992900  49.4833480  57.1713770  19.3583940
  49.5980390  65.0086620  31.5187200  49.5317700  64.0882290  31.2644790
  48.9685530  65.1062060  32.2331840  52.3919920  60.7035170  18.0709750
  53.2799540  61.0152400  17.8961090  52.3625010  59.8307420  17.6790330
  43.5011010  65.6092580  23.4770620  44.0189680  64.8060840  23.4227510
  43.0495030  65.5471720  24.3187450  48.3880510  66.8758860  18.7497920
  48.7296210  67.6201090  18.2541240  47.5593220  67.1889980  19.1122750
  40.9855550  62.5753950  30.3896320  40.6270490  63.2407800  30.9769660
  40.6910110  61.7437500  30.7608940  44.1868670  63.0338190  33.2735870
  43.8868810  63.1795370  32.3763690  44.9579910  62.4743480  33.1809260
  49.5297120  67.8307190  31.2691000  49.5441660  66.8988150  31.0509910
  48.8222220  67.9166950  31.9080770  54.6634190  62.0147010  17.5389610
  54.5797910  62.4461230  16.6886050  55.3828380  62.4745360  17.9716430
  55.7408330  64.4714530  30.6159580  55.0156520  65.0643310  30.4188970
  56.2683790  64.4638070  29.8172950  55.6921440  68.8689270  20.2671740
  55.0497600  68.2144890  20.5415460  55.3052100  69.2744360  19.4912410
  51.2707920  66.1974700  24.1143430  51.6231740  65.6002830  23.4544800
  50.3870250  65.8718930  24.2851680  47.3571200  66.9572390  21.5213840
  48.0442330  67.5041600  21.9021430  46.5703620  67.5013120  21.5563450
  39.4963600  62.5745210  17.0130920  40.3658450  62.8570010  17.2966840
  39.0053920  63.3881080  16.8979730  46.6598410  63.9618420  21.1339200
  47.1161190  64.7723670  21.3599390  46.3086620  63.6441560  21.9657690
  48.9631020  69.4724760  28.3631500  49.6073240  69.6784140  29.0404920
  49.3260460  68.7113160  27.9102350  42.5610190  54.3056070  21.6061720
  42.4324820  54.2973970  22.5546640  41.7372210  54.6439160  21.2552730
  50.2363100  67.4757110  27.0808950  50.8785330  66.7750270  27.1941120
  50.7612450  68.2555550  26.9005840  54.0818820  67.7605730  16.8048090
  53.8556400  67.0436170  17.3972730  53.6915020  67.5118170  15.9669840
  52.0100720  68.2752010  30.2845010  52.3456960  68.8618700  30.9622930
  51.0901060  68.1444720  30.5142800  39.8634850  71.7872590  17.5792550
  40.2232490  72.3861930  16.9249820  39.7227190  72.3332480  18.3527580
  39.5604120  56.0647190  31.0668420  38.8462640  56.2644110  31.6721030
  39.9799160  55.2886760  31.4383220  53.6635070  65.6777670  18.4662250
  53.3756770  66.1390360  19.2540130  54.4587240  65.2175440  18.7346470
  39.8476710  70.0527450  32.0534950  39.9567830  69.1122190  31.9130340
  39.1957270  70.3182200  31.4048680  47.8389300  68.3243340  33.4533070
  47.5186170  67.6052580  33.9978760  47.1647660  68.9998410  33.5269130
  45.8803470  69.1703790  18.3966220  45.8713570  69.9033480  17.7810730
  44.9601830  68.9235370  18.4893180  41.4810110  64.3918680  19.1412980
  40.8738060  65.1317580  19.1508280  41.9559460  64.4818040  18.3151180
  51.0542900  58.5569500  28.8169870  51.4223720  57.7364710  29.1449440
  50.1941100  58.6171390  29.2325520  54.4204930  57.5126440  19.6257430
  53.7918090  57.6172110  18.9115660  53.9256850  57.7323220  20.4151310
  48.8663070  69.2332030  17.0591410  48.9675050  69.0296020  16.1293390
  47.9664810  68.9790310  17.2639190  46.3888960  59.7912390  21.0415310
  45.6805110  60.2598730  21.4828920  46.6733440  59.1334400  21.6760500
  48.0144890  61.2109090  29.0407840  48.5130140  61.6854910  29.7059690
  48.1567840  60.2872610  29.2477870  50.4204390  56.5163050  22.4811100
  50.2972170  56.5349180  21.5320610  51.3688950  56.5641990  22.6009500
  47.5081180  71.7518350  21.7539080  47.7622680  71.7139740  20.8318450
  46.5593660  71.6251680  21.7467330  44.5923980  58.0997470  18.4166020
  45.4414510  58.5367620  18.3506210  44.2255250  58.4117730  19.2438080
  55.2211750  57.4277050  29.8836230  54.7185350  58.1682450  30.2230040
  56.0368410  57.8161050  29.5673020  53.5133760  62.6710230  23.3297590
  52.5723900  62.6860460  23.5045280  53.8277830  61.8846190  23.7757890
  43.4915400  64.3529830  16.8901550  44.2578670  64.2411190  17.4526980
  43.5690090  63.6567800  16.2378320  42.1862160  61.7854900  17.5734440
  42.2665750  60.8382410  17.6851840  43.0781910  62.1161780  17.6795100
  55.5159340  69.8419080  25.0051850  55.6406760  70.6650250  25.4775660
  56.3824900  69.6309810  24.6576000  42.9876870  71.9350290  24.6768980
  43.7239350  71.3865750  24.9477550  43.3717790  72.8006300  24.5374970
  39.8722350  68.0023860  20.5510490  38.9462130  68.2445000  20.5415900
  40.3378780  68.8298120  20.4295240  41.9935150  71.1196360  33.8654560
  42.7947880  71.4408410  34.2789960  41.4786970  70.7591940  34.5874470
  46.0979180  71.1080600  16.4994550  46.8907790  71.3969430  16.0476340
  45.5783530  70.6772770  15.8207030  50.8299780  67.2276230  33.8129970
  50.2237940  67.2507830  33.0725720  50.5253890  66.4959270  34.3497220
  52.2600150  70.9556520  32.4239380  53.2121900  70.8714540  32.3739620
  52.1128370  71.6198230  33.0973170  55.1509350  70.3350730  17.9231290
  54.8650860  69.9215870  17.1085470  54.9528900  71.2638440  17.8031810
  39.7132960  63.6069820  32.8090610  40.2171980  63.0277100  33.3806840
  38.9740380  63.8910050  33.3466980  46.6156580  66.3284010  16.3636900
  46.5107220  65.7136360  17.0898280  46.4480800  65.8049900  15.5799910
  46.7670900  65.0140810  32.3426130  46.0016570  65.5825810  32.2580800
  46.9486860  64.7217020  31.4494360  49.8559310  65.3904040  16.9678890
  49.3069410  65.8373340  17.6121630  50.4778570  64.8853290  17.4916560
  53.9094250  66.7446140  32.9001150  54.6503720  67.0821900  32.3968610
  53.1466930  66.9138200  32.3470920  41.7456040  61.7499410  33.7040680
  41.7861380  61.4513280  34.6125910  42.6001540  62.1507020  33.5448200
  45.5234430  64.3494960  18.8644190  45.9450850  64.1834830  19.7075580
  45.6485270  63.5395190  18.3699330  43.6861850  60.3291510  31.6715170
  43.1558310  59.8382460  31.0438510  44.3549920  60.7575710  31.1373100
  48.0362070  63.3732570  16.1121290  48.5567730  62.6581590  15.7462440
  48.6830470  64.0118440  16.4121800  52.5839910  64.7960970  31.4356360
  52.9980930  64.9506050  32.2846780  51.6490910  64.9216190  31.5982140
  53.0562080  62.1357130  33.4395510  53.6382850  61.3809450  33.3515990
  53.2323850  62.6664570  32.6626990  44.1734150  57.2953880  31.7512460
  44.0791020  56.6774630  31.0263330  43.5931540  58.0220170  31.5242370
  46.9395590  55.8527120  28.7839850  46.4912890  55.8751380  27.9385400
  46.3060790  55.4546140  29.3810150  47.3455140  64.7481450  29.4052290
  47.7643250  65.5914180  29.2328530  46.4263770  64.8853490  29.1759070
  49.6819040  62.4797630  30.7890130  49.8015250  61.8838770  31.5284970
  50.5413040  62.5167320  30.3691430  52.0206940  63.0334820  29.3652640
  51.4942160  63.5577440  28.7617780  52.3638280  63.6662210  29.9962370
  44.4193330  60.4228190  15.8102350  44.2182390  59.5595550  16.1715690
  44.2485380  60.3361550  14.8723950  45.1962560  71.0534460  30.5210020
  44.6583650  71.7780520  30.2018720  45.4496520  70.5764800  29.7307360
  46.4487810  59.0218980  32.0465950  47.0387500  58.7134830  32.7343770
  45.6308050  58.5498730  32.2025850  51.2681240  58.6384790  32.2798970
  50.5796760  57.9766330  32.2148960  51.9887260  58.1923060  32.7247430
  51.8981640  55.2336420  18.3389230  52.1783930  54.3904320  18.6948650
  51.1247370  55.4659530  18.8527980  43.2176130  57.5228810  15.7980230
  43.5202030  57.5296240  14.8899380  43.9570720  57.1726670  16.2947890
  48.0524770  72.2885670  30.7796670  47.9783470  73.1920810  31.0869040
  47.1503610  71.9697570  30.7518740  46.4361060  56.4663430  16.7836430
  46.0883060  55.7887420  16.2038880  46.6373830  56.0052940  17.5979820
  48.6010100  71.4544180  18.4023030  49.4960890  71.7929150  18.4241790
  48.6327730  70.7323590  17.7747310  42.2406260  66.8271230  16.6310030
  42.6781130  67.3700900  17.2867610  42.7253990  66.0018180  16.6406370
  39.4552060  69.6160260  24.0830290  39.7855070  68.7481320  23.8508930
  39.8843060  69.8218780  24.9135250  44.0513980  67.9469270  21.7432260
  43.7509520  67.8234240  22.6436170  43.9451470  67.0877860  21.3347990
  39.9442270  70.4830850  26.8211920  39.5073260  70.6631650  27.6536070
  40.5119950  71.2405470  26.6793640  55.5804450  69.9847850  31.1089230
  54.9806440  70.0440410  30.3653150  55.7098350  69.0452830  31.2386080
  56.8205900  67.7265670  16.4458940  55.9898860  67.7942320  16.9166170
  56.9977730  68.6169790  16.1425800  56.2762360  64.4713150  18.9493140
  57.0381270  65.0409800  19.0552830  56.2916730  63.9040350  19.7201450
  39.7766700  62.9951080  23.1800800  39.1215540  62.7262720  22.5360500
  40.6144650  62.8855560  22.7302780  57.2822330  65.3263250  23.7935070
  57.6531160  64.5430570  23.3871040  57.9224260  66.0152350  23.6152370
  54.2656090  66.7099830  29.2065390  53.4515930  67.1396990  29.4691180
  54.6730290  67.3218240  28.5934440  56.3281530  64.7647520  16.1065660
  56.6030370  65.6726400  15.9784880  56.1392270  64.7010050  17.0427650
  52.7257140  57.7892370  17.4019290  53.1442020  57.6023350  16.5615950
  52.4193200  56.9371420  17.7122220  56.2246870  62.7016510  21.0995090
  55.8490470  61.9344440  20.6676380  55.4949990  63.0839210  21.5870020
  40.8142630  63.3803650  27.7204140  41.1815670  63.2931050  28.6000160
  40.2453450  62.6170200  27.6211000  55.6146490  61.8488030  30.7334610
  55.3832580  61.6200780  29.8332560  55.8751040  62.7687580  30.6879500
  40.3658630  60.2912740  31.6262560  39.4714680  60.2579500  31.9656270
  40.9056180  60.4899530  32.3913810  54.0534560  57.0744460  33.5114310
  54.9304740  57.0827860  33.8948310  54.0655400  56.3375300  32.9006660
  38.9904780  60.2050010  19.1226130  38.0868860  60.4680210  18.9477790
  39.4745400  60.4761180  18.3426090  55.4997830  60.9274000  24.4002330
  56.0235310  60.4336650  23.7692500  56.0857250  61.0624360  25.1449900
  55.6787550  61.0113870  27.9221880  54.7290260  60.9777410  28.0366870
  55.8600560  61.9213980  27.6871650  41.5331990  59.2615550  17.0320510
  42.2423690  58.8398770  16.5467790  40.8171930  59.3290780  16.4003860
  41.1806150  55.3154880  16.0723160  41.9034280  55.8563820  16.3904380
  41.4530670  55.0418300  15.1964700  54.9897800  60.1847350  20.3394740
  55.4856920  59.9518220  21.1243620  54.7913870  59.3459190  19.9232380
  40.8698340  54.5661070  25.9745780  41.5174530  54.0158450  25.5340940
  41.2900180  54.8204220  26.7961590  56.4184960  58.8208300  22.8732420
  56.3084240  58.6664340  23.8114690  57.1792550  58.2929240  22.6307830
  54.7650680  54.7602430  29.3315420  55.4022900  55.3736570  29.6974610
  54.9125570  54.7963090  28.3864650  57.3075230  56.6516220  16.1138560
  58.2324540  56.5197400  15.9056850  57.2851020  56.7309040  17.0675010
  57.3813720  57.4226880  18.7395270  56.5865220  57.3572000  19.2688180
  57.5857000  58.3577520  18.7280620  54.3232140  71.4618430  22.7333660
  54.9191210  71.1403000  22.0568080  54.5810290  70.9890250  23.5246930
  40.6230340  54.7216740  28.7171100  40.2745160  55.1780560  29.4829280
  40.2918040  53.8273870  28.7993530  42.2294710  67.8936340  32.8824290
  42.1864340  67.5229250  33.7638750  42.3605720  68.8313910  33.0226110
  45.9300740  69.4495930  28.4834010  45.6892100  69.7170490  27.5964530
  46.8703380  69.6201660  28.5384870  48.1355160  55.9128620  32.2390520
  48.0744050  56.5050450  32.9885930  49.0755540  55.8054580  32.0940780
  50.7729720  55.5698680  31.8782810  51.3870130  55.8877970  31.2163890
  51.3179280  55.0847270  32.4978670  57.1904900  71.4690310  29.2844650
  56.6963180  71.8659180  28.5671780  56.5818190  70.8439520  29.6781930
  41.2950980  54.2492940  31.9921870  41.8433970  54.0680990  31.2287980
  41.3606290  53.4587050  32.5278180  42.0682740  70.8398590  30.0022070
  41.4743060  70.7083290  30.7412110  42.0606580  70.0036730  29.5364170
  51.5137760  54.1330820  28.2052100  50.6397600  54.4665930  28.0025030
  51.4048510  53.6604000  29.0303970  52.4209740  56.3401690  29.5893820
  52.0923100  55.5253450  29.2095550  53.3692040  56.2971500  29.4659510
  54.8744350  72.1113730  26.5631390  54.4147320  72.8629540  26.1889410
  54.2456810  71.3920200  26.5046190  41.6994970  68.2056970  28.9530110
  40.9729030  67.5862260  28.8856060  41.7604120  68.5997580  28.0828190
  45.3040070  70.4201970  25.7379520  45.8205090  69.8089330  25.2127780
  45.9537450  70.9230750  26.2290530  48.0435570  71.3110460  26.5648500
  48.3313380  71.0564760  25.6881510  48.5558790  70.7587820  27.1554070
  49.2612580  55.0500660  27.1445010  48.4784370  55.5246160  27.4241770
  48.9675510  54.1455490  27.0358190  53.8133650  55.7523760  25.1894100
  54.2541740  55.6968860  24.3415700  53.5441240  56.6681770  25.2604280
  55.6772220  55.3839000  23.2002920  55.6160620  54.4400220  23.0533940
  56.4564250  55.4919090  23.7456380  39.9824970  71.5231360  22.1626870
  39.8147010  70.8902040  22.8608760  39.1159480  71.7290760  21.8121060
  40.6052990  55.3548140  19.6658730  41.3632350  55.4677020  19.0922760
  40.1430160  56.1917340  19.6202160  47.1466800  57.4687410  22.6561040
  46.3341310  57.0944300  22.3156920  47.6508440  56.7132490  22.9582230
  51.6491780  54.1329860  23.8944110  52.2521150  54.7050070  24.3692630
  50.9084770  54.6969300  23.6718010  54.7926380  54.5351420  19.1684390
  54.9877010  55.4334870  19.4351820  54.0056250  54.3038500  19.6617340
  41.5887670  70.2164590  19.6077010  41.0635290  70.5972620  18.9038970
  41.5132250  70.8415360  20.3286720  42.9778140  55.8812190  18.2060700
  43.5070900  55.0941990  18.0768650  43.6106460  56.5603380  18.4396230
  45.1715980  55.6187330  21.2606090  44.5418720  54.9174640  21.4276220
  44.6321120  56.3791460  21.0439250  48.1107930  72.2326560  33.9316700
  49.0375240  71.9970830  33.9752660  48.0958360  73.0598560  33.4502730
  56.3452990  71.7752130  20.9290950  56.5205180  71.0889870  20.2851870
  55.6474560  72.2999180  20.5367620  45.2971540  54.8971310  33.6958580
  45.0155810  55.4004910  32.9319400  45.6791240  54.0993060  33.3300710
  44.1880640  72.1646970  18.4826260  44.9199460  71.8806250  17.9350150
  44.4474310  71.9260250  19.3725640  43.3495430  68.2811700  18.4872590
  42.7204310  68.7496800  19.0358420  43.4643260  67.4360920  18.9218780
  51.8987000  54.3124890  34.2739050  51.7852450  54.6319500  35.1690570
  52.7156740  54.7137400  33.9776330  54.6785490  71.4596420  33.7557740
  55.4710810  70.9645650  33.5483700  54.9718640  72.1386560  34.3633350
  50.8045150  62.3317360   4.6373790  50.7239200  61.4171970   4.3665500
  50.3909570  62.8284430   3.9313500  48.9363190  64.1096380   6.5183060
  48.1605290  63.6296820   6.8081630  49.5876120  63.4302030   6.3439220
  42.9529020  64.4216190   7.3958820  42.1213900  64.1664900   7.7955330
  43.5610000  64.4926960   8.1316740  52.9570620  68.5156570   5.2982190
  52.4952150  67.7443810   5.6269360  53.7696170  68.5422640   5.8034640
  42.9330280  68.4556280   7.5916840  43.2358320  67.5654020   7.4127060
  43.6773870  69.0126500   7.3639090  39.3253980  61.9823730   7.0640910
  39.8970090  61.2145930   7.0644550  39.3255520  62.2812490   6.1547520
  49.1833930  70.8014580   4.9186180  48.5645370  71.2572080   4.3480620
  50.0385710  70.9566040   4.5175880  48.3772180  66.7853570   6.5253220
  48.3080460  65.8443510   6.3642350  49.1392040  66.8754980   7.0975790
  40.5678850  57.3908090   8.8509840  40.3881690  56.4933840   9.1312600
  40.1658930  57.9379960   9.5256790  49.4077350  59.5923950   6.7522150
  49.7842170  58.7195830   6.6395820  49.3096860  59.9282650   5.8612590
  43.5382360  57.9649580   2.2139590  43.6449110  58.8653310   2.5208350
  42.6274720  57.9167550   1.9234240  53.1901470  57.0874390   3.6850490
  54.0111090  56.5970960   3.7275970  53.2235550  57.6772050   4.4382330
  41.1865520  59.8868590   7.4592180  41.8675630  60.1506960   8.0779580
  40.8713570  59.0469460   7.7930190  45.3790090  60.9335950   6.5464770
  45.8868310  61.4316920   7.1869790  45.9103330  60.1571150   6.3704130
  57.4801020  59.1041140  10.2494120  56.7753190  59.4922850   9.7309230
  57.7458940  59.7991430  10.8515050  43.6626190  55.5734510  10.8128190
  43.6644630  56.0906900  10.0074090  42.8330500  55.0964690  10.7898120
  50.0497280  65.6853820   2.3118090  49.4314550  66.1503270   1.7480810
  50.5620530  66.3781300   2.7287600  44.9129040  65.2129690   8.9901690
  44.5798420  65.8398610   9.6322760  45.0895720  65.7391570   8.2103360
  53.4262950  59.0274770   6.4578030  52.7218520  59.3159660   7.0381140
  53.7875110  59.8374880   6.0977590  43.3441520  57.2844470   8.8198640
  43.6858330  58.1286520   8.5252510  42.4057330  57.4328210   8.9363980
  44.1248140  67.1810490  10.8050870  44.7422140  67.8561570  10.5235320
  43.2641260  67.5898470  10.7138370  55.0425730  68.6449900   8.7205510
  54.3589250  69.3149010   8.7122180  55.5820020  68.8430550   7.9550370
  56.4949870  58.4729560   6.8487240  55.5474780  58.5068540   6.9802670
  56.8199860  59.2868510   7.2336600  47.0269410  54.7726740   5.1443230
  47.3344390  54.2173630   4.4278730  46.0970110  54.9071200   4.9616220
  52.5784470  70.4894030   7.4350690  52.5911630  70.0856320   6.5672950
  52.0259690  71.2641320   7.3312120  53.8729890  67.2110250   2.5240860
  53.7626220  66.2684580   2.6490280  53.8698140  67.5725890   3.4103620
  51.9769910  65.3923870   8.7633300  52.3938700  65.1783980   7.9286760
  52.7009730  65.6496660   9.3341920  49.4150170  62.8375570   1.8803350
  48.4879450  62.7712950   2.1091820  49.5674990  63.7755700   1.7658590
  55.9232010  63.7911090   8.8549540  55.0950640  63.8604180   8.3799670
  56.5182490  64.3765400   8.3865370  53.4447460  64.3995870   2.3838600
  52.8259880  64.0615420   1.7364900  53.4271910  63.7555630   3.0917790
  52.8874020  60.5780410   9.8004410  52.4745200  61.4034120  10.0544400
  52.1549970  59.9925450   9.6080770  45.0206810  63.3640310   4.6623080
  44.6163810  62.6517560   4.1668980  45.1069930  63.0193550   5.5511120
  45.4888510  67.0507870   6.8262290  45.1916800  66.4453340   6.1470070
  46.4388330  67.0885180   6.7151650  43.7335430  60.1383520   8.4422120
  44.2850020  60.2478860   7.6675370  44.2478940  60.5121120   9.1577350
  53.5774120  70.6239740  10.4885390  53.1004680  71.4311930  10.2958000
  52.8935910  69.9718070  10.6411600  44.5806940  66.7889560  13.4770090
  43.6835470  67.0129530  13.7243490  44.6059810  66.9124500  12.5281490
  43.4078160  63.6602880  12.0527460  43.2685930  64.5325680  12.4214860
  42.5259520  63.3175690  11.9075400  49.7307540  68.5778750   3.3592590
  50.1703450  69.3203080   2.9447980  49.6694430  68.8205320   4.2831550
  45.2058510  69.6024580  14.2612610  45.1773940  70.0067530  13.3941040
  45.0423480  68.6734940  14.0984210  57.1573330  70.3851680  15.5576780
  57.6333050  70.8634570  16.2365860  57.7780490  70.3169170  14.8322280
  39.3596810  65.4300430   7.9698370  39.4377230  65.5649200   7.0254090
  39.9738490  64.7216320   8.1626490  40.6044440  67.1300620   4.3804550
  40.1972520  67.2715210   3.5258150  41.4957450  66.8460780   4.1775760
  56.5606580  67.5764530  12.7176790  56.6869640  67.3376410  11.7993970
  56.6027960  66.7449070  13.1898870  50.4223320  71.2792530  11.2871600
  50.9367990  71.1900540  12.0894030  49.5792400  71.6252230  11.5799510
  44.8766100  71.3446400   2.4927220  44.7008580  70.4281940   2.2795020
  44.0221840  71.7033690   2.7325020  51.6653780  70.6998140   3.3502090
  52.1210730  69.9187520   3.6640710  52.0046300  71.4104960   3.8943270
  56.4130590  59.6296990  13.6826530  55.7974860  60.1376660  13.1541990
  56.0927010  58.7295320  13.6252470  39.4156330  66.4714600  10.5092830
  39.5787370  66.0019960   9.6912200  39.8808780  65.9638160  11.1741670
  44.1875100  55.6020360   5.5453400  43.7443250  56.3829900   5.2137920
  44.7460090  55.9250250   6.2524340  48.4744910  58.4688880  11.1488720
  48.0124280  58.6771900  11.9608660  48.0723020  57.6548230  10.8459390
  53.4749420  59.6897830  12.2785380  52.6243010  59.3903580  12.5994450
  53.3151210  59.9339840  11.3669200  50.5699130  61.1899580  14.3784170
  50.8952540  60.3563330  14.0386400  51.3579460  61.7128100  14.5262500
  46.2251000  56.1467690   7.4043000  46.5223330  57.0530520   7.3235020
  46.7736560  55.6586470   6.7902570  43.9789320  60.7253930   3.2734650
  43.7530240  60.5091100   4.1781270  43.1981850  61.1582390   2.9280620
  46.4188530  61.6239510  13.9394920  46.3232130  60.6834240  13.7895320
  47.2620510  61.8454580  13.5442990  49.8151950  59.3680840   3.9028580
  50.2081520  59.6853040   3.0897270  50.1768800  58.4892720   4.0173100
  41.5499070  58.0353180  12.0928700  41.1562460  58.8828390  12.3001480
  40.8617470  57.3979550  12.2837340  48.1244120  58.1188150  15.1625440
  47.4342440  57.9260350  15.7971530  48.8676420  58.4022790  15.6949740
  38.8516120  55.9581640   6.1258780  38.5629170  56.5284500   6.8383760
  39.5961880  55.4786090   6.4890010  50.4007090  61.9586590   7.9979360
  49.6688210  62.4673400   8.3469460  50.0031430  61.1416570   7.6968140
  46.8384480  58.6340790   6.4031850  46.8420540  58.1930740   5.5536390
  47.7335600  58.9558120   6.5103670  42.6886860  58.5167280   5.3626060
  42.3486910  58.9942510   6.1193110  41.9264180  58.0632400   5.0027160
  50.8633000  57.4120270   7.4102300  50.8805740  57.8628920   8.2544150
  50.6148580  56.5125910   7.6235740  54.2903750  54.8252450  13.2488680
  54.6149520  54.0942110  13.7746660  54.3260260  54.5066090  12.3469670
  40.9895310  65.8466030  12.6688640  40.6050100  65.2059700  13.2671600
  41.3007500  66.5502150  13.2383370  47.1392450  62.6942570   8.1497260
  47.5062580  62.2201140   8.8958600  46.9497510  63.5684140   8.4905600
  40.0032940  57.4386260   4.2790730  39.7179860  57.0741930   5.1169350
  39.9411800  56.7066720   3.6653870  44.9291820  61.7351210  10.4681470
  44.6248890  62.6143190  10.6931830  45.8838280  61.7951000  10.5038910
  54.2161590  64.9377560   6.8574710  54.9360710  65.4332850   6.4670820
  54.0143410  64.2595450   6.2128580  49.5980390  65.0086620  12.7443710
  49.5317700  64.0882290  12.4901300  48.9685530  65.1062060  13.4588350
  43.5011010  65.6092580   4.7027130  44.0189680  64.8060840   4.6484020
  43.0495030  65.5471720   5.5443960  40.9855550  62.5753950  11.6152830
  40.6270490  63.2407800  12.2026170  40.6910110  61.7437500  11.9865450
  44.1868670  63.0338190  14.4992380  43.8868810  63.1795370  13.6020200
  44.9579910  62.4743480  14.4065770  49.5297120  67.8307190  12.4947510
  49.5441660  66.8988150  12.2766420  48.8222220  67.9166950  13.1337280
  55.7408330  64.4714530  11.8416090  55.0156520  65.0643310  11.6445480
  56.2683790  64.4638070  11.0429460  51.2707920  66.1974700   5.3399940
  51.6231740  65.6002830   4.6801310  50.3870250  65.8718930   5.5108190
  47.3571200  66.9572390   2.7470350  48.0442330  67.5041600   3.1277940
  46.5703620  67.5013120   2.7819960  46.6598410  63.9618420   2.3595710
  47.1161190  64.7723670   2.5855900  46.3086620  63.6441560   3.1914200
  48.9631020  69.4724760   9.5888010  49.6073240  69.6784140  10.2661430
  49.3260460  68.7113160   9.1358860  42.5610190  54.3056070   2.8318230
  42.4324820  54.2973970   3.7803150  41.7372210  54.6439160   2.4809240
  50.2363100  67.4757110   8.3065460  50.8785330  66.7750270   8.4197630
  50.7612450  68.2555550   8.1262350  52.0100720  68.2752010  11.5101520
  52.3456960  68.8618700  12.1879440  51.0901060  68.1444720  11.7399310
  39.5604120  56.0647190  12.2924930  38.8462640  56.2644110  12.8977540
  39.9799160  55.2886760  12.6639730  39.8476710  70.0527450  13.2791460
  39.9567830  69.1122190  13.1386850  39.1957270  70.3182200  12.6305190
  47.8389300  68.3243340  14.6789580  47.5186170  67.6052580  15.2235270
  47.1647660  68.9998410  14.7525640  51.0542900  58.5569500  10.0426380
  51.4223720  57.7364710  10.3705950  50.1941100  58.6171390  10.4582030
  46.3888960  59.7912390   2.2671820  45.6805110  60.2598730   2.7085430
  46.6733440  59.1334400   2.9017010  48.0144890  61.2109090  10.2664350
  48.5130140  61.6854910  10.9316200  48.1567840  60.2872610  10.4734380
  50.4204390  56.5163050   3.7067610  50.2972170  56.5349180   2.7577120
  51.3688950  56.5641990   3.8266010  47.5081180  71.7518350   2.9795590
  47.7622680  71.7139740   2.0574960  46.5593660  71.6251680   2.9723840
  55.2211750  57.4277050  11.1092740  54.7185350  58.1682450  11.4486550
  56.0368410  57.8161050  10.7929530  53.5133760  62.6710230   4.5554100
  52.5723900  62.6860460   4.7301790  53.8277830  61.8846190   5.0014400
  55.5159340  69.8419080   6.2308360  55.6406760  70.6650250   6.7032170
  56.3824900  69.6309810   5.8832510  42.9876870  71.9350290   5.9025490
  43.7239350  71.3865750   6.1734060  43.3717790  72.8006300   5.7631480
  39.8722350  68.0023860   1.7767000  38.9462130  68.2445000   1.7672410
  40.3378780  68.8298120   1.6551750  41.9935150  71.1196360  15.0911070
  42.7947880  71.4408410  15.5046470  41.4786970  70.7591940  15.8130980
  50.8299780  67.2276230  15.0386480  50.2237940  67.2507830  14.2982230
  50.5253890  66.4959270  15.5753730  52.2600150  70.9556520  13.6495890
  53.2121900  70.8714540  13.5996130  52.1128370  71.6198230  14.3229680
  39.7132960  63.6069820  14.0347120  40.2171980  63.0277100  14.6063350
  38.9740380  63.8910050  14.5723490  46.7670900  65.0140810  13.5682640
  46.0016570  65.5825810  13.4837310  46.9486860  64.7217020  12.6750870
  53.9094250  66.7446140  14.1257660  54.6503720  67.0821900  13.6225120
  53.1466930  66.9138200  13.5727430  41.7456040  61.7499410  14.9297190
  41.7861380  61.4513280  15.8382420  42.6001540  62.1507020  14.7704710
  43.6861850  60.3291510  12.8971680  43.1558310  59.8382460  12.2695020
  44.3549920  60.7575710  12.3629610  52.5839910  64.7960970  12.6612870
  52.9980930  64.9506050  13.5103290  51.6490910  64.9216190  12.8238650
  53.0562080  62.1357130  14.6652020  53.6382850  61.3809450  14.5772500
  53.2323850  62.6664570  13.8883500  44.1734150  57.2953880  12.9768970
  44.0791020  56.6774630  12.2519840  43.5931540  58.0220170  12.7498880
  46.9395590  55.8527120  10.0096360  46.4912890  55.8751380   9.1641910
  46.3060790  55.4546140  10.6066660  47.3455140  64.7481450  10.6308800
  47.7643250  65.5914180  10.4585040  46.4263770  64.8853490  10.4015580
  49.6819040  62.4797630  12.0146640  49.8015250  61.8838770  12.7541480
  50.5413040  62.5167320  11.5947940  52.0206940  63.0334820  10.5909150
  51.4942160  63.5577440   9.9874290  52.3638280  63.6662210  11.2218880
  45.1962560  71.0534460  11.7466530  44.6583650  71.7780520  11.4275230
  45.4496520  70.5764800  10.9563870  46.4487810  59.0218980  13.2722460
  47.0387500  58.7134830  13.9600280  45.6308050  58.5498730  13.4282360
  51.2681240  58.6384790  13.5055480  50.5796760  57.9766330  13.4405470
  51.9887260  58.1923060  13.9503940  48.0524770  72.2885670  12.0053180
  47.9783470  73.1920810  12.3125550  47.1503610  71.9697570  11.9775250
  39.4552060  69.6160260   5.3086800  39.7855070  68.7481320   5.0765440
  39.8843060  69.8218780   6.1391760  44.0513980  67.9469270   2.9688770
  43.7509520  67.8234240   3.8692680  43.9451470  67.0877860   2.5604500
  39.9442270  70.4830850   8.0468430  39.5073260  70.6631650   8.8792580
  40.5119950  71.2405470   7.9050150  55.5804450  69.9847850  12.3345740
  54.9806440  70.0440410  11.5909660  55.7098350  69.0452830  12.4642590
  39.7766700  62.9951080   4.4057310  39.1215540  62.7262720   3.7617010
  40.6144650  62.8855560   3.9559290  57.2822330  65.3263250   5.0191580
  57.6531160  64.5430570   4.6127550  57.9224260  66.0152350   4.8408880
  54.2656090  66.7099830  10.4321900  53.4515930  67.1396990  10.6947690
  54.6730290  67.3218240   9.8190950  56.2246870  62.7016510   2.3251600
  55.8490470  61.9344440   1.8932890  55.4949990  63.0839210   2.8126530
  40.8142630  63.3803650   8.9460650  41.1815670  63.2931050   9.8256670
  40.2453450  62.6170200   8.8467510  55.6146490  61.8488030  11.9591120
  55.3832580  61.6200780  11.0589070  55.8751040  62.7687580  11.9136010
  40.3658630  60.2912740  12.8519070  39.4714680  60.2579500  13.1912780
  40.9056180  60.4899530  13.6170320  54.0534560  57.0744460  14.7370820
  54.9304740  57.0827860  15.1204820  54.0655400  56.3375300  14.1263170
  55.4997830  60.9274000   5.6258840  56.0235310  60.4336650   4.9949010
  56.0857250  61.0624360   6.3706410  55.6787550  61.0113870   9.1478390
  54.7290260  60.9777410   9.2623380  55.8600560  61.9213980   8.9128160
  40.8698340  54.5661070   7.2002290  41.5174530  54.0158450   6.7597450
  41.2900180  54.8204220   8.0218100  56.4184960  58.8208300   4.0988930
  56.3084240  58.6664340   5.0371200  57.1792550  58.2929240   3.8564340
  54.7650680  54.7602430  10.5571930  55.4022900  55.3736570  10.9231120
  54.9125570  54.7963090   9.6121160  54.3232140  71.4618430   3.9590170
  54.9191210  71.1403000   3.2824590  54.5810290  70.9890250   4.7503440
  40.6230340  54.7216740   9.9427610  40.2745160  55.1780560  10.7085790
  40.2918040  53.8273870  10.0250040  42.2294710  67.8936340  14.1080800
  42.1864340  67.5229250  14.9895260  42.3605720  68.8313910  14.2482620
  45.9300740  69.4495930   9.7090520  45.6892100  69.7170490   8.8221040
  46.8703380  69.6201660   9.7641380  48.1355160  55.9128620  13.4647030
  48.0744050  56.5050450  14.2142440  49.0755540  55.8054580  13.3197290
  50.7729720  55.5698680  13.1039320  51.3870130  55.8877970  12.4420400
  51.3179280  55.0847270  13.7235180  57.1904900  71.4690310  10.5101160
  56.6963180  71.8659180   9.7928290  56.5818190  70.8439520  10.9038440
  41.2950980  54.2492940  13.2178380  41.8433970  54.0680990  12.4544490
  41.3606290  53.4587050  13.7534690  42.0682740  70.8398590  11.2278580
  41.4743060  70.7083290  11.9668620  42.0606580  70.0036730  10.7620680
  51.5137760  54.1330820   9.4308610  50.6397600  54.4665930   9.2281540
  51.4048510  53.6604000  10.2560480  52.4209740  56.3401690  10.8150330
  52.0923100  55.5253450  10.4352060  53.3692040  56.2971500  10.6916020
  54.8744350  72.1113730   7.7887900  54.4147320  72.8629540   7.4145920
  54.2456810  71.3920200   7.7302700  41.6994970  68.2056970  10.1786620
  40.9729030  67.5862260  10.1112570  41.7604120  68.5997580   9.3084700
  45.3040070  70.4201970   6.9636030  45.8205090  69.8089330   6.4384290
  45.9537450  70.9230750   7.4547040  48.0435570  71.3110460   7.7905010
  48.3313380  71.0564760   6.9138020  48.5558790  70.7587820   8.3810580
  49.2612580  55.0500660   8.3701520  48.4784370  55.5246160   8.6498280
  48.9675510  54.1455490   8.2614700  53.8133650  55.7523760   6.4150610
  54.2541740  55.6968860   5.5672210  53.5441240  56.6681770   6.4860790
  55.6772220  55.3839000   4.4259430  55.6160620  54.4400220   4.2790450
  56.4564250  55.4919090   4.9712890  39.9824970  71.5231360   3.3883380
  39.8147010  70.8902040   4.0865270  39.1159480  71.7290760   3.0377570
  47.1466800  57.4687410   3.8817550  46.3341310  57.0944300   3.5413430
  47.6508440  56.7132490   4.1838740  51.6491780  54.1329860   5.1200620
  52.2521150  54.7050070   5.5949140  50.9084770  54.6969300   4.8974520
  45.1715980  55.6187330   2.4862600  44.5418720  54.9174640   2.6532730
  44.6321120  56.3791460   2.2695760  48.1107930  72.2326560  15.1573210
  49.0375240  71.9970830  15.2009170  48.0958360  73.0598560  14.6759240
  45.2971540  54.8971310  14.9215090  45.0155810  55.4004910  14.1575910
  45.6791240  54.0993060  14.5557220  51.8987000  54.3124890  15.4995560
  51.7852450  54.6319500  16.3947080  52.7156740  54.7137400  15.2032840
  54.6785490  71.4596420  14.9814250  55.4710810  70.9645650  14.7740210
  54.9718640  72.1386560  15.5889860  50.8045150  43.5573870  79.7347750
  50.7239200  42.6428480  79.4639460  50.3909570  44.0540940  79.0287460
  48.9363190  45.3352890  81.6157020  48.1605290  44.8553330  81.9055590
  49.5876120  44.6558540  81.4413180  42.9529020  45.6472700  82.4932780
  42.1213900  45.3921410  82.8929290  43.5610000  45.7183470  83.2290700
  52.9570620  49.7413080  80.3956150  52.4952150  48.9700320  80.7243320
  53.7696170  49.7679150  80.9008600  42.9330280  49.6812790  82.6890800
  43.2358320  48.7910530  82.5101020  43.6773870  50.2383010  82.4613050
  41.3620970  40.6074590  76.2775170  40.4737670  40.9490560  76.1755050
  41.6462160  40.4074910  75.3856000  39.3253980  43.2080240  82.1614870
  39.8970090  42.4402440  82.1618510  39.3255520  43.5069000  81.2521480
  49.1833930  52.0271090  80.0160140  48.5645370  52.4828590  79.4454580
  50.0385710  52.1822550  79.6149840  48.3772180  48.0110080  81.6227180
  48.3080460  47.0700020  81.4616310  49.1392040  48.1011490  82.1949750
  40.5678850  38.6164600  83.9483800  40.3881690  37.7190350  84.2286560
  40.1658930  39.1636470  84.6230750  49.4077350  40.8180460  81.8496110
  49.7842170  39.9452340  81.7369780  49.3096860  41.1539160  80.9586550
  43.5382360  39.1906090  77.3113550  43.6449110  40.0909820  77.6182310
  42.6274720  39.1424060  77.0208200  53.1901470  38.3130900  78.7824450
  54.0111090  37.8227470  78.8249930  53.2235550  38.9028560  79.5356290
  41.1865520  41.1125100  82.5566140  41.8675630  41.3763470  83.1753540
  40.8713570  40.2725970  82.8904150  45.3790090  42.1592460  81.6438730
  45.8868310  42.6573430  82.2843750  45.9103330  41.3827660  81.4678090
  57.4801020  40.3297650  85.3468080  56.7753190  40.7179360  84.8283190
  57.7458940  41.0247940  85.9489010  43.6626190  36.7991020  85.9102150
  43.6644630  37.3163410  85.1048050  42.8330500  36.3221200  85.8872080
  50.0497280  46.9110330  77.4092050  49.4314550  47.3759780  76.8454770
  50.5620530  47.6037810  77.8261560  44.9129040  46.4386200  84.0875650
  44.5798420  47.0655120  84.7296720  45.0895720  46.9648080  83.3077320
  53.4262950  40.2531280  81.5551990  52.7218520  40.5416170  82.1355100
  53.7875110  41.0631390  81.1951550  43.3441520  38.5100980  83.9172600
  43.6858330  39.3543030  83.6226470  42.4057330  38.6584720  84.0337940
  44.1248140  48.4067000  85.9024830  44.7422140  49.0818080  85.6209280
  43.2641260  48.8154980  85.8112330  39.4180480  47.5966860  74.7831680
  39.0408460  48.0853960  74.0516580  39.6753550  48.2692140  75.4138210
  55.0425730  49.8706410  83.8179470  54.3589250  50.5405520  83.8096140
  55.5820020  50.0687060  83.0524330  56.4949870  39.6986070  81.9461200
  55.5474780  39.7325050  82.0776630  56.8199860  40.5125020  82.3310560
  47.0269410  35.9983250  80.2417190  47.3344390  35.4430140  79.5252690
  46.0970110  36.1327710  80.0590180  52.5784470  51.7150540  82.5324650
  52.5911630  51.3112830  81.6646910  52.0259690  52.4897830  82.4286080
  53.8729890  48.4366760  77.6214820  53.7626220  47.4941090  77.7464240
  53.8698140  48.7982400  78.5077580  51.9769910  46.6180380  83.8607260
  52.3938700  46.4040490  83.0260720  52.7009730  46.8753170  84.4315880
  49.4150170  44.0632080  76.9777310  48.4879450  43.9969460  77.2065780
  49.5674990  45.0012210  76.8632550  49.4019250  40.3349080  73.9744470
  48.4622920  40.4963040  74.0596930  49.7202510  41.0534760  73.4280460
  55.9232010  45.0167600  83.9523500  55.0950640  45.0860690  83.4773630
  56.5182490  45.6021910  83.4839330  53.4447460  45.6252380  77.4812560
  52.8259880  45.2871930  76.8338860  53.4271910  44.9812140  78.1891750
  52.8874020  41.8036920  84.8978370  52.4745200  42.6290630  85.1518360
  52.1549970  41.2181960  84.7054730  45.0206810  44.5896820  79.7597040
  44.6163810  43.8774070  79.2642940  45.1069930  44.2450060  80.6485080
  45.4888510  48.2764380  81.9236250  45.1916800  47.6709850  81.2444030
  46.4388330  48.3141690  81.8125610  43.7335430  41.3640030  83.5396080
  44.2850020  41.4735370  82.7649330  44.2478940  41.7377630  84.2551310
  53.5774120  51.8496250  85.5859350  53.1004680  52.6568440  85.3931960
  52.8935910  51.1974580  85.7385560  51.6212160  44.8639190  74.4885310
  52.0605440  44.0261620  74.3423130  52.3340580  45.4968590  74.5749450
  49.7307540  49.8035260  78.4566550  50.1703450  50.5459590  78.0421940
  49.6694430  50.0461830  79.3805510  55.2029300  36.1182000  72.8026350
  54.8901960  36.2108830  73.7025420  55.9641770  36.6963030  72.7523780
  41.7211440  43.4841800  77.2603690  41.6009040  44.2103890  76.6484960
  41.4112330  42.7144710  76.7831600  39.3596810  46.6556940  83.0672330
  39.4377230  46.7905710  82.1228050  39.9738490  45.9472830  83.2600450
  40.6044440  48.3557130  79.4778510  40.1972520  48.4971720  78.6232110
  41.4957450  48.0717290  79.2749720  52.3977720  52.7904380  75.8129560
  52.2378860  52.5007320  76.7111390  52.2324430  52.0144510  75.2774790
  44.8766100  52.5702910  77.5901180  44.7008580  51.6538450  77.3768980
  44.0221840  52.9290200  77.8298980  52.1003850  50.2991940  74.3727560
  51.4069010  50.2969230  73.7129840  52.8426710  49.8751260  73.9421730
  51.6653780  51.9254650  78.4476050  52.1210730  51.1444030  78.7614670
  52.0046300  52.6361470  78.9917230  44.1875100  36.8276870  80.6427360
  43.7443250  37.6086410  80.3111880  44.7460090  37.1506760  81.3498300
  47.3033920  36.4487570  75.5233190  46.6788100  36.4447440  76.2486500
  47.2164040  35.5818530  75.1269160  46.2251000  37.3724200  82.5016960
  46.5223330  38.2787030  82.4208980  46.7736560  36.8842980  81.8876530
  43.9789320  41.9510440  78.3708610  43.7530240  41.7347610  79.2755230
  43.1981850  42.3838900  78.0254580  51.2087080  41.9573810  76.9699260
  50.6095970  42.6809610  76.7862880  51.7566690  41.8950590  76.1875710
  49.8151950  40.5937350  79.0002540  50.2081520  40.9109550  78.1871230
  50.1768800  39.7149230  79.1147060  38.8516120  37.1838150  81.2232740
  38.5629170  37.7541010  81.9357720  39.5961880  36.7042600  81.5863970
  39.0386350  41.1258270  72.4335460  38.9561020  42.0689030  72.5750450
  38.6869410  40.9833180  71.5547810  50.4007090  43.1843100  83.0953320
  49.6688210  43.6929910  83.4443420  50.0031430  42.3673080  82.7942100
  46.8384480  39.8597300  81.5005810  46.8420540  39.4187250  80.6510350
  47.7335600  40.1814630  81.6077630  42.6886860  39.7423790  80.4600020
  42.3486910  40.2199020  81.2167070  41.9264180  39.2888910  80.1001120
  46.9004630  40.8609380  74.4912570  47.0217450  40.8195860  75.4398390
  46.5153140  41.7233530  74.3359300  50.8633000  38.6376780  82.5076260
  50.8805740  39.0885430  83.3518110  50.6148580  37.7382420  82.7209700
  45.9126130  43.1710520  73.8895870  45.3443030  42.7228770  73.2631780
  46.6215130  43.5303300  73.3561020  47.1392450  43.9199080  83.2471220
  47.5062580  43.4457650  83.9932560  46.9497510  44.7940650  83.5879560
  40.0032940  38.6642770  79.3764690  39.7179860  38.2998440  80.2143310
  39.9411800  37.9323230  78.7627830  44.9291820  42.9607720  85.5655430
  44.6248890  43.8399700  85.7905790  45.8838280  43.0207510  85.6012870
  43.4573610  47.1668710  76.1622280  42.6835870  46.6266330  76.0021000
  44.1868240  46.6475320  75.8240040  54.2161590  46.1634070  81.9548670
  54.9360710  46.6589360  81.5644780  54.0143410  45.4851960  81.3102540
  49.6771530  37.5572030  76.0978060  48.8636140  37.0585200  76.0223370
  49.4833480  38.3970280  75.6814410  52.3919920  41.9291680  74.3940220
  53.2799540  42.2408910  74.2191560  52.3625010  41.0563930  74.0020800
  43.5011010  46.8349090  79.8001090  44.0189680  46.0317350  79.7457980
  43.0495030  46.7728230  80.6417920  48.3880510  48.1015370  75.0728390
  48.7296210  48.8457600  74.5771710  47.5593220  48.4146490  75.4353220
  54.6634190  43.2403520  73.8620080  54.5797910  43.6717740  73.0116520
  55.3828380  43.7001870  74.2946900  55.6921440  50.0945780  76.5902210
  55.0497600  49.4401400  76.8645930  55.3052100  50.5000870  75.8142880
  51.2707920  47.4231210  80.4373900  51.6231740  46.8259340  79.7775270
  50.3870250  47.0975440  80.6082150  47.3571200  48.1828900  77.8444310
  48.0442330  48.7298110  78.2251900  46.5703620  48.7269630  77.8793920
  39.4963600  43.8001720  73.3361390  40.3658450  44.0826520  73.6197310
  39.0053920  44.6137590  73.2210200  46.6598410  45.1874930  77.4569670
  47.1161190  45.9980180  77.6829860  46.3086620  44.8698070  78.2888160
  48.9631020  50.6981270  84.6861970  49.6073240  50.9040650  85.3635390
  49.3260460  49.9369670  84.2332820  42.5610190  35.5312580  77.9292190
  42.4324820  35.5230480  78.8777110  41.7372210  35.8695670  77.5783200
  50.2363100  48.7013620  83.4039420  50.8785330  48.0006780  83.5171590
  50.7612450  49.4812060  83.2236310  54.0818820  48.9862240  73.1278560
  53.8556400  48.2692680  73.7203200  53.6915020  48.7374680  72.2900310
  39.8634850  53.0129100  73.9023020  40.2232490  53.6118440  73.2480290
  39.7227190  53.5588990  74.6758050  53.6635070  46.9034180  74.7892720
  53.3756770  47.3646870  75.5770600  54.4587240  46.4431950  75.0576940
  45.8803470  50.3960300  74.7196690  45.8713570  51.1289990  74.1041200
  44.9601830  50.1491880  74.8123650  41.4810110  45.6175190  75.4643450
  40.8738060  46.3574090  75.4738750  41.9559460  45.7074550  74.6381650
  51.0542900  39.7826010  85.1400340  51.4223720  38.9621220  85.4679910
  50.1941100  39.8427900  85.5555990  54.4204930  38.7382950  75.9487900
  53.7918090  38.8428620  75.2346130  53.9256850  38.9579730  76.7381780
  48.8663070  50.4588540  73.3821880  48.9675050  50.2552530  72.4523860
  47.9664810  50.2046820  73.5869660  46.3888960  41.0168900  77.3645780
  45.6805110  41.4855240  77.8059390  46.6733440  40.3590910  77.9990970
  50.4204390  37.7419560  78.8041570  50.2972170  37.7605690  77.8551080
  51.3688950  37.7898500  78.9239970  47.5081180  52.9774860  78.0769550
  47.7622680  52.9396250  77.1548920  46.5593660  52.8508190  78.0697800
  44.5923980  39.3253980  74.7396490  45.4414510  39.7624130  74.6736680
  44.2255250  39.6374240  75.5668550  53.5133760  43.8966740  79.6528060
  52.5723900  43.9116970  79.8275750  53.8277830  43.1102700  80.0988360
  43.4915400  45.5786340  73.2132020  44.2578670  45.4667700  73.7757450
  43.5690090  44.8824310  72.5608790  42.1862160  43.0111410  73.8964910
  42.2665750  42.0638920  74.0082310  43.0781910  43.3418290  74.0025570
  55.5159340  51.0675590  81.3282320  55.6406760  51.8906760  81.8006130
  56.3824900  50.8566320  80.9806470  42.9876870  53.1606800  80.9999450
  43.7239350  52.6122260  81.2708020  43.3717790  54.0262810  80.8605440
  39.8722350  49.2280370  76.8740960  38.9462130  49.4701510  76.8646370
  40.3378780  50.0554630  76.7525710  46.0979180  52.3337110  72.8225020
  46.8907790  52.6225940  72.3706810  45.5783530  51.9029280  72.1437500
  55.1509350  51.5607240  74.2461760  54.8650860  51.1472380  73.4315940
  54.9528900  52.4894950  74.1262280  46.6156580  47.5540520  72.6867370
  46.5107220  46.9392870  73.4128750  46.4480800  47.0306410  71.9030380
  49.8559310  46.6160550  73.2909360  49.3069410  47.0629850  73.9352100
  50.4778570  46.1109800  73.8147030  45.5234430  45.5751470  75.1874660
  45.9450850  45.4091340  76.0306050  45.6485270  44.7651700  74.6929800
  48.0362070  44.5989080  72.4351760  48.5567730  43.8838100  72.0692910
  48.6830470  45.2374950  72.7352270  46.9395590  37.0783630  85.1070320
  46.4912890  37.1007890  84.2615870  46.3060790  36.6802650  85.7040620
  47.3455140  45.9737960  85.7282760  47.7643250  46.8170690  85.5559000
  46.4263770  46.1110000  85.4989540  44.4193330  41.6484700  72.1332820
  44.2182390  40.7852060  72.4946160  44.2485380  41.5618060  71.1954420
  51.8981640  36.4592930  74.6619700  52.1783930  35.6160830  75.0179120
  51.1247370  36.6916040  75.1758450  43.2176130  38.7485320  72.1210700
  43.5202030  38.7552750  71.2129850  43.9570720  38.3983180  72.6178360
  46.4361060  37.6919940  73.1066900  46.0883060  37.0143930  72.5269350
  46.6373830  37.2309450  73.9210290  48.6010100  52.6800690  74.7253500
  49.4960890  53.0185660  74.7472260  48.6327730  51.9580100  74.0977780
  42.2406260  48.0527740  72.9540500  42.6781130  48.5957410  73.6098080
  42.7253990  47.2274690  72.9636840  39.4552060  50.8416770  80.4060760
  39.7855070  49.9737830  80.1739400  39.8843060  51.0475290  81.2365720
  44.0513980  49.1725780  78.0662730  43.7509520  49.0490750  78.9666640
  43.9451470  48.3134370  77.6578460  39.9442270  51.7087360  83.1442390
  39.5073260  51.8888160  83.9766540  40.5119950  52.4661980  83.0024110
  56.8205900  48.9522180  72.7689410  55.9898860  49.0198830  73.2396640
  56.9977730  49.8426300  72.4656270  56.2762360  45.6969660  75.2723610
  57.0381270  46.2666310  75.3783300  56.2916730  45.1296860  76.0431920
  39.7766700  44.2207590  79.5031270  39.1215540  43.9519230  78.8590970
  40.6144650  44.1112070  79.0533250  57.2822330  46.5519760  80.1165540
  57.6531160  45.7687080  79.7101510  57.9224260  47.2408860  79.9382840
  54.2656090  47.9356340  85.5295860  53.4515930  48.3653500  85.7921650
  54.6730290  48.5474750  84.9164910  56.3281530  45.9904030  72.4296130
  56.6030370  46.8982910  72.3015350  56.1392270  45.9266560  73.3658120
  52.7257140  39.0148880  73.7249760  53.1442020  38.8279860  72.8846420
  52.4193200  38.1627930  74.0352690  56.2246870  43.9273020  77.4225560
  55.8490470  43.1600950  76.9906850  55.4949990  44.3095720  77.9100490
  40.8142630  44.6060160  84.0434610  41.1815670  44.5187560  84.9230630
  40.2453450  43.8426710  83.9441470  38.9904780  41.4306520  75.4456600
  38.0868860  41.6936720  75.2708260  39.4745400  41.7017690  74.6656560
  55.4997830  42.1530510  80.7232800  56.0235310  41.6593160  80.0922970
  56.0857250  42.2880870  81.4680370  55.6787550  42.2370380  84.2452350
  54.7290260  42.2033920  84.3597340  55.8600560  43.1470490  84.0102120
  41.5331990  40.4872060  73.3550980  42.2423690  40.0655280  72.8698260
  40.8171930  40.5547290  72.7234330  41.1806150  36.5411390  72.3953630
  41.9034280  37.0820330  72.7134850  41.4530670  36.2674810  71.5195170
  54.9897800  41.4103860  76.6625210  55.4856920  41.1774730  77.4474090
  54.7913870  40.5715700  76.2462850  40.8698340  35.7917580  82.2976250
  41.5174530  35.2414960  81.8571410  41.2900180  36.0460730  83.1192060
  56.4184960  40.0464810  79.1962890  56.3084240  39.8920850  80.1345160
  57.1792550  39.5185750  78.9538300  57.3075230  37.8772730  72.4369030
  58.2324540  37.7453910  72.2287320  57.2851020  37.9565550  73.3905480
  57.3813720  38.6483390  75.0625740  56.5865220  38.5828510  75.5918650
  57.5857000  39.5834030  75.0511090  54.3232140  52.6874940  79.0564130
  54.9191210  52.3659510  78.3798550  54.5810290  52.2146760  79.8477400
  40.6230340  35.9473250  85.0401570  40.2745160  36.4037070  85.8059750
  40.2918040  35.0530380  85.1224000  45.9300740  50.6752440  84.8064480
  45.6892100  50.9427000  83.9195000  46.8703380  50.8458170  84.8615340
  51.5137760  35.3587330  84.5282570  50.6397600  35.6922440  84.3255500
  51.4048510  34.8860510  85.3534440  52.4209740  37.5658200  85.9124290
  52.0923100  36.7509960  85.5326020  53.3692040  37.5228010  85.7889980
  54.8744350  53.3370240  82.8861860  54.4147320  54.0886050  82.5119880
  54.2456810  52.6176710  82.8276660  41.6994970  49.4313480  85.2760580
  40.9729030  48.8118770  85.2086530  41.7604120  49.8254090  84.4058660
  45.3040070  51.6458480  82.0609990  45.8205090  51.0345840  81.5358250
  45.9537450  52.1487260  82.5521000  48.0435570  52.5366970  82.8878970
  48.3313380  52.2821270  82.0111980  48.5558790  51.9844330  83.4784540
  49.2612580  36.2757170  83.4675480  48.4784370  36.7502670  83.7472240
  48.9675510  35.3712000  83.3588660  53.8133650  36.9780270  81.5124570
  54.2541740  36.9225370  80.6646170  53.5441240  37.8938280  81.5834750
  55.6772220  36.6095510  79.5233390  55.6160620  35.6656730  79.3764410
  56.4564250  36.7175600  80.0686850  39.9824970  52.7487870  78.4857340
  39.8147010  52.1158550  79.1839230  39.1159480  52.9547270  78.1351530
  40.6052990  36.5804650  75.9889200  41.3632350  36.6933530  75.4153230
  40.1430160  37.4173850  75.9432630  47.1466800  38.6943920  78.9791510
  46.3341310  38.3200810  78.6387390  47.6508440  37.9389000  79.2812700
  51.6491780  35.3586370  80.2174580  52.2521150  35.9306580  80.6923100
  50.9084770  35.9225810  79.9948480  54.7926380  35.7607930  75.4914860
  54.9877010  36.6591380  75.7582290  54.0056250  35.5295010  75.9847810
  41.5887670  51.4421100  75.9307480  41.0635290  51.8229130  75.2269440
  41.5132250  52.0671870  76.6517190  42.9778140  37.1068700  74.5291170
  43.5070900  36.3198500  74.3999120  43.6106460  37.7859890  74.7626700
  45.1715980  36.8443840  77.5836560  44.5418720  36.1431150  77.7506690
  44.6321120  37.6047970  77.3669720  56.3452990  53.0008640  77.2521420
  56.5205180  52.3146380  76.6082340  55.6474560  53.5255690  76.8598090
  44.1880640  53.3903480  74.8056730  44.9199460  53.1062760  74.2580620
  44.4474310  53.1516760  75.6956110  43.3495430  49.5068210  74.8103060
  42.7204310  49.9753310  75.3588890  43.4643260  48.6617430  75.2449250
  50.8045150  43.5573870  60.9604260  50.7239200  42.6428480  60.6895970
  50.3909570  44.0540940  60.2543970  48.9363190  45.3352890  62.8413530
  48.1605290  44.8553330  63.1312100  49.5876120  44.6558540  62.6669690
  42.9529020  45.6472700  63.7189290  42.1213900  45.3921410  64.1185800
  43.5610000  45.7183470  64.4547210  52.9570620  49.7413080  61.6212660
  52.4952150  48.9700320  61.9499830  53.7696170  49.7679150  62.1265110
  42.9330280  49.6812790  63.9147310  43.2358320  48.7910530  63.7357530
  43.6773870  50.2383010  63.6869560  41.3620970  40.6074590  57.5031680
  40.4737670  40.9490560  57.4011560  41.6462160  40.4074910  56.6112510
  39.3253980  43.2080240  63.3871380  39.8970090  42.4402440  63.3875020
  39.3255520  43.5069000  62.4777990  49.1833930  52.0271090  61.2416650
  48.5645370  52.4828590  60.6711090  50.0385710  52.1822550  60.8406350
  48.3772180  48.0110080  62.8483690  48.3080460  47.0700020  62.6872820
  49.1392040  48.1011490  63.4206260  40.5678850  38.6164600  65.1740310
  40.3881690  37.7190350  65.4543070  40.1658930  39.1636470  65.8487260
  49.4077350  40.8180460  63.0752620  49.7842170  39.9452340  62.9626290
  49.3096860  41.1539160  62.1843060  43.5382360  39.1906090  58.5370060
  43.6449110  40.0909820  58.8438820  42.6274720  39.1424060  58.2464710
  53.1901470  38.3130900  60.0080960  54.0111090  37.8227470  60.0506440
  53.2235550  38.9028560  60.7612800  41.1865520  41.1125100  63.7822650
  41.8675630  41.3763470  64.4010050  40.8713570  40.2725970  64.1160660
  45.3790090  42.1592460  62.8695240  45.8868310  42.6573430  63.5100260
  45.9103330  41.3827660  62.6934600  57.4801020  40.3297650  66.5724590
  56.7753190  40.7179360  66.0539700  57.7458940  41.0247940  67.1745520
  43.6626190  36.7991020  67.1358660  43.6644630  37.3163410  66.3304560
  42.8330500  36.3221200  67.1128590  50.0497280  46.9110330  58.6348560
  49.4314550  47.3759780  58.0711280  50.5620530  47.6037810  59.0518070
  44.9129040  46.4386200  65.3132160  44.5798420  47.0655120  65.9553230
  45.0895720  46.9648080  64.5333830  53.4262950  40.2531280  62.7808500
  52.7218520  40.5416170  63.3611610  53.7875110  41.0631390  62.4208060
  43.3441520  38.5100980  65.1429110  43.6858330  39.3543030  64.8482980
  42.4057330  38.6584720  65.2594450  44.1248140  48.4067000  67.1281340
  44.7422140  49.0818080  66.8465790  43.2641260  48.8154980  67.0368840
  39.4180480  47.5966860  56.0088190  39.0408460  48.0853960  55.2773090
  39.6753550  48.2692140  56.6394720  55.0425730  49.8706410  65.0435980
  54.3589250  50.5405520  65.0352650  55.5820020  50.0687060  64.2780840
  56.4949870  39.6986070  63.1717710  55.5474780  39.7325050  63.3033140
  56.8199860  40.5125020  63.5567070  47.0269410  35.9983250  61.4673700
  47.3344390  35.4430140  60.7509200  46.0970110  36.1327710  61.2846690
  52.5784470  51.7150540  63.7581160  52.5911630  51.3112830  62.8903420
  52.0259690  52.4897830  63.6542590  53.8729890  48.4366760  58.8471330
  53.7626220  47.4941090  58.9720750  53.8698140  48.7982400  59.7334090
  51.9769910  46.6180380  65.0863770  52.3938700  46.4040490  64.2517230
  52.7009730  46.8753170  65.6572390  49.4150170  44.0632080  58.2033820
  48.4879450  43.9969460  58.4322290  49.5674990  45.0012210  58.0889060
  49.4019250  40.3349080  55.2000980  48.4622920  40.4963040  55.2853440
  49.7202510  41.0534760  54.6536970  55.9232010  45.0167600  65.1780010
  55.0950640  45.0860690  64.7030140  56.5182490  45.6021910  64.7095840
  53.4447460  45.6252380  58.7069070  52.8259880  45.2871930  58.0595370
  53.4271910  44.9812140  59.4148260  52.8874020  41.8036920  66.1234880
  52.4745200  42.6290630  66.3774870  52.1549970  41.2181960  65.9311240
  45.0206810  44.5896820  60.9853550  44.6163810  43.8774070  60.4899450
  45.1069930  44.2450060  61.8741590  45.4888510  48.2764380  63.1492760
  45.1916800  47.6709850  62.4700540  46.4388330  48.3141690  63.0382120
  43.7335430  41.3640030  64.7652590  44.2850020  41.4735370  63.9905840
  44.2478940  41.7377630  65.4807820  53.5774120  51.8496250  66.8115860
  53.1004680  52.6568440  66.6188470  52.8935910  51.1974580  66.9642070
  44.5806940  48.0146070  69.8000560  43.6835470  48.2386040  70.0473960
  44.6059810  48.1381010  68.8511960  51.6212160  44.8639190  55.7141820
  52.0605440  44.0261620  55.5679640  52.3340580  45.4968590  55.8005960
  43.4078160  44.8859390  68.3757930  43.2685930  45.7582190  68.7445330
  42.5259520  44.5432200  68.2305870  49.7307540  49.8035260  59.6823060
  50.1703450  50.5459590  59.2678450  49.6694430  50.0461830  60.6062020
  45.2058510  50.8281090  70.5843080  45.1773940  51.2324040  69.7171510
  45.0423480  49.8991450  70.4214680  55.2029300  36.1182000  54.0282860
  54.8901960  36.2108830  54.9281930  55.9641770  36.6963030  53.9780290
  41.7211440  43.4841800  58.4860200  41.6009040  44.2103890  57.8741470
  41.4112330  42.7144710  58.0088110  57.1573330  51.6108190  71.8807250
  57.6333050  52.0891080  72.5596330  57.7780490  51.5425680  71.1552750
  39.3596810  46.6556940  64.2928840  39.4377230  46.7905710  63.3484560
  39.9738490  45.9472830  64.4856960  40.6044440  48.3557130  60.7035020
  40.1972520  48.4971720  59.8488620  41.4957450  48.0717290  60.5006230
  56.5606580  48.8021040  69.0407260  56.6869640  48.5632920  68.1224440
  56.6027960  47.9705580  69.5129340  50.4223320  52.5049040  67.6102070
  50.9367990  52.4157050  68.4124500  49.5792400  52.8508740  67.9029980
  52.3977720  52.7904380  57.0386070  52.2378860  52.5007320  57.9367900
  52.2324430  52.0144510  56.5031300  44.8766100  52.5702910  58.8157690
  44.7008580  51.6538450  58.6025490  44.0221840  52.9290200  59.0555490
  52.1003850  50.2991940  55.5984070  51.4069010  50.2969230  54.9386350
  52.8426710  49.8751260  55.1678240  51.6653780  51.9254650  59.6732560
  52.1210730  51.1444030  59.9871180  52.0046300  52.6361470  60.2173740
  56.4130590  40.8553500  70.0057000  55.7974860  41.3633170  69.4772460
  56.0927010  39.9551830  69.9482940  39.4156330  47.6971110  66.8323300
  39.5787370  47.2276470  66.0142670  39.8808780  47.1894670  67.4972140
  44.1875100  36.8276870  61.8683870  43.7443250  37.6086410  61.5368390
  44.7460090  37.1506760  62.5754810  48.4744910  39.6945390  67.4719190
  48.0124280  39.9028410  68.2839130  48.0723020  38.8804740  67.1689860
  53.4749420  40.9154340  68.6015850  52.6243010  40.6160090  68.9224920
  53.3151210  41.1596350  67.6899670  50.5699130  42.4156090  70.7014640
  50.8952540  41.5819840  70.3616870  51.3579460  42.9384610  70.8492970
  47.3033920  36.4487570  56.7489700  46.6788100  36.4447440  57.4743010
  47.2164040  35.5818530  56.3525670  46.2251000  37.3724200  63.7273470
  46.5223330  38.2787030  63.6465490  46.7736560  36.8842980  63.1133040
  43.9789320  41.9510440  59.5965120  43.7530240  41.7347610  60.5011740
  43.1981850  42.3838900  59.2511090  51.2087080  41.9573810  58.1955770
  50.6095970  42.6809610  58.0119390  51.7566690  41.8950590  57.4132220
  46.4188530  42.8496020  70.2625390  46.3232130  41.9090750  70.1125790
  47.2620510  43.0711090  69.8673460  49.8151950  40.5937350  60.2259050
  50.2081520  40.9109550  59.4127740  50.1768800  39.7149230  60.3403570
  41.5499070  39.2609690  68.4159170  41.1562460  40.1084900  68.6231950
  40.8617470  38.6236060  68.6067810  48.1244120  39.3444660  71.4855910
  47.4342440  39.1516860  72.1202000  48.8676420  39.6279300  72.0180210
  38.8516120  37.1838150  62.4489250  38.5629170  37.7541010  63.1614230
  39.5961880  36.7042600  62.8120480  50.4007090  43.1843100  64.3209830
  49.6688210  43.6929910  64.6699930  50.0031430  42.3673080  64.0198610
  46.8384480  39.8597300  62.7262320  46.8420540  39.4187250  61.8766860
  47.7335600  40.1814630  62.8334140  42.6886860  39.7423790  61.6856530
  42.3486910  40.2199020  62.4423580  41.9264180  39.2888910  61.3257630
  46.9004630  40.8609380  55.7169080  47.0217450  40.8195860  56.6654900
  46.5153140  41.7233530  55.5615810  50.8633000  38.6376780  63.7332770
  50.8805740  39.0885430  64.5774620  50.6148580  37.7382420  63.9466210
  45.9126130  43.1710520  55.1152380  45.3443030  42.7228770  54.4888290
  46.6215130  43.5303300  54.5817530  54.2903750  36.0508960  69.5719150
  54.6149520  35.3198620  70.0977130  54.3260260  35.7322600  68.6700140
  40.9895310  47.0722540  68.9919110  40.6050100  46.4316210  69.5902070
  41.3007500  47.7758660  69.5613840  47.1392450  43.9199080  64.4727730
  47.5062580  43.4457650  65.2189070  46.9497510  44.7940650  64.8136070
  40.0032940  38.6642770  60.6021200  39.7179860  38.2998440  61.4399820
  39.9411800  37.9323230  59.9884340  44.9291820  42.9607720  66.7911940
  44.6248890  43.8399700  67.0162300  45.8838280  43.0207510  66.8269380
  43.4573610  47.1668710  57.3878790  42.6835870  46.6266330  57.2277510
  44.1868240  46.6475320  57.0496550  54.2161590  46.1634070  63.1805180
  54.9360710  46.6589360  62.7901290  54.0143410  45.4851960  62.5359050
  49.6771530  37.5572030  57.3234570  48.8636140  37.0585200  57.2479880
  49.4833480  38.3970280  56.9070920  49.5980390  46.2343130  69.0674180
  49.5317700  45.3138800  68.8131770  48.9685530  46.3318570  69.7818820
  52.3919920  41.9291680  55.6196730  53.2799540  42.2408910  55.4448070
  52.3625010  41.0563930  55.2277310  43.5011010  46.8349090  61.0257600
  44.0189680  46.0317350  60.9714490  43.0495030  46.7728230  61.8674430
  48.3880510  48.1015370  56.2984900  48.7296210  48.8457600  55.8028220
  47.5593220  48.4146490  56.6609730  40.9855550  43.8010460  67.9383300
  40.6270490  44.4664310  68.5256640  40.6910110  42.9694010  68.3095920
  44.1868670  44.2594700  70.8222850  43.8868810  44.4051880  69.9250670
  44.9579910  43.6999990  70.7296240  49.5297120  49.0563700  68.8177980
  49.5441660  48.1244660  68.5996890  48.8222220  49.1423460  69.4567750
  54.6634190  43.2403520  55.0876590  54.5797910  43.6717740  54.2373030
  55.3828380  43.7001870  55.5203410  55.7408330  45.6971040  68.1646560
  55.0156520  46.2899820  67.9675950  56.2683790  45.6894580  67.3659930
  55.6921440  50.0945780  57.8158720  55.0497600  49.4401400  58.0902440
  55.3052100  50.5000870  57.0399390  51.2707920  47.4231210  61.6630410
  51.6231740  46.8259340  61.0031780  50.3870250  47.0975440  61.8338660
  47.3571200  48.1828900  59.0700820  48.0442330  48.7298110  59.4508410
  46.5703620  48.7269630  59.1050430  39.4963600  43.8001720  54.5617900
  40.3658450  44.0826520  54.8453820  39.0053920  44.6137590  54.4466710
  46.6598410  45.1874930  58.6826180  47.1161190  45.9980180  58.9086370
  46.3086620  44.8698070  59.5144670  48.9631020  50.6981270  65.9118480
  49.6073240  50.9040650  66.5891900  49.3260460  49.9369670  65.4589330
  42.5610190  35.5312580  59.1548700  42.4324820  35.5230480  60.1033620
  41.7372210  35.8695670  58.8039710  50.2363100  48.7013620  64.6295930
  50.8785330  48.0006780  64.7428100  50.7612450  49.4812060  64.4492820
  54.0818820  48.9862240  54.3535070  53.8556400  48.2692680  54.9459710
  53.6915020  48.7374680  53.5156820  52.0100720  49.5008520  67.8331990
  52.3456960  50.0875210  68.5109910  51.0901060  49.3701230  68.0629780
  39.8634850  53.0129100  55.1279530  40.2232490  53.6118440  54.4736800
  39.7227190  53.5588990  55.9014560  39.5604120  37.2903700  68.6155400
  38.8462640  37.4900620  69.2208010  39.9799160  36.5143270  68.9870200
  53.6635070  46.9034180  56.0149230  53.3756770  47.3646870  56.8027110
  54.4587240  46.4431950  56.2833450  39.8476710  51.2783960  69.6021930
  39.9567830  50.3378700  69.4617320  39.1957270  51.5438710  68.9535660
  47.8389300  49.5499850  71.0020050  47.5186170  48.8309090  71.5465740
  47.1647660  50.2254920  71.0756110  45.8803470  50.3960300  55.9453200
  45.8713570  51.1289990  55.3297710  44.9601830  50.1491880  56.0380160
  41.4810110  45.6175190  56.6899960  40.8738060  46.3574090  56.6995260
  41.9559460  45.7074550  55.8638160  51.0542900  39.7826010  66.3656850
  51.4223720  38.9621220  66.6936420  50.1941100  39.8427900  66.7812500
  54.4204930  38.7382950  57.1744410  53.7918090  38.8428620  56.4602640
  53.9256850  38.9579730  57.9638290  48.8663070  50.4588540  54.6078390
  48.9675050  50.2552530  53.6780370  47.9664810  50.2046820  54.8126170
  46.3888960  41.0168900  58.5902290  45.6805110  41.4855240  59.0315900
  46.6733440  40.3590910  59.2247480  48.0144890  42.4365600  66.5894820
  48.5130140  42.9111420  67.2546670  48.1567840  41.5129120  66.7964850
  50.4204390  37.7419560  60.0298080  50.2972170  37.7605690  59.0807590
  51.3688950  37.7898500  60.1496480  47.5081180  52.9774860  59.3026060
  47.7622680  52.9396250  58.3805430  46.5593660  52.8508190  59.2954310
  44.5923980  39.3253980  55.9653000  45.4414510  39.7624130  55.8993190
  44.2255250  39.6374240  56.7925060  55.2211750  38.6533560  67.4323210
  54.7185350  39.3938960  67.7717020  56.0368410  39.0417560  67.1160000
  53.5133760  43.8966740  60.8784570  52.5723900  43.9116970  61.0532260
  53.8277830  43.1102700  61.3244870  43.4915400  45.5786340  54.4388530
  44.2578670  45.4667700  55.0013960  43.5690090  44.8824310  53.7865300
  42.1862160  43.0111410  55.1221420  42.2665750  42.0638920  55.2338820
  43.0781910  43.3418290  55.2282080  55.5159340  51.0675590  62.5538830
  55.6406760  51.8906760  63.0262640  56.3824900  50.8566320  62.2062980
  42.9876870  53.1606800  62.2255960  43.7239350  52.6122260  62.4964530
  43.3717790  54.0262810  62.0861950  39.8722350  49.2280370  58.0997470
  38.9462130  49.4701510  58.0902880  40.3378780  50.0554630  57.9782220
  41.9935150  52.3452870  71.4141540  42.7947880  52.6664920  71.8276940
  41.4786970  51.9848450  72.1361450  46.0979180  52.3337110  54.0481530
  46.8907790  52.6225940  53.5963320  45.5783530  51.9029280  53.3694010
  50.8299780  48.4532740  71.3616950  50.2237940  48.4764340  70.6212700
  50.5253890  47.7215780  71.8984200  52.2600150  52.1813030  69.9726360
  53.2121900  52.0971050  69.9226600  52.1128370  52.8454740  70.6460150
  55.1509350  51.5607240  55.4718270  54.8650860  51.1472380  54.6572450
  54.9528900  52.4894950  55.3518790  39.7132960  44.8326330  70.3577590
  40.2171980  44.2533610  70.9293820  38.9740380  45.1166560  70.8953960
  46.6156580  47.5540520  53.9123880  46.5107220  46.9392870  54.6385260
  46.4480800  47.0306410  53.1286890  46.7670900  46.2397320  69.8913110
  46.0016570  46.8082320  69.8067780  46.9486860  45.9473530  68.9981340
  49.8559310  46.6160550  54.5165870  49.3069410  47.0629850  55.1608610
  50.4778570  46.1109800  55.0403540  53.9094250  47.9702650  70.4488130
  54.6503720  48.3078410  69.9455590  53.1466930  48.1394710  69.8957900
  41.7456040  42.9755920  71.2527660  41.7861380  42.6769790  72.1612890
  42.6001540  43.3763530  71.0935180  45.5234430  45.5751470  56.4131170
  45.9450850  45.4091340  57.2562560  45.6485270  44.7651700  55.9186310
  43.6861850  41.5548020  69.2202150  43.1558310  41.0638970  68.5925490
  44.3549920  41.9832220  68.6860080  48.0362070  44.5989080  53.6608270
  48.5567730  43.8838100  53.2949420  48.6830470  45.2374950  53.9608780
  52.5839910  46.0217480  68.9843340  52.9980930  46.1762560  69.8333760
  51.6490910  46.1472700  69.1469120  53.0562080  43.3613640  70.9882490
  53.6382850  42.6065960  70.9002970  53.2323850  43.8921080  70.2113970
  44.1734150  38.5210390  69.2999440  44.0791020  37.9031140  68.5750310
  43.5931540  39.2476680  69.0729350  46.9395590  37.0783630  66.3326830
  46.4912890  37.1007890  65.4872380  46.3060790  36.6802650  66.9297130
  47.3455140  45.9737960  66.9539270  47.7643250  46.8170690  66.7815510
  46.4263770  46.1110000  66.7246050  49.6819040  43.7054140  68.3377110
  49.8015250  43.1095280  69.0771950  50.5413040  43.7423830  67.9178410
  52.0206940  44.2591330  66.9139620  51.4942160  44.7833950  66.3104760
  52.3638280  44.8918720  67.5449350  44.4193330  41.6484700  53.3589330
  44.2182390  40.7852060  53.7202670  44.2485380  41.5618060  52.4210930
  45.1962560  52.2790970  68.0697000  44.6583650  53.0037030  67.7505700
  45.4496520  51.8021310  67.2794340  46.4487810  40.2475490  69.5952930
  47.0387500  39.9391340  70.2830750  45.6308050  39.7755240  69.7512830
  51.2681240  39.8641300  69.8285950  50.5796760  39.2022840  69.7635940
  51.9887260  39.4179570  70.2734410  51.8981640  36.4592930  55.8876210
  52.1783930  35.6160830  56.2435630  51.1247370  36.6916040  56.4014960
  43.2176130  38.7485320  53.3467210  43.5202030  38.7552750  52.4386360
  43.9570720  38.3983180  53.8434870  48.0524770  53.5142180  68.3283650
  47.9783470  54.4177320  68.6356020  47.1503610  53.1954080  68.3005720
  46.4361060  37.6919940  54.3323410  46.0883060  37.0143930  53.7525860
  46.6373830  37.2309450  55.1466800  48.6010100  52.6800690  55.9510010
  49.4960890  53.0185660  55.9728770  48.6327730  51.9580100  55.3234290
  42.2406260  48.0527740  54.1797010  42.6781130  48.5957410  54.8354590
  42.7253990  47.2274690  54.1893350  39.4552060  50.8416770  61.6317270
  39.7855070  49.9737830  61.3995910  39.8843060  51.0475290  62.4622230
  44.0513980  49.1725780  59.2919240  43.7509520  49.0490750  60.1923150
  43.9451470  48.3134370  58.8834970  39.9442270  51.7087360  64.3698900
  39.5073260  51.8888160  65.2023050  40.5119950  52.4661980  64.2280620
  55.5804450  51.2104360  68.6576210  54.9806440  51.2696920  67.9140130
  55.7098350  50.2709340  68.7873060  56.8205900  48.9522180  53.9945920
  55.9898860  49.0198830  54.4653150  56.9977730  49.8426300  53.6912780
  56.2762360  45.6969660  56.4980120  57.0381270  46.2666310  56.6039810
  56.2916730  45.1296860  57.2688430  39.7766700  44.2207590  60.7287780
  39.1215540  43.9519230  60.0847480  40.6144650  44.1112070  60.2789760
  57.2822330  46.5519760  61.3422050  57.6531160  45.7687080  60.9358020
  57.9224260  47.2408860  61.1639350  54.2656090  47.9356340  66.7552370
  53.4515930  48.3653500  67.0178160  54.6730290  48.5474750  66.1421420
  56.3281530  45.9904030  53.6552640  56.6030370  46.8982910  53.5271860
  56.1392270  45.9266560  54.5914630  52.7257140  39.0148880  54.9506270
  53.1442020  38.8279860  54.1102930  52.4193200  38.1627930  55.2609200
  56.2246870  43.9273020  58.6482070  55.8490470  43.1600950  58.2163360
  55.4949990  44.3095720  59.1357000  40.8142630  44.6060160  65.2691120
  41.1815670  44.5187560  66.1487140  40.2453450  43.8426710  65.1697980
  55.6146490  43.0744540  68.2821590  55.3832580  42.8457290  67.3819540
  55.8751040  43.9944090  68.2366480  40.3658630  41.5169250  69.1749540
  39.4714680  41.4836010  69.5143250  40.9056180  41.7156040  69.9400790
  54.0534560  38.3000970  71.0601290  54.9304740  38.3084370  71.4435290
  54.0655400  37.5631810  70.4493640  38.9904780  41.4306520  56.6713110
  38.0868860  41.6936720  56.4964770  39.4745400  41.7017690  55.8913070
  55.4997830  42.1530510  61.9489310  56.0235310  41.6593160  61.3179480
  56.0857250  42.2880870  62.6936880  55.6787550  42.2370380  65.4708860
  54.7290260  42.2033920  65.5853850  55.8600560  43.1470490  65.2358630
  41.5331990  40.4872060  54.5807490  42.2423690  40.0655280  54.0954770
  40.8171930  40.5547290  53.9490840  54.9897800  41.4103860  57.8881720
  55.4856920  41.1774730  58.6730600  54.7913870  40.5715700  57.4719360
  40.8698340  35.7917580  63.5232760  41.5174530  35.2414960  63.0827920
  41.2900180  36.0460730  64.3448570  56.4184960  40.0464810  60.4219400
  56.3084240  39.8920850  61.3601670  57.1792550  39.5185750  60.1794810
  54.7650680  35.9858940  66.8802400  55.4022900  36.5993080  67.2461590
  54.9125570  36.0219600  65.9351630  57.3075230  37.8772730  53.6625540
  58.2324540  37.7453910  53.4543830  57.2851020  37.9565550  54.6161990
  57.3813720  38.6483390  56.2882250  56.5865220  38.5828510  56.8175160
  57.5857000  39.5834030  56.2767600  54.3232140  52.6874940  60.2820640
  54.9191210  52.3659510  59.6055060  54.5810290  52.2146760  61.0733910
  40.6230340  35.9473250  66.2658080  40.2745160  36.4037070  67.0316260
  40.2918040  35.0530380  66.3480510  42.2294710  49.1192850  70.4311270
  42.1864340  48.7485760  71.3125730  42.3605720  50.0570420  70.5713090
  45.9300740  50.6752440  66.0320990  45.6892100  50.9427000  65.1451510
  46.8703380  50.8458170  66.0871850  48.1355160  37.1385130  69.7877500
  48.0744050  37.7306960  70.5372910  49.0755540  37.0311090  69.6427760
  50.7729720  36.7955190  69.4269790  51.3870130  37.1134480  68.7650870
  51.3179280  36.3103780  70.0465650  57.1904900  52.6946820  66.8331630
  56.6963180  53.0915690  66.1158760  56.5818190  52.0696030  67.2268910
  41.2950980  35.4749450  69.5408850  41.8433970  35.2937500  68.7774960
  41.3606290  34.6843560  70.0765160  42.0682740  52.0655100  67.5509050
  41.4743060  51.9339800  68.2899090  42.0606580  51.2293240  67.0851150
  51.5137760  35.3587330  65.7539080  50.6397600  35.6922440  65.5512010
  51.4048510  34.8860510  66.5790950  52.4209740  37.5658200  67.1380800
  52.0923100  36.7509960  66.7582530  53.3692040  37.5228010  67.0146490
  54.8744350  53.3370240  64.1118370  54.4147320  54.0886050  63.7376390
  54.2456810  52.6176710  64.0533170  41.6994970  49.4313480  66.5017090
  40.9729030  48.8118770  66.4343040  41.7604120  49.8254090  65.6315170
  45.3040070  51.6458480  63.2866500  45.8205090  51.0345840  62.7614760
  45.9537450  52.1487260  63.7777510  48.0435570  52.5366970  64.1135480
  48.3313380  52.2821270  63.2368490  48.5558790  51.9844330  64.7041050
  49.2612580  36.2757170  64.6931990  48.4784370  36.7502670  64.9728750
  48.9675510  35.3712000  64.5845170  53.8133650  36.9780270  62.7381080
  54.2541740  36.9225370  61.8902680  53.5441240  37.8938280  62.8091260
  55.6772220  36.6095510  60.7489900  55.6160620  35.6656730  60.6020920
  56.4564250  36.7175600  61.2943360  39.9824970  52.7487870  59.7113850
  39.8147010  52.1158550  60.4095740  39.1159480  52.9547270  59.3608040
  40.6052990  36.5804650  57.2145710  41.3632350  36.6933530  56.6409740
  40.1430160  37.4173850  57.1689140  47.1466800  38.6943920  60.2048020
  46.3341310  38.3200810  59.8643900  47.6508440  37.9389000  60.5069210
  51.6491780  35.3586370  61.4431090  52.2521150  35.9306580  61.9179610
  50.9084770  35.9225810  61.2204990  54.7926380  35.7607930  56.7171370
  54.9877010  36.6591380  56.9838800  54.0056250  35.5295010  57.2104320
  41.5887670  51.4421100  57.1563990  41.0635290  51.8229130  56.4525950
  41.5132250  52.0671870  57.8773700  42.9778140  37.1068700  55.7547680
  43.5070900  36.3198500  55.6255630  43.6106460  37.7859890  55.9883210
  45.1715980  36.8443840  58.8093070  44.5418720  36.1431150  58.9763200
  44.6321120  37.6047970  58.5926230  48.1107930  53.4583070  71.4803680
  49.0375240  53.2227340  71.5239640  48.0958360  54.2855070  70.9989710
  56.3452990  53.0008640  58.4777930  56.5205180  52.3146380  57.8338850
  55.6474560  53.5255690  58.0854600  45.2971540  36.1227820  71.2445560
  45.0155810  36.6261420  70.4806380  45.6791240  35.3249570  70.8787690
  44.1880640  53.3903480  56.0313240  44.9199460  53.1062760  55.4837130
  44.4474310  53.1516760  56.9212620  43.3495430  49.5068210  56.0359570
  42.7204310  49.9753310  56.5845400  43.4643260  48.6617430  56.4705760
  51.8987000  35.5381400  71.8226030  51.7852450  35.8576010  72.7177550
  52.7156740  35.9393910  71.5263310  54.6785490  52.6852930  71.3044720
  55.4710810  52.1902160  71.0970680  54.9718640  53.3643070  71.9120330
  50.8045150  43.5573870  42.1860770  50.7239200  42.6428480  41.9152480
  50.3909570  44.0540940  41.4800480  48.9363190  45.3352890  44.0670040
  48.1605290  44.8553330  44.3568610  49.5876120  44.6558540  43.8926200
  42.9529020  45.6472700  44.9445800  42.1213900  45.3921410  45.3442310
  43.5610000  45.7183470  45.6803720  52.9570620  49.7413080  42.8469170
  52.4952150  48.9700320  43.1756340  53.7696170  49.7679150  43.3521620
  42.9330280  49.6812790  45.1403820  43.2358320  48.7910530  44.9614040
  43.6773870  50.2383010  44.9126070  41.3620970  40.6074590  38.7288190
  40.4737670  40.9490560  38.6268070  41.6462160  40.4074910  37.8369020
  39.3253980  43.2080240  44.6127890  39.8970090  42.4402440  44.6131530
  39.3255520  43.5069000  43.7034500  49.1833930  52.0271090  42.4673160
  48.5645370  52.4828590  41.8967600  50.0385710  52.1822550  42.0662860
  48.3772180  48.0110080  44.0740200  48.3080460  47.0700020  43.9129330
  49.1392040  48.1011490  44.6462770  40.5678850  38.6164600  46.3996820
  40.3881690  37.7190350  46.6799580  40.1658930  39.1636470  47.0743770
  49.4077350  40.8180460  44.3009130  49.7842170  39.9452340  44.1882800
  49.3096860  41.1539160  43.4099570  43.5382360  39.1906090  39.7626570
  43.6449110  40.0909820  40.0695330  42.6274720  39.1424060  39.4721220
  53.1901470  38.3130900  41.2337470  54.0111090  37.8227470  41.2762950
  53.2235550  38.9028560  41.9869310  41.1865520  41.1125100  45.0079160
  41.8675630  41.3763470  45.6266560  40.8713570  40.2725970  45.3417170
  45.3790090  42.1592460  44.0951750  45.8868310  42.6573430  44.7356770
  45.9103330  41.3827660  43.9191110  57.4801020  40.3297650  47.7981100
  56.7753190  40.7179360  47.2796210  57.7458940  41.0247940  48.4002030
  43.6626190  36.7991020  48.3615170  43.6644630  37.3163410  47.5561070
  42.8330500  36.3221200  48.3385100  50.0497280  46.9110330  39.8605070
  49.4314550  47.3759780  39.2967790  50.5620530  47.6037810  40.2774580
  44.9129040  46.4386200  46.5388670  44.5798420  47.0655120  47.1809740
  45.0895720  46.9648080  45.7590340  53.4262950  40.2531280  44.0065010
  52.7218520  40.5416170  44.5868120  53.7875110  41.0631390  43.6464570
  43.3441520  38.5100980  46.3685620  43.6858330  39.3543030  46.0739490
  42.4057330  38.6584720  46.4850960  44.1248140  48.4067000  48.3537850
  44.7422140  49.0818080  48.0722300  43.2641260  48.8154980  48.2625350
  39.4180480  47.5966860  37.2344700  39.0408460  48.0853960  36.5029600
  39.6753550  48.2692140  37.8651230  55.0425730  49.8706410  46.2692490
  54.3589250  50.5405520  46.2609160  55.5820020  50.0687060  45.5037350
  56.4949870  39.6986070  44.3974220  55.5474780  39.7325050  44.5289650
  56.8199860  40.5125020  44.7823580  47.0269410  35.9983250  42.6930210
  47.3344390  35.4430140  41.9765710  46.0970110  36.1327710  42.5103200
  52.5784470  51.7150540  44.9837670  52.5911630  51.3112830  44.1159930
  52.0259690  52.4897830  44.8799100  53.8729890  48.4366760  40.0727840
  53.7626220  47.4941090  40.1977260  53.8698140  48.7982400  40.9590600
  51.9769910  46.6180380  46.3120280  52.3938700  46.4040490  45.4773740
  52.7009730  46.8753170  46.8828900  49.4150170  44.0632080  39.4290330
  48.4879450  43.9969460  39.6578800  49.5674990  45.0012210  39.3145570
  49.4019250  40.3349080  36.4257490  48.4622920  40.4963040  36.5109950
  49.7202510  41.0534760  35.8793480  55.9232010  45.0167600  46.4036520
  55.0950640  45.0860690  45.9286650  56.5182490  45.6021910  45.9352350
  53.4447460  45.6252380  39.9325580  52.8259880  45.2871930  39.2851880
  53.4271910  44.9812140  40.6404770  52.8874020  41.8036920  47.3491390
  52.4745200  42.6290630  47.6031380  52.1549970  41.2181960  47.1567750
  45.0206810  44.5896820  42.2110060  44.6163810  43.8774070  41.7155960
  45.1069930  44.2450060  43.0998100  45.4888510  48.2764380  44.3749270
  45.1916800  47.6709850  43.6957050  46.4388330  48.3141690  44.2638630
  43.7335430  41.3640030  45.9909100  44.2850020  41.4735370  45.2162350
  44.2478940  41.7377630  46.7064330  53.5774120  51.8496250  48.0372370
  53.1004680  52.6568440  47.8444980  52.8935910  51.1974580  48.1898580
  44.5806940  48.0146070  51.0257070  43.6835470  48.2386040  51.2730470
  44.6059810  48.1381010  50.0768470  51.6212160  44.8639190  36.9398330
  52.0605440  44.0261620  36.7936150  52.3340580  45.4968590  37.0262470
  43.4078160  44.8859390  49.6014440  43.2685930  45.7582190  49.9701840
  42.5259520  44.5432200  49.4562380  49.7307540  49.8035260  40.9079570
  50.1703450  50.5459590  40.4934960  49.6694430  50.0461830  41.8318530
  45.2058510  50.8281090  51.8099590  45.1773940  51.2324040  50.9428020
  45.0423480  49.8991450  51.6471190  55.2029300  36.1182000  35.2539370
  54.8901960  36.2108830  36.1538440  55.9641770  36.6963030  35.2036800
  41.7211440  43.4841800  39.7116710  41.6009040  44.2103890  39.0997980
  41.4112330  42.7144710  39.2344620  57.1573330  51.6108190  53.1063760
  57.6333050  52.0891080  53.7852840  57.7780490  51.5425680  52.3809260
  39.3596810  46.6556940  45.5185350  39.4377230  46.7905710  44.5741070
  39.9738490  45.9472830  45.7113470  40.6044440  48.3557130  41.9291530
  40.1972520  48.4971720  41.0745130  41.4957450  48.0717290  41.7262740
  56.5606580  48.8021040  50.2663770  56.6869640  48.5632920  49.3480950
  56.6027960  47.9705580  50.7385850  50.4223320  52.5049040  48.8358580
  50.9367990  52.4157050  49.6381010  49.5792400  52.8508740  49.1286490
  52.3977720  52.7904380  38.2642580  52.2378860  52.5007320  39.1624410
  52.2324430  52.0144510  37.7287810  44.8766100  52.5702910  40.0414200
  44.7008580  51.6538450  39.8282000  44.0221840  52.9290200  40.2812000
  52.1003850  50.2991940  36.8240580  51.4069010  50.2969230  36.1642860
  52.8426710  49.8751260  36.3934750  51.6653780  51.9254650  40.8989070
  52.1210730  51.1444030  41.2127690  52.0046300  52.6361470  41.4430250
  56.4130590  40.8553500  51.2313510  55.7974860  41.3633170  50.7028970
  56.0927010  39.9551830  51.1739450  39.4156330  47.6971110  48.0579810
  39.5787370  47.2276470  47.2399180  39.8808780  47.1894670  48.7228650
  44.1875100  36.8276870  43.0940380  43.7443250  37.6086410  42.7624900
  44.7460090  37.1506760  43.8011320  48.4744910  39.6945390  48.6975700
  48.0124280  39.9028410  49.5095640  48.0723020  38.8804740  48.3946370
  53.4749420  40.9154340  49.8272360  52.6243010  40.6160090  50.1481430
  53.3151210  41.1596350  48.9156180  50.5699130  42.4156090  51.9271150
  50.8952540  41.5819840  51.5873380  51.3579460  42.9384610  52.0749480
  47.3033920  36.4487570  37.9746210  46.6788100  36.4447440  38.6999520
  47.2164040  35.5818530  37.5782180  46.2251000  37.3724200  44.9529980
  46.5223330  38.2787030  44.8722000  46.7736560  36.8842980  44.3389550
  43.9789320  41.9510440  40.8221630  43.7530240  41.7347610  41.7268250
  43.1981850  42.3838900  40.4767600  51.2087080  41.9573810  39.4212280
  50.6095970  42.6809610  39.2375900  51.7566690  41.8950590  38.6388730
  46.4188530  42.8496020  51.4881900  46.3232130  41.9090750  51.3382300
  47.2620510  43.0711090  51.0929970  49.8151950  40.5937350  41.4515560
  50.2081520  40.9109550  40.6384250  50.1768800  39.7149230  41.5660080
  48.1244120  39.3444660  52.7112420  47.4342440  39.1516860  53.3458510
  48.8676420  39.6279300  53.2436720  38.8516120  37.1838150  43.6745760
  38.5629170  37.7541010  44.3870740  39.5961880  36.7042600  44.0376990
  39.0386350  41.1258270  34.8848480  38.9561020  42.0689030  35.0263470
  38.6869410  40.9833180  34.0060830  50.4007090  43.1843100  45.5466340
  49.6688210  43.6929910  45.8956440  50.0031430  42.3673080  45.2455120
  46.8384480  39.8597300  43.9518830  46.8420540  39.4187250  43.1023370
  47.7335600  40.1814630  44.0590650  42.6886860  39.7423790  42.9113040
  42.3486910  40.2199020  43.6680090  41.9264180  39.2888910  42.5514140
  46.9004630  40.8609380  36.9425590  47.0217450  40.8195860  37.8911410
  46.5153140  41.7233530  36.7872320  50.8633000  38.6376780  44.9589280
  50.8805740  39.0885430  45.8031130  50.6148580  37.7382420  45.1722720
  45.9126130  43.1710520  36.3408890  45.3443030  42.7228770  35.7144800
  46.6215130  43.5303300  35.8074040  54.2903750  36.0508960  50.7975660
  54.6149520  35.3198620  51.3233640  54.3260260  35.7322600  49.8956650
  40.9895310  47.0722540  50.2175620  40.6050100  46.4316210  50.8158580
  41.3007500  47.7758660  50.7870350  47.1392450  43.9199080  45.6984240
  47.5062580  43.4457650  46.4445580  46.9497510  44.7940650  46.0392580
  40.0032940  38.6642770  41.8277710  39.7179860  38.2998440  42.6656330
  39.9411800  37.9323230  41.2140850  44.9291820  42.9607720  48.0168450
  44.6248890  43.8399700  48.2418810  45.8838280  43.0207510  48.0525890
  43.4573610  47.1668710  38.6135300  42.6835870  46.6266330  38.4534020
  44.1868240  46.6475320  38.2753060  54.2161590  46.1634070  44.4061690
  54.9360710  46.6589360  44.0157800  54.0143410  45.4851960  43.7615560
  49.6771530  37.5572030  38.5491080  48.8636140  37.0585200  38.4736390
  49.4833480  38.3970280  38.1327430  49.5980390  46.2343130  50.2930690
  49.5317700  45.3138800  50.0388280  48.9685530  46.3318570  51.0075330
  52.3919920  41.9291680  36.8453240  53.2799540  42.2408910  36.6704580
  52.3625010  41.0563930  36.4533820  43.5011010  46.8349090  42.2514110
  44.0189680  46.0317350  42.1971000  43.0495030  46.7728230  43.0930940
  48.3880510  48.1015370  37.5241410  48.7296210  48.8457600  37.0284730
  47.5593220  48.4146490  37.8866240  40.9855550  43.8010460  49.1639810
  40.6270490  44.4664310  49.7513150  40.6910110  42.9694010  49.5352430
  44.1868670  44.2594700  52.0479360  43.8868810  44.4051880  51.1507180
  44.9579910  43.6999990  51.9552750  49.5297120  49.0563700  50.0434490
  49.5441660  48.1244660  49.8253400  48.8222220  49.1423460  50.6824260
  54.6634190  43.2403520  36.3133100  54.5797910  43.6717740  35.4629540
  55.3828380  43.7001870  36.7459920  55.7408330  45.6971040  49.3903070
  55.0156520  46.2899820  49.1932460  56.2683790  45.6894580  48.5916440
  55.6921440  50.0945780  39.0415230  55.0497600  49.4401400  39.3158950
  55.3052100  50.5000870  38.2655900  51.2707920  47.4231210  42.8886920
  51.6231740  46.8259340  42.2288290  50.3870250  47.0975440  43.0595170
  47.3571200  48.1828900  40.2957330  48.0442330  48.7298110  40.6764920
  46.5703620  48.7269630  40.3306940  39.4963600  43.8001720  35.7874410
  40.3658450  44.0826520  36.0710330  39.0053920  44.6137590  35.6723220
  46.6598410  45.1874930  39.9082690  47.1161190  45.9980180  40.1342880
  46.3086620  44.8698070  40.7401180  48.9631020  50.6981270  47.1374990
  49.6073240  50.9040650  47.8148410  49.3260460  49.9369670  46.6845840
  42.5610190  35.5312580  40.3805210  42.4324820  35.5230480  41.3290130
  41.7372210  35.8695670  40.0296220  50.2363100  48.7013620  45.8552440
  50.8785330  48.0006780  45.9684610  50.7612450  49.4812060  45.6749330
  54.0818820  48.9862240  35.5791580  53.8556400  48.2692680  36.1716220
  53.6915020  48.7374680  34.7413330  52.0100720  49.5008520  49.0588500
  52.3456960  50.0875210  49.7366420  51.0901060  49.3701230  49.2886290
  39.8634850  53.0129100  36.3536040  40.2232490  53.6118440  35.6993310
  39.7227190  53.5588990  37.1271070  53.6635070  46.9034180  37.2405740
  53.3756770  47.3646870  38.0283620  54.4587240  46.4431950  37.5089960
  39.8476710  51.2783960  50.8278440  39.9567830  50.3378700  50.6873830
  39.1957270  51.5438710  50.1792170  47.8389300  49.5499850  52.2276560
  47.5186170  48.8309090  52.7722250  47.1647660  50.2254920  52.3012620
  45.8803470  50.3960300  37.1709710  45.8713570  51.1289990  36.5554220
  44.9601830  50.1491880  37.2636670  41.4810110  45.6175190  37.9156470
  40.8738060  46.3574090  37.9251770  41.9559460  45.7074550  37.0894670
  51.0542900  39.7826010  47.5913360  51.4223720  38.9621220  47.9192930
  50.1941100  39.8427900  48.0069010  54.4204930  38.7382950  38.4000920
  53.7918090  38.8428620  37.6859150  53.9256850  38.9579730  39.1894800
  48.8663070  50.4588540  35.8334900  48.9675050  50.2552530  34.9036880
  47.9664810  50.2046820  36.0382680  46.3888960  41.0168900  39.8158800
  45.6805110  41.4855240  40.2572410  46.6733440  40.3590910  40.4503990
  48.0144890  42.4365600  47.8151330  48.5130140  42.9111420  48.4803180
  48.1567840  41.5129120  48.0221360  50.4204390  37.7419560  41.2554590
  50.2972170  37.7605690  40.3064100  51.3688950  37.7898500  41.3752990
  47.5081180  52.9774860  40.5282570  47.7622680  52.9396250  39.6061940
  46.5593660  52.8508190  40.5210820  44.5923980  39.3253980  37.1909510
  45.4414510  39.7624130  37.1249700  44.2255250  39.6374240  38.0181570
  55.2211750  38.6533560  48.6579720  54.7185350  39.3938960  48.9973530
  56.0368410  39.0417560  48.3416510  53.5133760  43.8966740  42.1041080
  52.5723900  43.9116970  42.2788770  53.8277830  43.1102700  42.5501380
  43.4915400  45.5786340  35.6645040  44.2578670  45.4667700  36.2270470
  43.5690090  44.8824310  35.0121810  42.1862160  43.0111410  36.3477930
  42.2665750  42.0638920  36.4595330  43.0781910  43.3418290  36.4538590
  55.5159340  51.0675590  43.7795340  55.6406760  51.8906760  44.2519150
  56.3824900  50.8566320  43.4319490  42.9876870  53.1606800  43.4512470
  43.7239350  52.6122260  43.7221040  43.3717790  54.0262810  43.3118460
  39.8722350  49.2280370  39.3253980  38.9462130  49.4701510  39.3159390
  40.3378780  50.0554630  39.2038730  41.9935150  52.3452870  52.6398050
  42.7947880  52.6664920  53.0533450  41.4786970  51.9848450  53.3617960
  46.0979180  52.3337110  35.2738040  46.8907790  52.6225940  34.8219830
  45.5783530  51.9029280  34.5950520  50.8299780  48.4532740  52.5873460
  50.2237940  48.4764340  51.8469210  50.5253890  47.7215780  53.1240710
  52.2600150  52.1813030  51.1982870  53.2121900  52.0971050  51.1483110
  52.1128370  52.8454740  51.8716660  55.1509350  51.5607240  36.6974780
  54.8650860  51.1472380  35.8828960  54.9528900  52.4894950  36.5775300
  39.7132960  44.8326330  51.5834100  40.2171980  44.2533610  52.1550330
  38.9740380  45.1166560  52.1210470  46.6156580  47.5540520  35.1380390
  46.5107220  46.9392870  35.8641770  46.4480800  47.0306410  34.3543400
  46.7670900  46.2397320  51.1169620  46.0016570  46.8082320  51.0324290
  46.9486860  45.9473530  50.2237850  49.8559310  46.6160550  35.7422380
  49.3069410  47.0629850  36.3865120  50.4778570  46.1109800  36.2660050
  53.9094250  47.9702650  51.6744640  54.6503720  48.3078410  51.1712100
  53.1466930  48.1394710  51.1214410  41.7456040  42.9755920  52.4784170
  41.7861380  42.6769790  53.3869400  42.6001540  43.3763530  52.3191690
  45.5234430  45.5751470  37.6387680  45.9450850  45.4091340  38.4819070
  45.6485270  44.7651700  37.1442820  43.6861850  41.5548020  50.4458660
  43.1558310  41.0638970  49.8182000  44.3549920  41.9832220  49.9116590
  48.0362070  44.5989080  34.8864780  48.5567730  43.8838100  34.5205930
  48.6830470  45.2374950  35.1865290  52.5839910  46.0217480  50.2099850
  52.9980930  46.1762560  51.0590270  51.6490910  46.1472700  50.3725630
  53.0562080  43.3613640  52.2139000  53.6382850  42.6065960  52.1259480
  53.2323850  43.8921080  51.4370480  44.1734150  38.5210390  50.5255950
  44.0791020  37.9031140  49.8006820  43.5931540  39.2476680  50.2985860
  46.9395590  37.0783630  47.5583340  46.4912890  37.1007890  46.7128890
  46.3060790  36.6802650  48.1553640  47.3455140  45.9737960  48.1795780
  47.7643250  46.8170690  48.0072020  46.4263770  46.1110000  47.9502560
  49.6819040  43.7054140  49.5633620  49.8015250  43.1095280  50.3028460
  50.5413040  43.7423830  49.1434920  52.0206940  44.2591330  48.1396130
  51.4942160  44.7833950  47.5361270  52.3638280  44.8918720  48.7705860
  44.4193330  41.6484700  34.5845840  44.2182390  40.7852060  34.9459180
  44.2485380  41.5618060  33.6467440  45.1962560  52.2790970  49.2953510
  44.6583650  53.0037030  48.9762210  45.4496520  51.8021310  48.5050850
  46.4487810  40.2475490  50.8209440  47.0387500  39.9391340  51.5087260
  45.6308050  39.7755240  50.9769340  51.2681240  39.8641300  51.0542460
  50.5796760  39.2022840  50.9892450  51.9887260  39.4179570  51.4990920
  51.8981640  36.4592930  37.1132720  52.1783930  35.6160830  37.4692140
  51.1247370  36.6916040  37.6271470  43.2176130  38.7485320  34.5723720
  43.5202030  38.7552750  33.6642870  43.9570720  38.3983180  35.0691380
  48.0524770  53.5142180  49.5540160  47.9783470  54.4177320  49.8612530
  47.1503610  53.1954080  49.5262230  46.4361060  37.6919940  35.5579920
  46.0883060  37.0143930  34.9782370  46.6373830  37.2309450  36.3723310
  48.6010100  52.6800690  37.1766520  49.4960890  53.0185660  37.1985280
  48.6327730  51.9580100  36.5490800  42.2406260  48.0527740  35.4053520
  42.6781130  48.5957410  36.0611100  42.7253990  47.2274690  35.4149860
  39.4552060  50.8416770  42.8573780  39.7855070  49.9737830  42.6252420
  39.8843060  51.0475290  43.6878740  44.0513980  49.1725780  40.5175750
  43.7509520  49.0490750  41.4179660  43.9451470  48.3134370  40.1091480
  39.9442270  51.7087360  45.5955410  39.5073260  51.8888160  46.4279560
  40.5119950  52.4661980  45.4537130  55.5804450  51.2104360  49.8832720
  54.9806440  51.2696920  49.1396640  55.7098350  50.2709340  50.0129570
  56.8205900  48.9522180  35.2202430  55.9898860  49.0198830  35.6909660
  56.9977730  49.8426300  34.9169290  56.2762360  45.6969660  37.7236630
  57.0381270  46.2666310  37.8296320  56.2916730  45.1296860  38.4944940
  39.7766700  44.2207590  41.9544290  39.1215540  43.9519230  41.3103990
  40.6144650  44.1112070  41.5046270  57.2822330  46.5519760  42.5678560
  57.6531160  45.7687080  42.1614530  57.9224260  47.2408860  42.3895860
  54.2656090  47.9356340  47.9808880  53.4515930  48.3653500  48.2434670
  54.6730290  48.5474750  47.3677930  56.3281530  45.9904030  34.8809150
  56.6030370  46.8982910  34.7528370  56.1392270  45.9266560  35.8171140
  52.7257140  39.0148880  36.1762780  53.1442020  38.8279860  35.3359440
  52.4193200  38.1627930  36.4865710  56.2246870  43.9273020  39.8738580
  55.8490470  43.1600950  39.4419870  55.4949990  44.3095720  40.3613510
  40.8142630  44.6060160  46.4947630  41.1815670  44.5187560  47.3743650
  40.2453450  43.8426710  46.3954490  55.6146490  43.0744540  49.5078100
  55.3832580  42.8457290  48.6076050  55.8751040  43.9944090  49.4622990
  54.0534560  38.3000970  52.2857800  54.9304740  38.3084370  52.6691800
  54.0655400  37.5631810  51.6750150  38.9904780  41.4306520  37.8969620
  38.0868860  41.6936720  37.7221280  39.4745400  41.7017690  37.1169580
  55.4997830  42.1530510  43.1745820  56.0235310  41.6593160  42.5435990
  56.0857250  42.2880870  43.9193390  55.6787550  42.2370380  46.6965370
  54.7290260  42.2033920  46.8110360  55.8600560  43.1470490  46.4615140
  41.5331990  40.4872060  35.8064000  42.2423690  40.0655280  35.3211280
  40.8171930  40.5547290  35.1747350  41.1806150  36.5411390  34.8466650
  41.9034280  37.0820330  35.1647870  41.4530670  36.2674810  33.9708190
  54.9897800  41.4103860  39.1138230  55.4856920  41.1774730  39.8987110
  54.7913870  40.5715700  38.6975870  40.8698340  35.7917580  44.7489270
  41.5174530  35.2414960  44.3084430  41.2900180  36.0460730  45.5705080
  56.4184960  40.0464810  41.6475910  56.3084240  39.8920850  42.5858180
  57.1792550  39.5185750  41.4051320  54.7650680  35.9858940  48.1058910
  55.4022900  36.5993080  48.4718100  54.9125570  36.0219600  47.1608140
  57.3075230  37.8772730  34.8882050  58.2324540  37.7453910  34.6800340
  57.2851020  37.9565550  35.8418500  57.3813720  38.6483390  37.5138760
  56.5865220  38.5828510  38.0431670  57.5857000  39.5834030  37.5024110
  54.3232140  52.6874940  41.5077150  54.9191210  52.3659510  40.8311570
  54.5810290  52.2146760  42.2990420  40.6230340  35.9473250  47.4914590
  40.2745160  36.4037070  48.2572770  40.2918040  35.0530380  47.5737020
  42.2294710  49.1192850  51.6567780  42.1864340  48.7485760  52.5382240
  42.3605720  50.0570420  51.7969600  45.9300740  50.6752440  47.2577500
  45.6892100  50.9427000  46.3708020  46.8703380  50.8458170  47.3128360
  48.1355160  37.1385130  51.0134010  48.0744050  37.7306960  51.7629420
  49.0755540  37.0311090  50.8684270  50.7729720  36.7955190  50.6526300
  51.3870130  37.1134480  49.9907380  51.3179280  36.3103780  51.2722160
  57.1904900  52.6946820  48.0588140  56.6963180  53.0915690  47.3415270
  56.5818190  52.0696030  48.4525420  42.0682740  52.0655100  48.7765560
  41.4743060  51.9339800  49.5155600  42.0606580  51.2293240  48.3107660
  51.5137760  35.3587330  46.9795590  50.6397600  35.6922440  46.7768520
  51.4048510  34.8860510  47.8047460  52.4209740  37.5658200  48.3637310
  52.0923100  36.7509960  47.9839040  53.3692040  37.5228010  48.2403000
  54.8744350  53.3370240  45.3374880  54.4147320  54.0886050  44.9632900
  54.2456810  52.6176710  45.2789680  41.6994970  49.4313480  47.7273600
  40.9729030  48.8118770  47.6599550  41.7604120  49.8254090  46.8571680
  45.3040070  51.6458480  44.5123010  45.8205090  51.0345840  43.9871270
  45.9537450  52.1487260  45.0034020  48.0435570  52.5366970  45.3391990
  48.3313380  52.2821270  44.4625000  48.5558790  51.9844330  45.9297560
  49.2612580  36.2757170  45.9188500  48.4784370  36.7502670  46.1985260
  48.9675510  35.3712000  45.8101680  53.8133650  36.9780270  43.9637590
  54.2541740  36.9225370  43.1159190  53.5441240  37.8938280  44.0347770
  55.6772220  36.6095510  41.9746410  55.6160620  35.6656730  41.8277430
  56.4564250  36.7175600  42.5199870  39.9824970  52.7487870  40.9370360
  39.8147010  52.1158550  41.6352250  39.1159480  52.9547270  40.5864550
  40.6052990  36.5804650  38.4402220  41.3632350  36.6933530  37.8666250
  40.1430160  37.4173850  38.3945650  47.1466800  38.6943920  41.4304530
  46.3341310  38.3200810  41.0900410  47.6508440  37.9389000  41.7325720
  51.6491780  35.3586370  42.6687600  52.2521150  35.9306580  43.1436120
  50.9084770  35.9225810  42.4461500  54.7926380  35.7607930  37.9427880
  54.9877010  36.6591380  38.2095310  54.0056250  35.5295010  38.4360830
  41.5887670  51.4421100  38.3820500  41.0635290  51.8229130  37.6782460
  41.5132250  52.0671870  39.1030210  42.9778140  37.1068700  36.9804190
  43.5070900  36.3198500  36.8512140  43.6106460  37.7859890  37.2139720
  45.1715980  36.8443840  40.0349580  44.5418720  36.1431150  40.2019710
  44.6321120  37.6047970  39.8182740  48.1107930  53.4583070  52.7060190
  49.0375240  53.2227340  52.7496150  48.0958360  54.2855070  52.2246220
  56.3452990  53.0008640  39.7034440  56.5205180  52.3146380  39.0595360
  55.6474560  53.5255690  39.3111110  45.2971540  36.1227820  52.4702070
  45.0155810  36.6261420  51.7062890  45.6791240  35.3249570  52.1044200
  44.1880640  53.3903480  37.2569750  44.9199460  53.1062760  36.7093640
  44.4474310  53.1516760  38.1469130  43.3495430  49.5068210  37.2616080
  42.7204310  49.9753310  37.8101910  43.4643260  48.6617430  37.6962270
  51.8987000  35.5381400  53.0482540  51.7852450  35.8576010  53.9434060
  52.7156740  35.9393910  52.7519820  54.6785490  52.6852930  52.5301230
  55.4710810  52.1902160  52.3227190  54.9718640  53.3643070  53.1376840
  50.8045150  43.5573870  23.4117280  50.7239200  42.6428480  23.1408990
  50.3909570  44.0540940  22.7056990  48.9363190  45.3352890  25.2926550
  48.1605290  44.8553330  25.5825120  49.5876120  44.6558540  25.1182710
  42.9529020  45.6472700  26.1702310  42.1213900  45.3921410  26.5698820
  43.5610000  45.7183470  26.9060230  52.9570620  49.7413080  24.0725680
  52.4952150  48.9700320  24.4012850  53.7696170  49.7679150  24.5778130
  42.9330280  49.6812790  26.3660330  43.2358320  48.7910530  26.1870550
  43.6773870  50.2383010  26.1382580  41.3620970  40.6074590  19.9544700
  40.4737670  40.9490560  19.8524580  41.6462160  40.4074910  19.0625530
  39.3253980  43.2080240  25.8384400  39.8970090  42.4402440  25.8388040
  39.3255520  43.5069000  24.9291010  49.1833930  52.0271090  23.6929670
  48.5645370  52.4828590  23.1224110  50.0385710  52.1822550  23.2919370
  48.3772180  48.0110080  25.2996710  48.3080460  47.0700020  25.1385840
  49.1392040  48.1011490  25.8719280  40.5678850  38.6164600  27.6253330
  40.3881690  37.7190350  27.9056090  40.1658930  39.1636470  28.3000280
  49.4077350  40.8180460  25.5265640  49.7842170  39.9452340  25.4139310
  49.3096860  41.1539160  24.6356080  43.5382360  39.1906090  20.9883080
  43.6449110  40.0909820  21.2951840  42.6274720  39.1424060  20.6977730
  53.1901470  38.3130900  22.4593980  54.0111090  37.8227470  22.5019460
  53.2235550  38.9028560  23.2125820  41.1865520  41.1125100  26.2335670
  41.8675630  41.3763470  26.8523070  40.8713570  40.2725970  26.5673680
  45.3790090  42.1592460  25.3208260  45.8868310  42.6573430  25.9613280
  45.9103330  41.3827660  25.1447620  57.4801020  40.3297650  29.0237610
  56.7753190  40.7179360  28.5052720  57.7458940  41.0247940  29.6258540
  43.6626190  36.7991020  29.5871680  43.6644630  37.3163410  28.7817580
  42.8330500  36.3221200  29.5641610  50.0497280  46.9110330  21.0861580
  49.4314550  47.3759780  20.5224300  50.5620530  47.6037810  21.5031090
  44.9129040  46.4386200  27.7645180  44.5798420  47.0655120  28.4066250
  45.0895720  46.9648080  26.9846850  53.4262950  40.2531280  25.2321520
  52.7218520  40.5416170  25.8124630  53.7875110  41.0631390  24.8721080
  43.3441520  38.5100980  27.5942130  43.6858330  39.3543030  27.2996000
  42.4057330  38.6584720  27.7107470  44.1248140  48.4067000  29.5794360
  44.7422140  49.0818080  29.2978810  43.2641260  48.8154980  29.4881860
  39.4180480  47.5966860  18.4601210  39.0408460  48.0853960  17.7286110
  39.6753550  48.2692140  19.0907740  55.0425730  49.8706410  27.4949000
  54.3589250  50.5405520  27.4865670  55.5820020  50.0687060  26.7293860
  56.4949870  39.6986070  25.6230730  55.5474780  39.7325050  25.7546160
  56.8199860  40.5125020  26.0080090  47.0269410  35.9983250  23.9186720
  47.3344390  35.4430140  23.2022220  46.0970110  36.1327710  23.7359710
  52.5784470  51.7150540  26.2094180  52.5911630  51.3112830  25.3416440
  52.0259690  52.4897830  26.1055610  53.8729890  48.4366760  21.2984350
  53.7626220  47.4941090  21.4233770  53.8698140  48.7982400  22.1847110
  51.9769910  46.6180380  27.5376790  52.3938700  46.4040490  26.7030250
  52.7009730  46.8753170  28.1085410  49.4150170  44.0632080  20.6546840
  48.4879450  43.9969460  20.8835310  49.5674990  45.0012210  20.5402080
  49.4019250  40.3349080  17.6514000  48.4622920  40.4963040  17.7366460
  49.7202510  41.0534760  17.1049990  55.9232010  45.0167600  27.6293030
  55.0950640  45.0860690  27.1543160  56.5182490  45.6021910  27.1608860
  53.4447460  45.6252380  21.1582090  52.8259880  45.2871930  20.5108390
  53.4271910  44.9812140  21.8661280  52.8874020  41.8036920  28.5747900
  52.4745200  42.6290630  28.8287890  52.1549970  41.2181960  28.3824260
  45.0206810  44.5896820  23.4366570  44.6163810  43.8774070  22.9412470
  45.1069930  44.2450060  24.3254610  45.4888510  48.2764380  25.6005780
  45.1916800  47.6709850  24.9213560  46.4388330  48.3141690  25.4895140
  43.7335430  41.3640030  27.2165610  44.2850020  41.4735370  26.4418860
  44.2478940  41.7377630  27.9320840  53.5774120  51.8496250  29.2628880
  53.1004680  52.6568440  29.0701490  52.8935910  51.1974580  29.4155090
  44.5806940  48.0146070  32.2513580  43.6835470  48.2386040  32.4986980
  44.6059810  48.1381010  31.3024980  51.6212160  44.8639190  18.1654840
  52.0605440  44.0261620  18.0192660  52.3340580  45.4968590  18.2518980
  43.4078160  44.8859390  30.8270950  43.2685930  45.7582190  31.1958350
  42.5259520  44.5432200  30.6818890  49.7307540  49.8035260  22.1336080
  50.1703450  50.5459590  21.7191470  49.6694430  50.0461830  23.0575040
  45.2058510  50.8281090  33.0356100  45.1773940  51.2324040  32.1684530
  45.0423480  49.8991450  32.8727700  55.2029300  36.1182000  16.4795880
  54.8901960  36.2108830  17.3794950  55.9641770  36.6963030  16.4293310
  41.7211440  43.4841800  20.9373220  41.6009040  44.2103890  20.3254490
  41.4112330  42.7144710  20.4601130  57.1573330  51.6108190  34.3320270
  57.6333050  52.0891080  35.0109350  57.7780490  51.5425680  33.6065770
  39.3596810  46.6556940  26.7441860  39.4377230  46.7905710  25.7997580
  39.9738490  45.9472830  26.9369980  40.6044440  48.3557130  23.1548040
  40.1972520  48.4971720  22.3001640  41.4957450  48.0717290  22.9519250
  56.5606580  48.8021040  31.4920280  56.6869640  48.5632920  30.5737460
  56.6027960  47.9705580  31.9642360  50.4223320  52.5049040  30.0615090
  50.9367990  52.4157050  30.8637520  49.5792400  52.8508740  30.3543000
  52.3977720  52.7904380  19.4899090  52.2378860  52.5007320  20.3880920
  52.2324430  52.0144510  18.9544320  44.8766100  52.5702910  21.2670710
  44.7008580  51.6538450  21.0538510  44.0221840  52.9290200  21.5068510
  52.1003850  50.2991940  18.0497090  51.4069010  50.2969230  17.3899370
  52.8426710  49.8751260  17.6191260  51.6653780  51.9254650  22.1245580
  52.1210730  51.1444030  22.4384200  52.0046300  52.6361470  22.6686760
  56.4130590  40.8553500  32.4570020  55.7974860  41.3633170  31.9285480
  56.0927010  39.9551830  32.3995960  39.4156330  47.6971110  29.2836320
  39.5787370  47.2276470  28.4655690  39.8808780  47.1894670  29.9485160
  44.1875100  36.8276870  24.3196890  43.7443250  37.6086410  23.9881410
  44.7460090  37.1506760  25.0267830  48.4744910  39.6945390  29.9232210
  48.0124280  39.9028410  30.7352150  48.0723020  38.8804740  29.6202880
  53.4749420  40.9154340  31.0528870  52.6243010  40.6160090  31.3737940
  53.3151210  41.1596350  30.1412690  50.5699130  42.4156090  33.1527660
  50.8952540  41.5819840  32.8129890  51.3579460  42.9384610  33.3005990
  47.3033920  36.4487570  19.2002720  46.6788100  36.4447440  19.9256030
  47.2164040  35.5818530  18.8038690  46.2251000  37.3724200  26.1786490
  46.5223330  38.2787030  26.0978510  46.7736560  36.8842980  25.5646060
  43.9789320  41.9510440  22.0478140  43.7530240  41.7347610  22.9524760
  43.1981850  42.3838900  21.7024110  51.2087080  41.9573810  20.6468790
  50.6095970  42.6809610  20.4632410  51.7566690  41.8950590  19.8645240
  46.4188530  42.8496020  32.7138410  46.3232130  41.9090750  32.5638810
  47.2620510  43.0711090  32.3186480  49.8151950  40.5937350  22.6772070
  50.2081520  40.9109550  21.8640760  50.1768800  39.7149230  22.7916590
  41.5499070  39.2609690  30.8672190  41.1562460  40.1084900  31.0744970
  40.8617470  38.6236060  31.0580830  48.1244120  39.3444660  33.9368930
  47.4342440  39.1516860  34.5715020  48.8676420  39.6279300  34.4693230
  38.8516120  37.1838150  24.9002270  38.5629170  37.7541010  25.6127250
  39.5961880  36.7042600  25.2633500  39.0386350  41.1258270  16.1104990
  38.9561020  42.0689030  16.2519980  38.6869410  40.9833180  15.2317340
  50.4007090  43.1843100  26.7722850  49.6688210  43.6929910  27.1212950
  50.0031430  42.3673080  26.4711630  46.8384480  39.8597300  25.1775340
  46.8420540  39.4187250  24.3279880  47.7335600  40.1814630  25.2847160
  42.6886860  39.7423790  24.1369550  42.3486910  40.2199020  24.8936600
  41.9264180  39.2888910  23.7770650  46.9004630  40.8609380  18.1682100
  47.0217450  40.8195860  19.1167920  46.5153140  41.7233530  18.0128830
  50.8633000  38.6376780  26.1845790  50.8805740  39.0885430  27.0287640
  50.6148580  37.7382420  26.3979230  45.9126130  43.1710520  17.5665400
  45.3443030  42.7228770  16.9401310  46.6215130  43.5303300  17.0330550
  54.2903750  36.0508960  32.0232170  54.6149520  35.3198620  32.5490150
  54.3260260  35.7322600  31.1213160  40.9895310  47.0722540  31.4432130
  40.6050100  46.4316210  32.0415090  41.3007500  47.7758660  32.0126860
  47.1392450  43.9199080  26.9240750  47.5062580  43.4457650  27.6702090
  46.9497510  44.7940650  27.2649090  40.0032940  38.6642770  23.0534220
  39.7179860  38.2998440  23.8912840  39.9411800  37.9323230  22.4397360
  44.9291820  42.9607720  29.2424960  44.6248890  43.8399700  29.4675320
  45.8838280  43.0207510  29.2782400  43.4573610  47.1668710  19.8391810
  42.6835870  46.6266330  19.6790530  44.1868240  46.6475320  19.5009570
  54.2161590  46.1634070  25.6318200  54.9360710  46.6589360  25.2414310
  54.0143410  45.4851960  24.9872070  49.6771530  37.5572030  19.7747590
  48.8636140  37.0585200  19.6992900  49.4833480  38.3970280  19.3583940
  49.5980390  46.2343130  31.5187200  49.5317700  45.3138800  31.2644790
  48.9685530  46.3318570  32.2331840  52.3919920  41.9291680  18.0709750
  53.2799540  42.2408910  17.8961090  52.3625010  41.0563930  17.6790330
  43.5011010  46.8349090  23.4770620  44.0189680  46.0317350  23.4227510
  43.0495030  46.7728230  24.3187450  48.3880510  48.1015370  18.7497920
  48.7296210  48.8457600  18.2541240  47.5593220  48.4146490  19.1122750
  40.9855550  43.8010460  30.3896320  40.6270490  44.4664310  30.9769660
  40.6910110  42.9694010  30.7608940  44.1868670  44.2594700  33.2735870
  43.8868810  44.4051880  32.3763690  44.9579910  43.6999990  33.1809260
  49.5297120  49.0563700  31.2691000  49.5441660  48.1244660  31.0509910
  48.8222220  49.1423460  31.9080770  54.6634190  43.2403520  17.5389610
  54.5797910  43.6717740  16.6886050  55.3828380  43.7001870  17.9716430
  55.7408330  45.6971040  30.6159580  55.0156520  46.2899820  30.4188970
  56.2683790  45.6894580  29.8172950  55.6921440  50.0945780  20.2671740
  55.0497600  49.4401400  20.5415460  55.3052100  50.5000870  19.4912410
  51.2707920  47.4231210  24.1143430  51.6231740  46.8259340  23.4544800
  50.3870250  47.0975440  24.2851680  47.3571200  48.1828900  21.5213840
  48.0442330  48.7298110  21.9021430  46.5703620  48.7269630  21.5563450
  39.4963600  43.8001720  17.0130920  40.3658450  44.0826520  17.2966840
  39.0053920  44.6137590  16.8979730  46.6598410  45.1874930  21.1339200
  47.1161190  45.9980180  21.3599390  46.3086620  44.8698070  21.9657690
  48.9631020  50.6981270  28.3631500  49.6073240  50.9040650  29.0404920
  49.3260460  49.9369670  27.9102350  42.5610190  35.5312580  21.6061720
  42.4324820  35.5230480  22.5546640  41.7372210  35.8695670  21.2552730
  50.2363100  48.7013620  27.0808950  50.8785330  48.0006780  27.1941120
  50.7612450  49.4812060  26.9005840  54.0818820  48.9862240  16.8048090
  53.8556400  48.2692680  17.3972730  53.6915020  48.7374680  15.9669840
  52.0100720  49.5008520  30.2845010  52.3456960  50.0875210  30.9622930
  51.0901060  49.3701230  30.5142800  39.8634850  53.0129100  17.5792550
  40.2232490  53.6118440  16.9249820  39.7227190  53.5588990  18.3527580
  39.5604120  37.2903700  31.0668420  38.8462640  37.4900620  31.6721030
  39.9799160  36.5143270  31.4383220  53.6635070  46.9034180  18.4662250
  53.3756770  47.3646870  19.2540130  54.4587240  46.4431950  18.7346470
  39.8476710  51.2783960  32.0534950  39.9567830  50.3378700  31.9130340
  39.1957270  51.5438710  31.4048680  47.8389300  49.5499850  33.4533070
  47.5186170  48.8309090  33.9978760  47.1647660  50.2254920  33.5269130
  45.8803470  50.3960300  18.3966220  45.8713570  51.1289990  17.7810730
  44.9601830  50.1491880  18.4893180  41.4810110  45.6175190  19.1412980
  40.8738060  46.3574090  19.1508280  41.9559460  45.7074550  18.3151180
  51.0542900  39.7826010  28.8169870  51.4223720  38.9621220  29.1449440
  50.1941100  39.8427900  29.2325520  54.4204930  38.7382950  19.6257430
  53.7918090  38.8428620  18.9115660  53.9256850  38.9579730  20.4151310
  48.8663070  50.4588540  17.0591410  48.9675050  50.2552530  16.1293390
  47.9664810  50.2046820  17.2639190  46.3888960  41.0168900  21.0415310
  45.6805110  41.4855240  21.4828920  46.6733440  40.3590910  21.6760500
  48.0144890  42.4365600  29.0407840  48.5130140  42.9111420  29.7059690
  48.1567840  41.5129120  29.2477870  50.4204390  37.7419560  22.4811100
  50.2972170  37.7605690  21.5320610  51.3688950  37.7898500  22.6009500
  47.5081180  52.9774860  21.7539080  47.7622680  52.9396250  20.8318450
  46.5593660  52.8508190  21.7467330  44.5923980  39.3253980  18.4166020
  45.4414510  39.7624130  18.3506210  44.2255250  39.6374240  19.2438080
  55.2211750  38.6533560  29.8836230  54.7185350  39.3938960  30.2230040
  56.0368410  39.0417560  29.5673020  53.5133760  43.8966740  23.3297590
  52.5723900  43.9116970  23.5045280  53.8277830  43.1102700  23.7757890
  43.4915400  45.5786340  16.8901550  44.2578670  45.4667700  17.4526980
  43.5690090  44.8824310  16.2378320  42.1862160  43.0111410  17.5734440
  42.2665750  42.0638920  17.6851840  43.0781910  43.3418290  17.6795100
  55.5159340  51.0675590  25.0051850  55.6406760  51.8906760  25.4775660
  56.3824900  50.8566320  24.6576000  42.9876870  53.1606800  24.6768980
  43.7239350  52.6122260  24.9477550  43.3717790  54.0262810  24.5374970
  39.8722350  49.2280370  20.5510490  38.9462130  49.4701510  20.5415900
  40.3378780  50.0554630  20.4295240  41.9935150  52.3452870  33.8654560
  42.7947880  52.6664920  34.2789960  41.4786970  51.9848450  34.5874470
  46.0979180  52.3337110  16.4994550  46.8907790  52.6225940  16.0476340
  45.5783530  51.9029280  15.8207030  50.8299780  48.4532740  33.8129970
  50.2237940  48.4764340  33.0725720  50.5253890  47.7215780  34.3497220
  52.2600150  52.1813030  32.4239380  53.2121900  52.0971050  32.3739620
  52.1128370  52.8454740  33.0973170  55.1509350  51.5607240  17.9231290
  54.8650860  51.1472380  17.1085470  54.9528900  52.4894950  17.8031810
  39.7132960  44.8326330  32.8090610  40.2171980  44.2533610  33.3806840
  38.9740380  45.1166560  33.3466980  46.6156580  47.5540520  16.3636900
  46.5107220  46.9392870  17.0898280  46.4480800  47.0306410  15.5799910
  46.7670900  46.2397320  32.3426130  46.0016570  46.8082320  32.2580800
  46.9486860  45.9473530  31.4494360  49.8559310  46.6160550  16.9678890
  49.3069410  47.0629850  17.6121630  50.4778570  46.1109800  17.4916560
  53.9094250  47.9702650  32.9001150  54.6503720  48.3078410  32.3968610
  53.1466930  48.1394710  32.3470920  41.7456040  42.9755920  33.7040680
  41.7861380  42.6769790  34.6125910  42.6001540  43.3763530  33.5448200
  45.5234430  45.5751470  18.8644190  45.9450850  45.4091340  19.7075580
  45.6485270  44.7651700  18.3699330  43.6861850  41.5548020  31.6715170
  43.1558310  41.0638970  31.0438510  44.3549920  41.9832220  31.1373100
  48.0362070  44.5989080  16.1121290  48.5567730  43.8838100  15.7462440
  48.6830470  45.2374950  16.4121800  52.5839910  46.0217480  31.4356360
  52.9980930  46.1762560  32.2846780  51.6490910  46.1472700  31.5982140
  53.0562080  43.3613640  33.4395510  53.6382850  42.6065960  33.3515990
  53.2323850  43.8921080  32.6626990  44.1734150  38.5210390  31.7512460
  44.0791020  37.9031140  31.0263330  43.5931540  39.2476680  31.5242370
  46.9395590  37.0783630  28.7839850  46.4912890  37.1007890  27.9385400
  46.3060790  36.6802650  29.3810150  47.3455140  45.9737960  29.4052290
  47.7643250  46.8170690  29.2328530  46.4263770  46.1110000  29.1759070
  49.6819040  43.7054140  30.7890130  49.8015250  43.1095280  31.5284970
  50.5413040  43.7423830  30.3691430  52.0206940  44.2591330  29.3652640
  51.4942160  44.7833950  28.7617780  52.3638280  44.8918720  29.9962370
  44.4193330  41.6484700  15.8102350  44.2182390  40.7852060  16.1715690
  44.2485380  41.5618060  14.8723950  45.1962560  52.2790970  30.5210020
  44.6583650  53.0037030  30.2018720  45.4496520  51.8021310  29.7307360
  46.4487810  40.2475490  32.0465950  47.0387500  39.9391340  32.7343770
  45.6308050  39.7755240  32.2025850  51.2681240  39.8641300  32.2798970
  50.5796760  39.2022840  32.2148960  51.9887260  39.4179570  32.7247430
  51.8981640  36.4592930  18.3389230  52.1783930  35.6160830  18.6948650
  51.1247370  36.6916040  18.8527980  43.2176130  38.7485320  15.7980230
  43.5202030  38.7552750  14.8899380  43.9570720  38.3983180  16.2947890
  48.0524770  53.5142180  30.7796670  47.9783470  54.4177320  31.0869040
  47.1503610  53.1954080  30.7518740  46.4361060  37.6919940  16.7836430
  46.0883060  37.0143930  16.2038880  46.6373830  37.2309450  17.5979820
  48.6010100  52.6800690  18.4023030  49.4960890  53.0185660  18.4241790
  48.6327730  51.9580100  17.7747310  42.2406260  48.0527740  16.6310030
  42.6781130  48.5957410  17.2867610  42.7253990  47.2274690  16.6406370
  39.4552060  50.8416770  24.0830290  39.7855070  49.9737830  23.8508930
  39.8843060  51.0475290  24.9135250  44.0513980  49.1725780  21.7432260
  43.7509520  49.0490750  22.6436170  43.9451470  48.3134370  21.3347990
  39.9442270  51.7087360  26.8211920  39.5073260  51.8888160  27.6536070
  40.5119950  52.4661980  26.6793640  55.5804450  51.2104360  31.1089230
  54.9806440  51.2696920  30.3653150  55.7098350  50.2709340  31.2386080
  56.8205900  48.9522180  16.4458940  55.9898860  49.0198830  16.9166170
  56.9977730  49.8426300  16.1425800  56.2762360  45.6969660  18.9493140
  57.0381270  46.2666310  19.0552830  56.2916730  45.1296860  19.7201450
  39.7766700  44.2207590  23.1800800  39.1215540  43.9519230  22.5360500
  40.6144650  44.1112070  22.7302780  57.2822330  46.5519760  23.7935070
  57.6531160  45.7687080  23.3871040  57.9224260  47.2408860  23.6152370
  54.2656090  47.9356340  29.2065390  53.4515930  48.3653500  29.4691180
  54.6730290  48.5474750  28.5934440  56.3281530  45.9904030  16.1065660
  56.6030370  46.8982910  15.9784880  56.1392270  45.9266560  17.0427650
  52.7257140  39.0148880  17.4019290  53.1442020  38.8279860  16.5615950
  52.4193200  38.1627930  17.7122220  56.2246870  43.9273020  21.0995090
  55.8490470  43.1600950  20.6676380  55.4949990  44.3095720  21.5870020
  40.8142630  44.6060160  27.7204140  41.1815670  44.5187560  28.6000160
  40.2453450  43.8426710  27.6211000  55.6146490  43.0744540  30.7334610
  55.3832580  42.8457290  29.8332560  55.8751040  43.9944090  30.6879500
  40.3658630  41.5169250  31.6262560  39.4714680  41.4836010  31.9656270
  40.9056180  41.7156040  32.3913810  54.0534560  38.3000970  33.5114310
  54.9304740  38.3084370  33.8948310  54.0655400  37.5631810  32.9006660
  38.9904780  41.4306520  19.1226130  38.0868860  41.6936720  18.9477790
  39.4745400  41.7017690  18.3426090  55.4997830  42.1530510  24.4002330
  56.0235310  41.6593160  23.7692500  56.0857250  42.2880870  25.1449900
  55.6787550  42.2370380  27.9221880  54.7290260  42.2033920  28.0366870
  55.8600560  43.1470490  27.6871650  41.5331990  40.4872060  17.0320510
  42.2423690  40.0655280  16.5467790  40.8171930  40.5547290  16.4003860
  41.1806150  36.5411390  16.0723160  41.9034280  37.0820330  16.3904380
  41.4530670  36.2674810  15.1964700  54.9897800  41.4103860  20.3394740
  55.4856920  41.1774730  21.1243620  54.7913870  40.5715700  19.9232380
  40.8698340  35.7917580  25.9745780  41.5174530  35.2414960  25.5340940
  41.2900180  36.0460730  26.7961590  56.4184960  40.0464810  22.8732420
  56.3084240  39.8920850  23.8114690  57.1792550  39.5185750  22.6307830
  54.7650680  35.9858940  29.3315420  55.4022900  36.5993080  29.6974610
  54.9125570  36.0219600  28.3864650  57.3075230  37.8772730  16.1138560
  58.2324540  37.7453910  15.9056850  57.2851020  37.9565550  17.0675010
  57.3813720  38.6483390  18.7395270  56.5865220  38.5828510  19.2688180
  57.5857000  39.5834030  18.7280620  54.3232140  52.6874940  22.7333660
  54.9191210  52.3659510  22.0568080  54.5810290  52.2146760  23.5246930
  40.6230340  35.9473250  28.7171100  40.2745160  36.4037070  29.4829280
  40.2918040  35.0530380  28.7993530  42.2294710  49.1192850  32.8824290
  42.1864340  48.7485760  33.7638750  42.3605720  50.0570420  33.0226110
  45.9300740  50.6752440  28.4834010  45.6892100  50.9427000  27.5964530
  46.8703380  50.8458170  28.5384870  48.1355160  37.1385130  32.2390520
  48.0744050  37.7306960  32.9885930  49.0755540  37.0311090  32.0940780
  50.7729720  36.7955190  31.8782810  51.3870130  37.1134480  31.2163890
  51.3179280  36.3103780  32.4978670  57.1904900  52.6946820  29.2844650
  56.6963180  53.0915690  28.5671780  56.5818190  52.0696030  29.6781930
  41.2950980  35.4749450  31.9921870  41.8433970  35.2937500  31.2287980
  41.3606290  34.6843560  32.5278180  42.0682740  52.0655100  30.0022070
  41.4743060  51.9339800  30.7412110  42.0606580  51.2293240  29.5364170
  51.5137760  35.3587330  28.2052100  50.6397600  35.6922440  28.0025030
  51.4048510  34.8860510  29.0303970  52.4209740  37.5658200  29.5893820
  52.0923100  36.7509960  29.2095550  53.3692040  37.5228010  29.4659510
  54.8744350  53.3370240  26.5631390  54.4147320  54.0886050  26.1889410
  54.2456810  52.6176710  26.5046190  41.6994970  49.4313480  28.9530110
  40.9729030  48.8118770  28.8856060  41.7604120  49.8254090  28.0828190
  45.3040070  51.6458480  25.7379520  45.8205090  51.0345840  25.2127780
  45.9537450  52.1487260  26.2290530  48.0435570  52.5366970  26.5648500
  48.3313380  52.2821270  25.6881510  48.5558790  51.9844330  27.1554070
  49.2612580  36.2757170  27.1445010  48.4784370  36.7502670  27.4241770
  48.9675510  35.3712000  27.0358190  53.8133650  36.9780270  25.1894100
  54.2541740  36.9225370  24.3415700  53.5441240  37.8938280  25.2604280
  55.6772220  36.6095510  23.2002920  55.6160620  35.6656730  23.0533940
  56.4564250  36.7175600  23.7456380  39.9824970  52.7487870  22.1626870
  39.8147010  52.1158550  22.8608760  39.1159480  52.9547270  21.8121060
  40.6052990  36.5804650  19.6658730  41.3632350  36.6933530  19.0922760
  40.1430160  37.4173850  19.6202160  47.1466800  38.6943920  22.6561040
  46.3341310  38.3200810  22.3156920  47.6508440  37.9389000  22.9582230
  51.6491780  35.3586370  23.8944110  52.2521150  35.9306580  24.3692630
  50.9084770  35.9225810  23.6718010  54.7926380  35.7607930  19.1684390
  54.9877010  36.6591380  19.4351820  54.0056250  35.5295010  19.6617340
  41.5887670  51.4421100  19.6077010  41.0635290  51.8229130  18.9038970
  41.5132250  52.0671870  20.3286720  42.9778140  37.1068700  18.2060700
  43.5070900  36.3198500  18.0768650  43.6106460  37.7859890  18.4396230
  45.1715980  36.8443840  21.2606090  44.5418720  36.1431150  21.4276220
  44.6321120  37.6047970  21.0439250  48.1107930  53.4583070  33.9316700
  49.0375240  53.2227340  33.9752660  48.0958360  54.2855070  33.4502730
  56.3452990  53.0008640  20.9290950  56.5205180  52.3146380  20.2851870
  55.6474560  53.5255690  20.5367620  45.2971540  36.1227820  33.6958580
  45.0155810  36.6261420  32.9319400  45.6791240  35.3249570  33.3300710
  44.1880640  53.3903480  18.4826260  44.9199460  53.1062760  17.9350150
  44.4474310  53.1516760  19.3725640  43.3495430  49.5068210  18.4872590
  42.7204310  49.9753310  19.0358420  43.4643260  48.6617430  18.9218780
  51.8987000  35.5381400  34.2739050  51.7852450  35.8576010  35.1690570
  52.7156740  35.9393910  33.9776330  54.6785490  52.6852930  33.7557740
  55.4710810  52.1902160  33.5483700  54.9718640  53.3643070  34.3633350
  50.8045150  43.5573870   4.6373790  50.7239200  42.6428480   4.3665500
  50.3909570  44.0540940   3.9313500  48.9363190  45.3352890   6.5183060
  48.1605290  44.8553330   6.8081630  49.5876120  44.6558540   6.3439220
  42.9529020  45.6472700   7.3958820  42.1213900  45.3921410   7.7955330
  43.5610000  45.7183470   8.1316740  52.9570620  49.7413080   5.2982190
  52.4952150  48.9700320   5.6269360  53.7696170  49.7679150   5.8034640
  42.9330280  49.6812790   7.5916840  43.2358320  48.7910530   7.4127060
  43.6773870  50.2383010   7.3639090  39.3253980  43.2080240   7.0640910
  39.8970090  42.4402440   7.0644550  39.3255520  43.5069000   6.1547520
  49.1833930  52.0271090   4.9186180  48.5645370  52.4828590   4.3480620
  50.0385710  52.1822550   4.5175880  48.3772180  48.0110080   6.5253220
  48.3080460  47.0700020   6.3642350  49.1392040  48.1011490   7.0975790
  40.5678850  38.6164600   8.8509840  40.3881690  37.7190350   9.1312600
  40.1658930  39.1636470   9.5256790  49.4077350  40.8180460   6.7522150
  49.7842170  39.9452340   6.6395820  49.3096860  41.1539160   5.8612590
  43.5382360  39.1906090   2.2139590  43.6449110  40.0909820   2.5208350
  42.6274720  39.1424060   1.9234240  53.1901470  38.3130900   3.6850490
  54.0111090  37.8227470   3.7275970  53.2235550  38.9028560   4.4382330
  41.1865520  41.1125100   7.4592180  41.8675630  41.3763470   8.0779580
  40.8713570  40.2725970   7.7930190  45.3790090  42.1592460   6.5464770
  45.8868310  42.6573430   7.1869790  45.9103330  41.3827660   6.3704130
  57.4801020  40.3297650  10.2494120  56.7753190  40.7179360   9.7309230
  57.7458940  41.0247940  10.8515050  43.6626190  36.7991020  10.8128190
  43.6644630  37.3163410  10.0074090  42.8330500  36.3221200  10.7898120
  50.0497280  46.9110330   2.3118090  49.4314550  47.3759780   1.7480810
  50.5620530  47.6037810   2.7287600  44.9129040  46.4386200   8.9901690
  44.5798420  47.0655120   9.6322760  45.0895720  46.9648080   8.2103360
  53.4262950  40.2531280   6.4578030  52.7218520  40.5416170   7.0381140
  53.7875110  41.0631390   6.0977590  43.3441520  38.5100980   8.8198640
  43.6858330  39.3543030   8.5252510  42.4057330  38.6584720   8.9363980
  44.1248140  48.4067000  10.8050870  44.7422140  49.0818080  10.5235320
  43.2641260  48.8154980  10.7138370  55.0425730  49.8706410   8.7205510
  54.3589250  50.5405520   8.7122180  55.5820020  50.0687060   7.9550370
  56.4949870  39.6986070   6.8487240  55.5474780  39.7325050   6.9802670
  56.8199860  40.5125020   7.2336600  47.0269410  35.9983250   5.1443230
  47.3344390  35.4430140   4.4278730  46.0970110  36.1327710   4.9616220
  52.5784470  51.7150540   7.4350690  52.5911630  51.3112830   6.5672950
  52.0259690  52.4897830   7.3312120  53.8729890  48.4366760   2.5240860
  53.7626220  47.4941090   2.6490280  53.8698140  48.7982400   3.4103620
  51.9769910  46.6180380   8.7633300  52.3938700  46.4040490   7.9286760
  52.7009730  46.8753170   9.3341920  49.4150170  44.0632080   1.8803350
  48.4879450  43.9969460   2.1091820  49.5674990  45.0012210   1.7658590
  55.9232010  45.0167600   8.8549540  55.0950640  45.0860690   8.3799670
  56.5182490  45.6021910   8.3865370  53.4447460  45.6252380   2.3838600
  52.8259880  45.2871930   1.7364900  53.4271910  44.9812140   3.0917790
  52.8874020  41.8036920   9.8004410  52.4745200  42.6290630  10.0544400
  52.1549970  41.2181960   9.6080770  45.0206810  44.5896820   4.6623080
  44.6163810  43.8774070   4.1668980  45.1069930  44.2450060   5.5511120
  45.4888510  48.2764380   6.8262290  45.1916800  47.6709850   6.1470070
  46.4388330  48.3141690   6.7151650  43.7335430  41.3640030   8.4422120
  44.2850020  41.4735370   7.6675370  44.2478940  41.7377630   9.1577350
  53.5774120  51.8496250  10.4885390  53.1004680  52.6568440  10.2958000
  52.8935910  51.1974580  10.6411600  44.5806940  48.0146070  13.4770090
  43.6835470  48.2386040  13.7243490  44.6059810  48.1381010  12.5281490
  43.4078160  44.8859390  12.0527460  43.2685930  45.7582190  12.4214860
  42.5259520  44.5432200  11.9075400  49.7307540  49.8035260   3.3592590
  50.1703450  50.5459590   2.9447980  49.6694430  50.0461830   4.2831550
  45.2058510  50.8281090  14.2612610  45.1773940  51.2324040  13.3941040
  45.0423480  49.8991450  14.0984210  57.1573330  51.6108190  15.5576780
  57.6333050  52.0891080  16.2365860  57.7780490  51.5425680  14.8322280
  39.3596810  46.6556940   7.9698370  39.4377230  46.7905710   7.0254090
  39.9738490  45.9472830   8.1626490  40.6044440  48.3557130   4.3804550
  40.1972520  48.4971720   3.5258150  41.4957450  48.0717290   4.1775760
  56.5606580  48.8021040  12.7176790  56.6869640  48.5632920  11.7993970
  56.6027960  47.9705580  13.1898870  50.4223320  52.5049040  11.2871600
  50.9367990  52.4157050  12.0894030  49.5792400  52.8508740  11.5799510
  44.8766100  52.5702910   2.4927220  44.7008580  51.6538450   2.2795020
  44.0221840  52.9290200   2.7325020  51.6653780  51.9254650   3.3502090
  52.1210730  51.1444030   3.6640710  52.0046300  52.6361470   3.8943270
  56.4130590  40.8553500  13.6826530  55.7974860  41.3633170  13.1541990
  56.0927010  39.9551830  13.6252470  39.4156330  47.6971110  10.5092830
  39.5787370  47.2276470   9.6912200  39.8808780  47.1894670  11.1741670
  44.1875100  36.8276870   5.5453400  43.7443250  37.6086410   5.2137920
  44.7460090  37.1506760   6.2524340  48.4744910  39.6945390  11.1488720
  48.0124280  39.9028410  11.9608660  48.0723020  38.8804740  10.8459390
  53.4749420  40.9154340  12.2785380  52.6243010  40.6160090  12.5994450
  53.3151210  41.1596350  11.3669200  50.5699130  42.4156090  14.3784170
  50.8952540  41.5819840  14.0386400  51.3579460  42.9384610  14.5262500
  46.2251000  37.3724200   7.4043000  46.5223330  38.2787030   7.3235020
  46.7736560  36.8842980   6.7902570  43.9789320  41.9510440   3.2734650
  43.7530240  41.7347610   4.1781270  43.1981850  42.3838900   2.9280620
  46.4188530  42.8496020  13.9394920  46.3232130  41.9090750  13.7895320
  47.2620510  43.0711090  13.5442990  49.8151950  40.5937350   3.9028580
  50.2081520  40.9109550   3.0897270  50.1768800  39.7149230   4.0173100
  41.5499070  39.2609690  12.0928700  41.1562460  40.1084900  12.3001480
  40.8617470  38.6236060  12.2837340  48.1244120  39.3444660  15.1625440
  47.4342440  39.1516860  15.7971530  48.8676420  39.6279300  15.6949740
  38.8516120  37.1838150   6.1258780  38.5629170  37.7541010   6.8383760
  39.5961880  36.7042600   6.4890010  50.4007090  43.1843100   7.9979360
  49.6688210  43.6929910   8.3469460  50.0031430  42.3673080   7.6968140
  46.8384480  39.8597300   6.4031850  46.8420540  39.4187250   5.5536390
  47.7335600  40.1814630   6.5103670  42.6886860  39.7423790   5.3626060
  42.3486910  40.2199020   6.1193110  41.9264180  39.2888910   5.0027160
  50.8633000  38.6376780   7.4102300  50.8805740  39.0885430   8.2544150
  50.6148580  37.7382420   7.6235740  54.2903750  36.0508960  13.2488680
  54.6149520  35.3198620  13.7746660  54.3260260  35.7322600  12.3469670
  40.9895310  47.0722540  12.6688640  40.6050100  46.4316210  13.2671600
  41.3007500  47.7758660  13.2383370  47.1392450  43.9199080   8.1497260
  47.5062580  43.4457650   8.8958600  46.9497510  44.7940650   8.4905600
  40.0032940  38.6642770   4.2790730  39.7179860  38.2998440   5.1169350
  39.9411800  37.9323230   3.6653870  44.9291820  42.9607720  10.4681470
  44.6248890  43.8399700  10.6931830  45.8838280  43.0207510  10.5038910
  54.2161590  46.1634070   6.8574710  54.9360710  46.6589360   6.4670820
  54.0143410  45.4851960   6.2128580  49.5980390  46.2343130  12.7443710
  49.5317700  45.3138800  12.4901300  48.9685530  46.3318570  13.4588350
  43.5011010  46.8349090   4.7027130  44.0189680  46.0317350   4.6484020
  43.0495030  46.7728230   5.5443960  40.9855550  43.8010460  11.6152830
  40.6270490  44.4664310  12.2026170  40.6910110  42.9694010  11.9865450
  44.1868670  44.2594700  14.4992380  43.8868810  44.4051880  13.6020200
  44.9579910  43.6999990  14.4065770  49.5297120  49.0563700  12.4947510
  49.5441660  48.1244660  12.2766420  48.8222220  49.1423460  13.1337280
  55.7408330  45.6971040  11.8416090  55.0156520  46.2899820  11.6445480
  56.2683790  45.6894580  11.0429460  51.2707920  47.4231210   5.3399940
  51.6231740  46.8259340   4.6801310  50.3870250  47.0975440   5.5108190
  47.3571200  48.1828900   2.7470350  48.0442330  48.7298110   3.1277940
  46.5703620  48.7269630   2.7819960  46.6598410  45.1874930   2.3595710
  47.1161190  45.9980180   2.5855900  46.3086620  44.8698070   3.1914200
  48.9631020  50.6981270   9.5888010  49.6073240  50.9040650  10.2661430
  49.3260460  49.9369670   9.1358860  42.5610190  35.5312580   2.8318230
  42.4324820  35.5230480   3.7803150  41.7372210  35.8695670   2.4809240
  50.2363100  48.7013620   8.3065460  50.8785330  48.0006780   8.4197630
  50.7612450  49.4812060   8.1262350  52.0100720  49.5008520  11.5101520
  52.3456960  50.0875210  12.1879440  51.0901060  49.3701230  11.7399310
  39.5604120  37.2903700  12.2924930  38.8462640  37.4900620  12.8977540
  39.9799160  36.5143270  12.6639730  39.8476710  51.2783960  13.2791460
  39.9567830  50.3378700  13.1386850  39.1957270  51.5438710  12.6305190
  47.8389300  49.5499850  14.6789580  47.5186170  48.8309090  15.2235270
  47.1647660  50.2254920  14.7525640  51.0542900  39.7826010  10.0426380
  51.4223720  38.9621220  10.3705950  50.1941100  39.8427900  10.4582030
  46.3888960  41.0168900   2.2671820  45.6805110  41.4855240   2.7085430
  46.6733440  40.3590910   2.9017010  48.0144890  42.4365600  10.2664350
  48.5130140  42.9111420  10.9316200  48.1567840  41.5129120  10.4734380
  50.4204390  37.7419560   3.7067610  50.2972170  37.7605690   2.7577120
  51.3688950  37.7898500   3.8266010  47.5081180  52.9774860   2.9795590
  47.7622680  52.9396250   2.0574960  46.5593660  52.8508190   2.9723840
  55.2211750  38.6533560  11.1092740  54.7185350  39.3938960  11.4486550
  56.0368410  39.0417560  10.7929530  53.5133760  43.8966740   4.5554100
  52.5723900  43.9116970   4.7301790  53.8277830  43.1102700   5.0014400
  55.5159340  51.0675590   6.2308360  55.6406760  51.8906760   6.7032170
  56.3824900  50.8566320   5.8832510  42.9876870  53.1606800   5.9025490
  43.7239350  52.6122260   6.1734060  43.3717790  54.0262810   5.7631480
  39.8722350  49.2280370   1.7767000  38.9462130  49.4701510   1.7672410
  40.3378780  50.0554630   1.6551750  41.9935150  52.3452870  15.0911070
  42.7947880  52.6664920  15.5046470  41.4786970  51.9848450  15.8130980
  50.8299780  48.4532740  15.0386480  50.2237940  48.4764340  14.2982230
  50.5253890  47.7215780  15.5753730  52.2600150  52.1813030  13.6495890
  53.2121900  52.0971050  13.5996130  52.1128370  52.8454740  14.3229680
  39.7132960  44.8326330  14.0347120  40.2171980  44.2533610  14.6063350
  38.9740380  45.1166560  14.5723490  46.7670900  46.2397320  13.5682640
  46.0016570  46.8082320  13.4837310  46.9486860  45.9473530  12.6750870
  53.9094250  47.9702650  14.1257660  54.6503720  48.3078410  13.6225120
  53.1466930  48.1394710  13.5727430  41.7456040  42.9755920  14.9297190
  41.7861380  42.6769790  15.8382420  42.6001540  43.3763530  14.7704710
  43.6861850  41.5548020  12.8971680  43.1558310  41.0638970  12.2695020
  44.3549920  41.9832220  12.3629610  52.5839910  46.0217480  12.6612870
  52.9980930  46.1762560  13.5103290  51.6490910  46.1472700  12.8238650
  53.0562080  43.3613640  14.6652020  53.6382850  42.6065960  14.5772500
  53.2323850  43.8921080  13.8883500  44.1734150  38.5210390  12.9768970
  44.0791020  37.9031140  12.2519840  43.5931540  39.2476680  12.7498880
  46.9395590  37.0783630  10.0096360  46.4912890  37.1007890   9.1641910
  46.3060790  36.6802650  10.6066660  47.3455140  45.9737960  10.6308800
  47.7643250  46.8170690  10.4585040  46.4263770  46.1110000  10.4015580
  49.6819040  43.7054140  12.0146640  49.8015250  43.1095280  12.7541480
  50.5413040  43.7423830  11.5947940  52.0206940  44.2591330  10.5909150
  51.4942160  44.7833950   9.9874290  52.3638280  44.8918720  11.2218880
  45.1962560  52.2790970  11.7466530  44.6583650  53.0037030  11.4275230
  45.4496520  51.8021310  10.9563870  46.4487810  40.2475490  13.2722460
  47.0387500  39.9391340  13.9600280  45.6308050  39.7755240  13.4282360
  51.2681240  39.8641300  13.5055480  50.5796760  39.2022840  13.4405470
  51.9887260  39.4179570  13.9503940  48.0524770  53.5142180  12.0053180
  47.9783470  54.4177320  12.3125550  47.1503610  53.1954080  11.9775250
  39.4552060  50.8416770   5.3086800  39.7855070  49.9737830   5.0765440
  39.8843060  51.0475290   6.1391760  44.0513980  49.1725780   2.9688770
  43.7509520  49.0490750   3.8692680  43.9451470  48.3134370   2.5604500
  39.9442270  51.7087360   8.0468430  39.5073260  51.8888160   8.8792580
  40.5119950  52.4661980   7.9050150  55.5804450  51.2104360  12.3345740
  54.9806440  51.2696920  11.5909660  55.7098350  50.2709340  12.4642590
  39.7766700  44.2207590   4.4057310  39.1215540  43.9519230   3.7617010
  40.6144650  44.1112070   3.9559290  57.2822330  46.5519760   5.0191580
  57.6531160  45.7687080   4.6127550  57.9224260  47.2408860   4.8408880
  54.2656090  47.9356340  10.4321900  53.4515930  48.3653500  10.6947690
  54.6730290  48.5474750   9.8190950  56.2246870  43.9273020   2.3251600
  55.8490470  43.1600950   1.8932890  55.4949990  44.3095720   2.8126530
  40.8142630  44.6060160   8.9460650  41.1815670  44.5187560   9.8256670
  40.2453450  43.8426710   8.8467510  55.6146490  43.0744540  11.9591120
  55.3832580  42.8457290  11.0589070  55.8751040  43.9944090  11.9136010
  40.3658630  41.5169250  12.8519070  39.4714680  41.4836010  13.1912780
  40.9056180  41.7156040  13.6170320  54.0534560  38.3000970  14.7370820
  54.9304740  38.3084370  15.1204820  54.0655400  37.5631810  14.1263170
  55.4997830  42.1530510   5.6258840  56.0235310  41.6593160   4.9949010
  56.0857250  42.2880870   6.3706410  55.6787550  42.2370380   9.1478390
  54.7290260  42.2033920   9.2623380  55.8600560  43.1470490   8.9128160
  40.8698340  35.7917580   7.2002290  41.5174530  35.2414960   6.7597450
  41.2900180  36.0460730   8.0218100  56.4184960  40.0464810   4.0988930
  56.3084240  39.8920850   5.0371200  57.1792550  39.5185750   3.8564340
  54.7650680  35.9858940  10.5571930  55.4022900  36.5993080  10.9231120
  54.9125570  36.0219600   9.6121160  54.3232140  52.6874940   3.9590170
  54.9191210  52.3659510   3.2824590  54.5810290  52.2146760   4.7503440
  40.6230340  35.9473250   9.9427610  40.2745160  36.4037070  10.7085790
  40.2918040  35.0530380  10.0250040  42.2294710  49.1192850  14.1080800
  42.1864340  48.7485760  14.9895260  42.3605720  50.0570420  14.2482620
  45.9300740  50.6752440   9.7090520  45.6892100  50.9427000   8.8221040
  46.8703380  50.8458170   9.7641380  48.1355160  37.1385130  13.4647030
  48.0744050  37.7306960  14.2142440  49.0755540  37.0311090  13.3197290
  50.7729720  36.7955190  13.1039320  51.3870130  37.1134480  12.4420400
  51.3179280  36.3103780  13.7235180  57.1904900  52.6946820  10.5101160
  56.6963180  53.0915690   9.7928290  56.5818190  52.0696030  10.9038440
  41.2950980  35.4749450  13.2178380  41.8433970  35.2937500  12.4544490
  41.3606290  34.6843560  13.7534690  42.0682740  52.0655100  11.2278580
  41.4743060  51.9339800  11.9668620  42.0606580  51.2293240  10.7620680
  51.5137760  35.3587330   9.4308610  50.6397600  35.6922440   9.2281540
  51.4048510  34.8860510  10.2560480  52.4209740  37.5658200  10.8150330
  52.0923100  36.7509960  10.4352060  53.3692040  37.5228010  10.6916020
  54.8744350  53.3370240   7.7887900  54.4147320  54.0886050   7.4145920
  54.2456810  52.6176710   7.7302700  41.6994970  49.4313480  10.1786620
  40.9729030  48.8118770  10.1112570  41.7604120  49.8254090   9.3084700
  45.3040070  51.6458480   6.9636030  45.8205090  51.0345840   6.4384290
  45.9537450  52.1487260   7.4547040  48.0435570  52.5366970   7.7905010
  48.3313380  52.2821270   6.9138020  48.5558790  51.9844330   8.3810580
  49.2612580  36.2757170   8.3701520  48.4784370  36.7502670   8.6498280
  48.9675510  35.3712000   8.2614700  53.8133650  36.9780270   6.4150610
  54.2541740  36.9225370   5.5672210  53.5441240  37.8938280   6.4860790
  55.6772220  36.6095510   4.4259430  55.6160620  35.6656730   4.2790450
  56.4564250  36.7175600   4.9712890  39.9824970  52.7487870   3.3883380
  39.8147010  52.1158550   4.0865270  39.1159480  52.9547270   3.0377570
  47.1466800  38.6943920   3.8817550  46.3341310  38.3200810   3.5413430
  47.6508440  37.9389000   4.1838740  51.6491780  35.3586370   5.1200620
  52.2521150  35.9306580   5.5949140  50.9084770  35.9225810   4.8974520
  45.1715980  36.8443840   2.4862600  44.5418720  36.1431150   2.6532730
  44.6321120  37.6047970   2.2695760  48.1107930  53.4583070  15.1573210
  49.0375240  53.2227340  15.2009170  48.0958360  54.2855070  14.6759240
  45.2971540  36.1227820  14.9215090  45.0155810  36.6261420  14.1575910
  45.6791240  35.3249570  14.5557220  51.8987000  35.5381400  15.4995560
  51.7852450  35.8576010  16.3947080  52.7156740  35.9393910  15.2032840
  54.6785490  52.6852930  14.9814250  55.4710810  52.1902160  14.7740210
  54.9718640  53.3643070  15.5889860  50.8045150  24.7830380  79.7347750
  50.7239200  23.8684990  79.4639460  50.3909570  25.2797450  79.0287460
  48.9363190  26.5609400  81.6157020  48.1605290  26.0809840  81.9055590
  49.5876120  25.8815050  81.4413180  42.9529020  26.8729210  82.4932780
  42.1213900  26.6177920  82.8929290  43.5610000  26.9439980  83.2290700
  52.9570620  30.9669590  80.3956150  52.4952150  30.1956830  80.7243320
  53.7696170  30.9935660  80.9008600  42.9330280  30.9069300  82.6890800
  43.2358320  30.0167040  82.5101020  43.6773870  31.4639520  82.4613050
  41.3620970  21.8331100  76.2775170  40.4737670  22.1747070  76.1755050
  41.6462160  21.6331420  75.3856000  39.3253980  24.4336750  82.1614870
  39.8970090  23.6658950  82.1618510  39.3255520  24.7325510  81.2521480
  49.1833930  33.2527600  80.0160140  48.5645370  33.7085100  79.4454580
  50.0385710  33.4079060  79.6149840  48.3772180  29.2366590  81.6227180
  48.3080460  28.2956530  81.4616310  49.1392040  29.3268000  82.1949750
  40.5678850  19.8421110  83.9483800  40.3881690  18.9446860  84.2286560
  40.1658930  20.3892980  84.6230750  49.4077350  22.0436970  81.8496110
  49.7842170  21.1708850  81.7369780  49.3096860  22.3795670  80.9586550
  43.5382360  20.4162600  77.3113550  43.6449110  21.3166330  77.6182310
  42.6274720  20.3680570  77.0208200  53.1901470  19.5387410  78.7824450
  54.0111090  19.0483980  78.8249930  53.2235550  20.1285070  79.5356290
  41.1865520  22.3381610  82.5566140  41.8675630  22.6019980  83.1753540
  40.8713570  21.4982480  82.8904150  45.3790090  23.3848970  81.6438730
  45.8868310  23.8829940  82.2843750  45.9103330  22.6084170  81.4678090
  57.4801020  21.5554160  85.3468080  56.7753190  21.9435870  84.8283190
  57.7458940  22.2504450  85.9489010  43.6626190  18.0247530  85.9102150
  43.6644630  18.5419920  85.1048050  42.8330500  17.5477710  85.8872080
  50.0497280  28.1366840  77.4092050  49.4314550  28.6016290  76.8454770
  50.5620530  28.8294320  77.8261560  44.9129040  27.6642710  84.0875650
  44.5798420  28.2911630  84.7296720  45.0895720  28.1904590  83.3077320
  53.4262950  21.4787790  81.5551990  52.7218520  21.7672680  82.1355100
  53.7875110  22.2887900  81.1951550  43.3441520  19.7357490  83.9172600
  43.6858330  20.5799540  83.6226470  42.4057330  19.8841230  84.0337940
  44.1248140  29.6323510  85.9024830  44.7422140  30.3074590  85.6209280
  43.2641260  30.0411490  85.8112330  39.4180480  28.8223370  74.7831680
  39.0408460  29.3110470  74.0516580  39.6753550  29.4948650  75.4138210
  55.0425730  31.0962920  83.8179470  54.3589250  31.7662030  83.8096140
  55.5820020  31.2943570  83.0524330  56.4949870  20.9242580  81.9461200
  55.5474780  20.9581560  82.0776630  56.8199860  21.7381530  82.3310560
  47.0269410  17.2239760  80.2417190  47.3344390  16.6686650  79.5252690
  46.0970110  17.3584220  80.0590180  52.5784470  32.9407050  82.5324650
  52.5911630  32.5369340  81.6646910  52.0259690  33.7154340  82.4286080
  53.8729890  29.6623270  77.6214820  53.7626220  28.7197600  77.7464240
  53.8698140  30.0238910  78.5077580  51.9769910  27.8436890  83.8607260
  52.3938700  27.6297000  83.0260720  52.7009730  28.1009680  84.4315880
  49.4150170  25.2888590  76.9777310  48.4879450  25.2225970  77.2065780
  49.5674990  26.2268720  76.8632550  49.4019250  21.5605590  73.9744470
  48.4622920  21.7219550  74.0596930  49.7202510  22.2791270  73.4280460
  55.9232010  26.2424110  83.9523500  55.0950640  26.3117200  83.4773630
  56.5182490  26.8278420  83.4839330  53.4447460  26.8508890  77.4812560
  52.8259880  26.5128440  76.8338860  53.4271910  26.2068650  78.1891750
  52.8874020  23.0293430  84.8978370  52.4745200  23.8547140  85.1518360
  52.1549970  22.4438470  84.7054730  45.0206810  25.8153330  79.7597040
  44.6163810  25.1030580  79.2642940  45.1069930  25.4706570  80.6485080
  45.4888510  29.5020890  81.9236250  45.1916800  28.8966360  81.2444030
  46.4388330  29.5398200  81.8125610  43.7335430  22.5896540  83.5396080
  44.2850020  22.6991880  82.7649330  44.2478940  22.9634140  84.2551310
  53.5774120  33.0752760  85.5859350  53.1004680  33.8824950  85.3931960
  52.8935910  32.4231090  85.7385560  51.6212160  26.0895700  74.4885310
  52.0605440  25.2518130  74.3423130  52.3340580  26.7225100  74.5749450
  49.7307540  31.0291770  78.4566550  50.1703450  31.7716100  78.0421940
  49.6694430  31.2718340  79.3805510  55.2029300  17.3438510  72.8026350
  54.8901960  17.4365340  73.7025420  55.9641770  17.9219540  72.7523780
  41.7211440  24.7098310  77.2603690  41.6009040  25.4360400  76.6484960
  41.4112330  23.9401220  76.7831600  39.3596810  27.8813450  83.0672330
  39.4377230  28.0162220  82.1228050  39.9738490  27.1729340  83.2600450
  40.6044440  29.5813640  79.4778510  40.1972520  29.7228230  78.6232110
  41.4957450  29.2973800  79.2749720  52.3977720  34.0160890  75.8129560
  52.2378860  33.7263830  76.7111390  52.2324430  33.2401020  75.2774790
  44.8766100  33.7959420  77.5901180  44.7008580  32.8794960  77.3768980
  44.0221840  34.1546710  77.8298980  52.1003850  31.5248450  74.3727560
  51.4069010  31.5225740  73.7129840  52.8426710  31.1007770  73.9421730
  51.6653780  33.1511160  78.4476050  52.1210730  32.3700540  78.7614670
  52.0046300  33.8617980  78.9917230  44.1875100  18.0533380  80.6427360
  43.7443250  18.8342920  80.3111880  44.7460090  18.3763270  81.3498300
  47.3033920  17.6744080  75.5233190  46.6788100  17.6703950  76.2486500
  47.2164040  16.8075040  75.1269160  46.2251000  18.5980710  82.5016960
  46.5223330  19.5043540  82.4208980  46.7736560  18.1099490  81.8876530
  43.9789320  23.1766950  78.3708610  43.7530240  22.9604120  79.2755230
  43.1981850  23.6095410  78.0254580  51.2087080  23.1830320  76.9699260
  50.6095970  23.9066120  76.7862880  51.7566690  23.1207100  76.1875710
  49.8151950  21.8193860  79.0002540  50.2081520  22.1366060  78.1871230
  50.1768800  20.9405740  79.1147060  38.8516120  18.4094660  81.2232740
  38.5629170  18.9797520  81.9357720  39.5961880  17.9299110  81.5863970
  39.0386350  22.3514780  72.4335460  38.9561020  23.2945540  72.5750450
  38.6869410  22.2089690  71.5547810  50.4007090  24.4099610  83.0953320
  49.6688210  24.9186420  83.4443420  50.0031430  23.5929590  82.7942100
  46.8384480  21.0853810  81.5005810  46.8420540  20.6443760  80.6510350
  47.7335600  21.4071140  81.6077630  42.6886860  20.9680300  80.4600020
  42.3486910  21.4455530  81.2167070  41.9264180  20.5145420  80.1001120
  46.9004630  22.0865890  74.4912570  47.0217450  22.0452370  75.4398390
  46.5153140  22.9490040  74.3359300  50.8633000  19.8633290  82.5076260
  50.8805740  20.3141940  83.3518110  50.6148580  18.9638930  82.7209700
  45.9126130  24.3967030  73.8895870  45.3443030  23.9485280  73.2631780
  46.6215130  24.7559810  73.3561020  47.1392450  25.1455590  83.2471220
  47.5062580  24.6714160  83.9932560  46.9497510  26.0197160  83.5879560
  40.0032940  19.8899280  79.3764690  39.7179860  19.5254950  80.2143310
  39.9411800  19.1579740  78.7627830  44.9291820  24.1864230  85.5655430
  44.6248890  25.0656210  85.7905790  45.8838280  24.2464020  85.6012870
  43.4573610  28.3925220  76.1622280  42.6835870  27.8522840  76.0021000
  44.1868240  27.8731830  75.8240040  54.2161590  27.3890580  81.9548670
  54.9360710  27.8845870  81.5644780  54.0143410  26.7108470  81.3102540
  49.6771530  18.7828540  76.0978060  48.8636140  18.2841710  76.0223370
  49.4833480  19.6226790  75.6814410  52.3919920  23.1548190  74.3940220
  53.2799540  23.4665420  74.2191560  52.3625010  22.2820440  74.0020800
  43.5011010  28.0605600  79.8001090  44.0189680  27.2573860  79.7457980
  43.0495030  27.9984740  80.6417920  48.3880510  29.3271880  75.0728390
  48.7296210  30.0714110  74.5771710  47.5593220  29.6403000  75.4353220
  54.6634190  24.4660030  73.8620080  54.5797910  24.8974250  73.0116520
  55.3828380  24.9258380  74.2946900  55.6921440  31.3202290  76.5902210
  55.0497600  30.6657910  76.8645930  55.3052100  31.7257380  75.8142880
  51.2707920  28.6487720  80.4373900  51.6231740  28.0515850  79.7775270
  50.3870250  28.3231950  80.6082150  47.3571200  29.4085410  77.8444310
  48.0442330  29.9554620  78.2251900  46.5703620  29.9526140  77.8793920
  39.4963600  25.0258230  73.3361390  40.3658450  25.3083030  73.6197310
  39.0053920  25.8394100  73.2210200  46.6598410  26.4131440  77.4569670
  47.1161190  27.2236690  77.6829860  46.3086620  26.0954580  78.2888160
  48.9631020  31.9237780  84.6861970  49.6073240  32.1297160  85.3635390
  49.3260460  31.1626180  84.2332820  42.5610190  16.7569090  77.9292190
  42.4324820  16.7486990  78.8777110  41.7372210  17.0952180  77.5783200
  50.2363100  29.9270130  83.4039420  50.8785330  29.2263290  83.5171590
  50.7612450  30.7068570  83.2236310  54.0818820  30.2118750  73.1278560
  53.8556400  29.4949190  73.7203200  53.6915020  29.9631190  72.2900310
  39.8634850  34.2385610  73.9023020  40.2232490  34.8374950  73.2480290
  39.7227190  34.7845500  74.6758050  53.6635070  28.1290690  74.7892720
  53.3756770  28.5903380  75.5770600  54.4587240  27.6688460  75.0576940
  45.8803470  31.6216810  74.7196690  45.8713570  32.3546500  74.1041200
  44.9601830  31.3748390  74.8123650  41.4810110  26.8431700  75.4643450
  40.8738060  27.5830600  75.4738750  41.9559460  26.9331060  74.6381650
  51.0542900  21.0082520  85.1400340  51.4223720  20.1877730  85.4679910
  50.1941100  21.0684410  85.5555990  54.4204930  19.9639460  75.9487900
  53.7918090  20.0685130  75.2346130  53.9256850  20.1836240  76.7381780
  48.8663070  31.6845050  73.3821880  48.9675050  31.4809040  72.4523860
  47.9664810  31.4303330  73.5869660  46.3888960  22.2425410  77.3645780
  45.6805110  22.7111750  77.8059390  46.6733440  21.5847420  77.9990970
  50.4204390  18.9676070  78.8041570  50.2972170  18.9862200  77.8551080
  51.3688950  19.0155010  78.9239970  47.5081180  34.2031370  78.0769550
  47.7622680  34.1652760  77.1548920  46.5593660  34.0764700  78.0697800
  44.5923980  20.5510490  74.7396490  45.4414510  20.9880640  74.6736680
  44.2255250  20.8630750  75.5668550  53.5133760  25.1223250  79.6528060
  52.5723900  25.1373480  79.8275750  53.8277830  24.3359210  80.0988360
  43.4915400  26.8042850  73.2132020  44.2578670  26.6924210  73.7757450
  43.5690090  26.1080820  72.5608790  42.1862160  24.2367920  73.8964910
  42.2665750  23.2895430  74.0082310  43.0781910  24.5674800  74.0025570
  55.5159340  32.2932100  81.3282320  55.6406760  33.1163270  81.8006130
  56.3824900  32.0822830  80.9806470  42.9876870  34.3863310  80.9999450
  43.7239350  33.8378770  81.2708020  43.3717790  35.2519320  80.8605440
  39.8722350  30.4536880  76.8740960  38.9462130  30.6958020  76.8646370
  40.3378780  31.2811140  76.7525710  46.0979180  33.5593620  72.8225020
  46.8907790  33.8482450  72.3706810  45.5783530  33.1285790  72.1437500
  55.1509350  32.7863750  74.2461760  54.8650860  32.3728890  73.4315940
  54.9528900  33.7151460  74.1262280  46.6156580  28.7797030  72.6867370
  46.5107220  28.1649380  73.4128750  46.4480800  28.2562920  71.9030380
  49.8559310  27.8417060  73.2909360  49.3069410  28.2886360  73.9352100
  50.4778570  27.3366310  73.8147030  45.5234430  26.8007980  75.1874660
  45.9450850  26.6347850  76.0306050  45.6485270  25.9908210  74.6929800
  48.0362070  25.8245590  72.4351760  48.5567730  25.1094610  72.0692910
  48.6830470  26.4631460  72.7352270  46.9395590  18.3040140  85.1070320
  46.4912890  18.3264400  84.2615870  46.3060790  17.9059160  85.7040620
  47.3455140  27.1994470  85.7282760  47.7643250  28.0427200  85.5559000
  46.4263770  27.3366510  85.4989540  44.4193330  22.8741210  72.1332820
  44.2182390  22.0108570  72.4946160  44.2485380  22.7874570  71.1954420
  51.8981640  17.6849440  74.6619700  52.1783930  16.8417340  75.0179120
  51.1247370  17.9172550  75.1758450  43.2176130  19.9741830  72.1210700
  43.5202030  19.9809260  71.2129850  43.9570720  19.6239690  72.6178360
  46.4361060  18.9176450  73.1066900  46.0883060  18.2400440  72.5269350
  46.6373830  18.4565960  73.9210290  48.6010100  33.9057200  74.7253500
  49.4960890  34.2442170  74.7472260  48.6327730  33.1836610  74.0977780
  42.2406260  29.2784250  72.9540500  42.6781130  29.8213920  73.6098080
  42.7253990  28.4531200  72.9636840  39.4552060  32.0673280  80.4060760
  39.7855070  31.1994340  80.1739400  39.8843060  32.2731800  81.2365720
  44.0513980  30.3982290  78.0662730  43.7509520  30.2747260  78.9666640
  43.9451470  29.5390880  77.6578460  39.9442270  32.9343870  83.1442390
  39.5073260  33.1144670  83.9766540  40.5119950  33.6918490  83.0024110
  56.8205900  30.1778690  72.7689410  55.9898860  30.2455340  73.2396640
  56.9977730  31.0682810  72.4656270  56.2762360  26.9226170  75.2723610
  57.0381270  27.4922820  75.3783300  56.2916730  26.3553370  76.0431920
  39.7766700  25.4464100  79.5031270  39.1215540  25.1775740  78.8590970
  40.6144650  25.3368580  79.0533250  57.2822330  27.7776270  80.1165540
  57.6531160  26.9943590  79.7101510  57.9224260  28.4665370  79.9382840
  54.2656090  29.1612850  85.5295860  53.4515930  29.5910010  85.7921650
  54.6730290  29.7731260  84.9164910  56.3281530  27.2160540  72.4296130
  56.6030370  28.1239420  72.3015350  56.1392270  27.1523070  73.3658120
  52.7257140  20.2405390  73.7249760  53.1442020  20.0536370  72.8846420
  52.4193200  19.3884440  74.0352690  56.2246870  25.1529530  77.4225560
  55.8490470  24.3857460  76.9906850  55.4949990  25.5352230  77.9100490
  40.8142630  25.8316670  84.0434610  41.1815670  25.7444070  84.9230630
  40.2453450  25.0683220  83.9441470  38.9904780  22.6563030  75.4456600
  38.0868860  22.9193230  75.2708260  39.4745400  22.9274200  74.6656560
  55.4997830  23.3787020  80.7232800  56.0235310  22.8849670  80.0922970
  56.0857250  23.5137380  81.4680370  55.6787550  23.4626890  84.2452350
  54.7290260  23.4290430  84.3597340  55.8600560  24.3727000  84.0102120
  41.5331990  21.7128570  73.3550980  42.2423690  21.2911790  72.8698260
  40.8171930  21.7803800  72.7234330  41.1806150  17.7667900  72.3953630
  41.9034280  18.3076840  72.7134850  41.4530670  17.4931320  71.5195170
  54.9897800  22.6360370  76.6625210  55.4856920  22.4031240  77.4474090
  54.7913870  21.7972210  76.2462850  40.8698340  17.0174090  82.2976250
  41.5174530  16.4671470  81.8571410  41.2900180  17.2717240  83.1192060
  56.4184960  21.2721320  79.1962890  56.3084240  21.1177360  80.1345160
  57.1792550  20.7442260  78.9538300  57.3075230  19.1029240  72.4369030
  58.2324540  18.9710420  72.2287320  57.2851020  19.1822060  73.3905480
  57.3813720  19.8739900  75.0625740  56.5865220  19.8085020  75.5918650
  57.5857000  20.8090540  75.0511090  54.3232140  33.9131450  79.0564130
  54.9191210  33.5916020  78.3798550  54.5810290  33.4403270  79.8477400
  40.6230340  17.1729760  85.0401570  40.2745160  17.6293580  85.8059750
  40.2918040  16.2786890  85.1224000  45.9300740  31.9008950  84.8064480
  45.6892100  32.1683510  83.9195000  46.8703380  32.0714680  84.8615340
  51.5137760  16.5843840  84.5282570  50.6397600  16.9178950  84.3255500
  51.4048510  16.1117020  85.3534440  52.4209740  18.7914710  85.9124290
  52.0923100  17.9766470  85.5326020  53.3692040  18.7484520  85.7889980
  54.8744350  34.5626750  82.8861860  54.4147320  35.3142560  82.5119880
  54.2456810  33.8433220  82.8276660  41.6994970  30.6569990  85.2760580
  40.9729030  30.0375280  85.2086530  41.7604120  31.0510600  84.4058660
  45.3040070  32.8714990  82.0609990  45.8205090  32.2602350  81.5358250
  45.9537450  33.3743770  82.5521000  48.0435570  33.7623480  82.8878970
  48.3313380  33.5077780  82.0111980  48.5558790  33.2100840  83.4784540
  49.2612580  17.5013680  83.4675480  48.4784370  17.9759180  83.7472240
  48.9675510  16.5968510  83.3588660  53.8133650  18.2036780  81.5124570
  54.2541740  18.1481880  80.6646170  53.5441240  19.1194790  81.5834750
  55.6772220  17.8352020  79.5233390  55.6160620  16.8913240  79.3764410
  56.4564250  17.9432110  80.0686850  39.9824970  33.9744380  78.4857340
  39.8147010  33.3415060  79.1839230  39.1159480  34.1803780  78.1351530
  40.6052990  17.8061160  75.9889200  41.3632350  17.9190040  75.4153230
  40.1430160  18.6430360  75.9432630  47.1466800  19.9200430  78.9791510
  46.3341310  19.5457320  78.6387390  47.6508440  19.1645510  79.2812700
  51.6491780  16.5842880  80.2174580  52.2521150  17.1563090  80.6923100
  50.9084770  17.1482320  79.9948480  54.7926380  16.9864440  75.4914860
  54.9877010  17.8847890  75.7582290  54.0056250  16.7551520  75.9847810
  41.5887670  32.6677610  75.9307480  41.0635290  33.0485640  75.2269440
  41.5132250  33.2928380  76.6517190  42.9778140  18.3325210  74.5291170
  43.5070900  17.5455010  74.3999120  43.6106460  19.0116400  74.7626700
  45.1715980  18.0700350  77.5836560  44.5418720  17.3687660  77.7506690
  44.6321120  18.8304480  77.3669720  56.3452990  34.2265150  77.2521420
  56.5205180  33.5402890  76.6082340  55.6474560  34.7512200  76.8598090
  44.1880640  34.6159990  74.8056730  44.9199460  34.3319270  74.2580620
  44.4474310  34.3773270  75.6956110  43.3495430  30.7324720  74.8103060
  42.7204310  31.2009820  75.3588890  43.4643260  29.8873940  75.2449250
  50.8045150  24.7830380  60.9604260  50.7239200  23.8684990  60.6895970
  50.3909570  25.2797450  60.2543970  48.9363190  26.5609400  62.8413530
  48.1605290  26.0809840  63.1312100  49.5876120  25.8815050  62.6669690
  42.9529020  26.8729210  63.7189290  42.1213900  26.6177920  64.1185800
  43.5610000  26.9439980  64.4547210  52.9570620  30.9669590  61.6212660
  52.4952150  30.1956830  61.9499830  53.7696170  30.9935660  62.1265110
  42.9330280  30.9069300  63.9147310  43.2358320  30.0167040  63.7357530
  43.6773870  31.4639520  63.6869560  41.3620970  21.8331100  57.5031680
  40.4737670  22.1747070  57.4011560  41.6462160  21.6331420  56.6112510
  39.3253980  24.4336750  63.3871380  39.8970090  23.6658950  63.3875020
  39.3255520  24.7325510  62.4777990  49.1833930  33.2527600  61.2416650
  48.5645370  33.7085100  60.6711090  50.0385710  33.4079060  60.8406350
  48.3772180  29.2366590  62.8483690  48.3080460  28.2956530  62.6872820
  49.1392040  29.3268000  63.4206260  40.5678850  19.8421110  65.1740310
  40.3881690  18.9446860  65.4543070  40.1658930  20.3892980  65.8487260
  49.4077350  22.0436970  63.0752620  49.7842170  21.1708850  62.9626290
  49.3096860  22.3795670  62.1843060  43.5382360  20.4162600  58.5370060
  43.6449110  21.3166330  58.8438820  42.6274720  20.3680570  58.2464710
  53.1901470  19.5387410  60.0080960  54.0111090  19.0483980  60.0506440
  53.2235550  20.1285070  60.7612800  41.1865520  22.3381610  63.7822650
  41.8675630  22.6019980  64.4010050  40.8713570  21.4982480  64.1160660
  45.3790090  23.3848970  62.8695240  45.8868310  23.8829940  63.5100260
  45.9103330  22.6084170  62.6934600  57.4801020  21.5554160  66.5724590
  56.7753190  21.9435870  66.0539700  57.7458940  22.2504450  67.1745520
  43.6626190  18.0247530  67.1358660  43.6644630  18.5419920  66.3304560
  42.8330500  17.5477710  67.1128590  50.0497280  28.1366840  58.6348560
  49.4314550  28.6016290  58.0711280  50.5620530  28.8294320  59.0518070
  44.9129040  27.6642710  65.3132160  44.5798420  28.2911630  65.9553230
  45.0895720  28.1904590  64.5333830  53.4262950  21.4787790  62.7808500
  52.7218520  21.7672680  63.3611610  53.7875110  22.2887900  62.4208060
  43.3441520  19.7357490  65.1429110  43.6858330  20.5799540  64.8482980
  42.4057330  19.8841230  65.2594450  44.1248140  29.6323510  67.1281340
  44.7422140  30.3074590  66.8465790  43.2641260  30.0411490  67.0368840
  39.4180480  28.8223370  56.0088190  39.0408460  29.3110470  55.2773090
  39.6753550  29.4948650  56.6394720  55.0425730  31.0962920  65.0435980
  54.3589250  31.7662030  65.0352650  55.5820020  31.2943570  64.2780840
  56.4949870  20.9242580  63.1717710  55.5474780  20.9581560  63.3033140
  56.8199860  21.7381530  63.5567070  47.0269410  17.2239760  61.4673700
  47.3344390  16.6686650  60.7509200  46.0970110  17.3584220  61.2846690
  52.5784470  32.9407050  63.7581160  52.5911630  32.5369340  62.8903420
  52.0259690  33.7154340  63.6542590  53.8729890  29.6623270  58.8471330
  53.7626220  28.7197600  58.9720750  53.8698140  30.0238910  59.7334090
  51.9769910  27.8436890  65.0863770  52.3938700  27.6297000  64.2517230
  52.7009730  28.1009680  65.6572390  49.4150170  25.2888590  58.2033820
  48.4879450  25.2225970  58.4322290  49.5674990  26.2268720  58.0889060
  49.4019250  21.5605590  55.2000980  48.4622920  21.7219550  55.2853440
  49.7202510  22.2791270  54.6536970  55.9232010  26.2424110  65.1780010
  55.0950640  26.3117200  64.7030140  56.5182490  26.8278420  64.7095840
  53.4447460  26.8508890  58.7069070  52.8259880  26.5128440  58.0595370
  53.4271910  26.2068650  59.4148260  52.8874020  23.0293430  66.1234880
  52.4745200  23.8547140  66.3774870  52.1549970  22.4438470  65.9311240
  45.0206810  25.8153330  60.9853550  44.6163810  25.1030580  60.4899450
  45.1069930  25.4706570  61.8741590  45.4888510  29.5020890  63.1492760
  45.1916800  28.8966360  62.4700540  46.4388330  29.5398200  63.0382120
  43.7335430  22.5896540  64.7652590  44.2850020  22.6991880  63.9905840
  44.2478940  22.9634140  65.4807820  53.5774120  33.0752760  66.8115860
  53.1004680  33.8824950  66.6188470  52.8935910  32.4231090  66.9642070
  44.5806940  29.2402580  69.8000560  43.6835470  29.4642550  70.0473960
  44.6059810  29.3637520  68.8511960  51.6212160  26.0895700  55.7141820
  52.0605440  25.2518130  55.5679640  52.3340580  26.7225100  55.8005960
  43.4078160  26.1115900  68.3757930  43.2685930  26.9838700  68.7445330
  42.5259520  25.7688710  68.2305870  49.7307540  31.0291770  59.6823060
  50.1703450  31.7716100  59.2678450  49.6694430  31.2718340  60.6062020
  45.2058510  32.0537600  70.5843080  45.1773940  32.4580550  69.7171510
  45.0423480  31.1247960  70.4214680  55.2029300  17.3438510  54.0282860
  54.8901960  17.4365340  54.9281930  55.9641770  17.9219540  53.9780290
  41.7211440  24.7098310  58.4860200  41.6009040  25.4360400  57.8741470
  41.4112330  23.9401220  58.0088110  57.1573330  32.8364700  71.8807250
  57.6333050  33.3147590  72.5596330  57.7780490  32.7682190  71.1552750
  39.3596810  27.8813450  64.2928840  39.4377230  28.0162220  63.3484560
  39.9738490  27.1729340  64.4856960  40.6044440  29.5813640  60.7035020
  40.1972520  29.7228230  59.8488620  41.4957450  29.2973800  60.5006230
  56.5606580  30.0277550  69.0407260  56.6869640  29.7889430  68.1224440
  56.6027960  29.1962090  69.5129340  50.4223320  33.7305550  67.6102070
  50.9367990  33.6413560  68.4124500  49.5792400  34.0765250  67.9029980
  52.3977720  34.0160890  57.0386070  52.2378860  33.7263830  57.9367900
  52.2324430  33.2401020  56.5031300  44.8766100  33.7959420  58.8157690
  44.7008580  32.8794960  58.6025490  44.0221840  34.1546710  59.0555490
  52.1003850  31.5248450  55.5984070  51.4069010  31.5225740  54.9386350
  52.8426710  31.1007770  55.1678240  51.6653780  33.1511160  59.6732560
  52.1210730  32.3700540  59.9871180  52.0046300  33.8617980  60.2173740
  56.4130590  22.0810010  70.0057000  55.7974860  22.5889680  69.4772460
  56.0927010  21.1808340  69.9482940  39.4156330  28.9227620  66.8323300
  39.5787370  28.4532980  66.0142670  39.8808780  28.4151180  67.4972140
  44.1875100  18.0533380  61.8683870  43.7443250  18.8342920  61.5368390
  44.7460090  18.3763270  62.5754810  48.4744910  20.9201900  67.4719190
  48.0124280  21.1284920  68.2839130  48.0723020  20.1061250  67.1689860
  53.4749420  22.1410850  68.6015850  52.6243010  21.8416600  68.9224920
  53.3151210  22.3852860  67.6899670  50.5699130  23.6412600  70.7014640
  50.8952540  22.8076350  70.3616870  51.3579460  24.1641120  70.8492970
  47.3033920  17.6744080  56.7489700  46.6788100  17.6703950  57.4743010
  47.2164040  16.8075040  56.3525670  46.2251000  18.5980710  63.7273470
  46.5223330  19.5043540  63.6465490  46.7736560  18.1099490  63.1133040
  43.9789320  23.1766950  59.5965120  43.7530240  22.9604120  60.5011740
  43.1981850  23.6095410  59.2511090  51.2087080  23.1830320  58.1955770
  50.6095970  23.9066120  58.0119390  51.7566690  23.1207100  57.4132220
  46.4188530  24.0752530  70.2625390  46.3232130  23.1347260  70.1125790
  47.2620510  24.2967600  69.8673460  49.8151950  21.8193860  60.2259050
  50.2081520  22.1366060  59.4127740  50.1768800  20.9405740  60.3403570
  41.5499070  20.4866200  68.4159170  41.1562460  21.3341410  68.6231950
  40.8617470  19.8492570  68.6067810  48.1244120  20.5701170  71.4855910
  47.4342440  20.3773370  72.1202000  48.8676420  20.8535810  72.0180210
  38.8516120  18.4094660  62.4489250  38.5629170  18.9797520  63.1614230
  39.5961880  17.9299110  62.8120480  39.0386350  22.3514780  53.6591970
  38.9561020  23.2945540  53.8006960  38.6869410  22.2089690  52.7804320
  50.4007090  24.4099610  64.3209830  49.6688210  24.9186420  64.6699930
  50.0031430  23.5929590  64.0198610  46.8384480  21.0853810  62.7262320
  46.8420540  20.6443760  61.8766860  47.7335600  21.4071140  62.8334140
  42.6886860  20.9680300  61.6856530  42.3486910  21.4455530  62.4423580
  41.9264180  20.5145420  61.3257630  46.9004630  22.0865890  55.7169080
  47.0217450  22.0452370  56.6654900  46.5153140  22.9490040  55.5615810
  50.8633000  19.8633290  63.7332770  50.8805740  20.3141940  64.5774620
  50.6148580  18.9638930  63.9466210  45.9126130  24.3967030  55.1152380
  45.3443030  23.9485280  54.4888290  46.6215130  24.7559810  54.5817530
  54.2903750  17.2765470  69.5719150  54.6149520  16.5455130  70.0977130
  54.3260260  16.9579110  68.6700140  40.9895310  28.2979050  68.9919110
  40.6050100  27.6572720  69.5902070  41.3007500  29.0015170  69.5613840
  47.1392450  25.1455590  64.4727730  47.5062580  24.6714160  65.2189070
  46.9497510  26.0197160  64.8136070  40.0032940  19.8899280  60.6021200
  39.7179860  19.5254950  61.4399820  39.9411800  19.1579740  59.9884340
  44.9291820  24.1864230  66.7911940  44.6248890  25.0656210  67.0162300
  45.8838280  24.2464020  66.8269380  43.4573610  28.3925220  57.3878790
  42.6835870  27.8522840  57.2277510  44.1868240  27.8731830  57.0496550
  54.2161590  27.3890580  63.1805180  54.9360710  27.8845870  62.7901290
  54.0143410  26.7108470  62.5359050  49.6771530  18.7828540  57.3234570
  48.8636140  18.2841710  57.2479880  49.4833480  19.6226790  56.9070920
  49.5980390  27.4599640  69.0674180  49.5317700  26.5395310  68.8131770
  48.9685530  27.5575080  69.7818820  52.3919920  23.1548190  55.6196730
  53.2799540  23.4665420  55.4448070  52.3625010  22.2820440  55.2277310
  43.5011010  28.0605600  61.0257600  44.0189680  27.2573860  60.9714490
  43.0495030  27.9984740  61.8674430  48.3880510  29.3271880  56.2984900
  48.7296210  30.0714110  55.8028220  47.5593220  29.6403000  56.6609730
  40.9855550  25.0266970  67.9383300  40.6270490  25.6920820  68.5256640
  40.6910110  24.1950520  68.3095920  44.1868670  25.4851210  70.8222850
  43.8868810  25.6308390  69.9250670  44.9579910  24.9256500  70.7296240
  49.5297120  30.2820210  68.8177980  49.5441660  29.3501170  68.5996890
  48.8222220  30.3679970  69.4567750  54.6634190  24.4660030  55.0876590
  54.5797910  24.8974250  54.2373030  55.3828380  24.9258380  55.5203410
  55.7408330  26.9227550  68.1646560  55.0156520  27.5156330  67.9675950
  56.2683790  26.9151090  67.3659930  55.6921440  31.3202290  57.8158720
  55.0497600  30.6657910  58.0902440  55.3052100  31.7257380  57.0399390
  51.2707920  28.6487720  61.6630410  51.6231740  28.0515850  61.0031780
  50.3870250  28.3231950  61.8338660  47.3571200  29.4085410  59.0700820
  48.0442330  29.9554620  59.4508410  46.5703620  29.9526140  59.1050430
  39.4963600  25.0258230  54.5617900  40.3658450  25.3083030  54.8453820
  39.0053920  25.8394100  54.4466710  46.6598410  26.4131440  58.6826180
  47.1161190  27.2236690  58.9086370  46.3086620  26.0954580  59.5144670
  48.9631020  31.9237780  65.9118480  49.6073240  32.1297160  66.5891900
  49.3260460  31.1626180  65.4589330  42.5610190  16.7569090  59.1548700
  42.4324820  16.7486990  60.1033620  41.7372210  17.0952180  58.8039710
  50.2363100  29.9270130  64.6295930  50.8785330  29.2263290  64.7428100
  50.7612450  30.7068570  64.4492820  54.0818820  30.2118750  54.3535070
  53.8556400  29.4949190  54.9459710  53.6915020  29.9631190  53.5156820
  52.0100720  30.7265030  67.8331990  52.3456960  31.3131720  68.5109910
  51.0901060  30.5957740  68.0629780  39.5604120  18.5160210  68.6155400
  38.8462640  18.7157130  69.2208010  39.9799160  17.7399780  68.9870200
  53.6635070  28.1290690  56.0149230  53.3756770  28.5903380  56.8027110
  54.4587240  27.6688460  56.2833450  39.8476710  32.5040470  69.6021930
  39.9567830  31.5635210  69.4617320  39.1957270  32.7695220  68.9535660
  47.8389300  30.7756360  71.0020050  47.5186170  30.0565600  71.5465740
  47.1647660  31.4511430  71.0756110  45.8803470  31.6216810  55.9453200
  45.8713570  32.3546500  55.3297710  44.9601830  31.3748390  56.0380160
  41.4810110  26.8431700  56.6899960  40.8738060  27.5830600  56.6995260
  41.9559460  26.9331060  55.8638160  51.0542900  21.0082520  66.3656850
  51.4223720  20.1877730  66.6936420  50.1941100  21.0684410  66.7812500
  54.4204930  19.9639460  57.1744410  53.7918090  20.0685130  56.4602640
  53.9256850  20.1836240  57.9638290  48.8663070  31.6845050  54.6078390
  48.9675050  31.4809040  53.6780370  47.9664810  31.4303330  54.8126170
  46.3888960  22.2425410  58.5902290  45.6805110  22.7111750  59.0315900
  46.6733440  21.5847420  59.2247480  48.0144890  23.6622110  66.5894820
  48.5130140  24.1367930  67.2546670  48.1567840  22.7385630  66.7964850
  50.4204390  18.9676070  60.0298080  50.2972170  18.9862200  59.0807590
  51.3688950  19.0155010  60.1496480  47.5081180  34.2031370  59.3026060
  47.7622680  34.1652760  58.3805430  46.5593660  34.0764700  59.2954310
  44.5923980  20.5510490  55.9653000  45.4414510  20.9880640  55.8993190
  44.2255250  20.8630750  56.7925060  55.2211750  19.8790070  67.4323210
  54.7185350  20.6195470  67.7717020  56.0368410  20.2674070  67.1160000
  53.5133760  25.1223250  60.8784570  52.5723900  25.1373480  61.0532260
  53.8277830  24.3359210  61.3244870  43.4915400  26.8042850  54.4388530
  44.2578670  26.6924210  55.0013960  43.5690090  26.1080820  53.7865300
  42.1862160  24.2367920  55.1221420  42.2665750  23.2895430  55.2338820
  43.0781910  24.5674800  55.2282080  55.5159340  32.2932100  62.5538830
  55.6406760  33.1163270  63.0262640  56.3824900  32.0822830  62.2062980
  42.9876870  34.3863310  62.2255960  43.7239350  33.8378770  62.4964530
  43.3717790  35.2519320  62.0861950  39.8722350  30.4536880  58.0997470
  38.9462130  30.6958020  58.0902880  40.3378780  31.2811140  57.9782220
  41.9935150  33.5709380  71.4141540  42.7947880  33.8921430  71.8276940
  41.4786970  33.2104960  72.1361450  46.0979180  33.5593620  54.0481530
  46.8907790  33.8482450  53.5963320  45.5783530  33.1285790  53.3694010
  50.8299780  29.6789250  71.3616950  50.2237940  29.7020850  70.6212700
  50.5253890  28.9472290  71.8984200  52.2600150  33.4069540  69.9726360
  53.2121900  33.3227560  69.9226600  52.1128370  34.0711250  70.6460150
  55.1509350  32.7863750  55.4718270  54.8650860  32.3728890  54.6572450
  54.9528900  33.7151460  55.3518790  39.7132960  26.0582840  70.3577590
  40.2171980  25.4790120  70.9293820  38.9740380  26.3423070  70.8953960
  46.6156580  28.7797030  53.9123880  46.5107220  28.1649380  54.6385260
  46.4480800  28.2562920  53.1286890  46.7670900  27.4653830  69.8913110
  46.0016570  28.0338830  69.8067780  46.9486860  27.1730040  68.9981340
  49.8559310  27.8417060  54.5165870  49.3069410  28.2886360  55.1608610
  50.4778570  27.3366310  55.0403540  53.9094250  29.1959160  70.4488130
  54.6503720  29.5334920  69.9455590  53.1466930  29.3651220  69.8957900
  41.7456040  24.2012430  71.2527660  41.7861380  23.9026300  72.1612890
  42.6001540  24.6020040  71.0935180  45.5234430  26.8007980  56.4131170
  45.9450850  26.6347850  57.2562560  45.6485270  25.9908210  55.9186310
  43.6861850  22.7804530  69.2202150  43.1558310  22.2895480  68.5925490
  44.3549920  23.2088730  68.6860080  48.0362070  25.8245590  53.6608270
  48.5567730  25.1094610  53.2949420  48.6830470  26.4631460  53.9608780
  52.5839910  27.2473990  68.9843340  52.9980930  27.4019070  69.8333760
  51.6490910  27.3729210  69.1469120  53.0562080  24.5870150  70.9882490
  53.6382850  23.8322470  70.9002970  53.2323850  25.1177590  70.2113970
  44.1734150  19.7466900  69.2999440  44.0791020  19.1287650  68.5750310
  43.5931540  20.4733190  69.0729350  46.9395590  18.3040140  66.3326830
  46.4912890  18.3264400  65.4872380  46.3060790  17.9059160  66.9297130
  47.3455140  27.1994470  66.9539270  47.7643250  28.0427200  66.7815510
  46.4263770  27.3366510  66.7246050  49.6819040  24.9310650  68.3377110
  49.8015250  24.3351790  69.0771950  50.5413040  24.9680340  67.9178410
  52.0206940  25.4847840  66.9139620  51.4942160  26.0090460  66.3104760
  52.3638280  26.1175230  67.5449350  44.4193330  22.8741210  53.3589330
  44.2182390  22.0108570  53.7202670  44.2485380  22.7874570  52.4210930
  45.1962560  33.5047480  68.0697000  44.6583650  34.2293540  67.7505700
  45.4496520  33.0277820  67.2794340  46.4487810  21.4732000  69.5952930
  47.0387500  21.1647850  70.2830750  45.6308050  21.0011750  69.7512830
  51.2681240  21.0897810  69.8285950  50.5796760  20.4279350  69.7635940
  51.9887260  20.6436080  70.2734410  51.8981640  17.6849440  55.8876210
  52.1783930  16.8417340  56.2435630  51.1247370  17.9172550  56.4014960
  43.2176130  19.9741830  53.3467210  43.5202030  19.9809260  52.4386360
  43.9570720  19.6239690  53.8434870  48.0524770  34.7398690  68.3283650
  47.9783470  35.6433830  68.6356020  47.1503610  34.4210590  68.3005720
  46.4361060  18.9176450  54.3323410  46.0883060  18.2400440  53.7525860
  46.6373830  18.4565960  55.1466800  48.6010100  33.9057200  55.9510010
  49.4960890  34.2442170  55.9728770  48.6327730  33.1836610  55.3234290
  42.2406260  29.2784250  54.1797010  42.6781130  29.8213920  54.8354590
  42.7253990  28.4531200  54.1893350  39.4552060  32.0673280  61.6317270
  39.7855070  31.1994340  61.3995910  39.8843060  32.2731800  62.4622230
  44.0513980  30.3982290  59.2919240  43.7509520  30.2747260  60.1923150
  43.9451470  29.5390880  58.8834970  39.9442270  32.9343870  64.3698900
  39.5073260  33.1144670  65.2023050  40.5119950  33.6918490  64.2280620
  55.5804450  32.4360870  68.6576210  54.9806440  32.4953430  67.9140130
  55.7098350  31.4965850  68.7873060  56.8205900  30.1778690  53.9945920
  55.9898860  30.2455340  54.4653150  56.9977730  31.0682810  53.6912780
  56.2762360  26.9226170  56.4980120  57.0381270  27.4922820  56.6039810
  56.2916730  26.3553370  57.2688430  39.7766700  25.4464100  60.7287780
  39.1215540  25.1775740  60.0847480  40.6144650  25.3368580  60.2789760
  57.2822330  27.7776270  61.3422050  57.6531160  26.9943590  60.9358020
  57.9224260  28.4665370  61.1639350  54.2656090  29.1612850  66.7552370
  53.4515930  29.5910010  67.0178160  54.6730290  29.7731260  66.1421420
  56.3281530  27.2160540  53.6552640  56.6030370  28.1239420  53.5271860
  56.1392270  27.1523070  54.5914630  52.7257140  20.2405390  54.9506270
  53.1442020  20.0536370  54.1102930  52.4193200  19.3884440  55.2609200
  56.2246870  25.1529530  58.6482070  55.8490470  24.3857460  58.2163360
  55.4949990  25.5352230  59.1357000  40.8142630  25.8316670  65.2691120
  41.1815670  25.7444070  66.1487140  40.2453450  25.0683220  65.1697980
  55.6146490  24.3001050  68.2821590  55.3832580  24.0713800  67.3819540
  55.8751040  25.2200600  68.2366480  40.3658630  22.7425760  69.1749540
  39.4714680  22.7092520  69.5143250  40.9056180  22.9412550  69.9400790
  54.0534560  19.5257480  71.0601290  54.9304740  19.5340880  71.4435290
  54.0655400  18.7888320  70.4493640  38.9904780  22.6563030  56.6713110
  38.0868860  22.9193230  56.4964770  39.4745400  22.9274200  55.8913070
  55.4997830  23.3787020  61.9489310  56.0235310  22.8849670  61.3179480
  56.0857250  23.5137380  62.6936880  55.6787550  23.4626890  65.4708860
  54.7290260  23.4290430  65.5853850  55.8600560  24.3727000  65.2358630
  41.5331990  21.7128570  54.5807490  42.2423690  21.2911790  54.0954770
  40.8171930  21.7803800  53.9490840  41.1806150  17.7667900  53.6210140
  41.9034280  18.3076840  53.9391360  41.4530670  17.4931320  52.7451680
  54.9897800  22.6360370  57.8881720  55.4856920  22.4031240  58.6730600
  54.7913870  21.7972210  57.4719360  40.8698340  17.0174090  63.5232760
  41.5174530  16.4671470  63.0827920  41.2900180  17.2717240  64.3448570
  56.4184960  21.2721320  60.4219400  56.3084240  21.1177360  61.3601670
  57.1792550  20.7442260  60.1794810  54.7650680  17.2115450  66.8802400
  55.4022900  17.8249590  67.2461590  54.9125570  17.2476110  65.9351630
  57.3075230  19.1029240  53.6625540  58.2324540  18.9710420  53.4543830
  57.2851020  19.1822060  54.6161990  57.3813720  19.8739900  56.2882250
  56.5865220  19.8085020  56.8175160  57.5857000  20.8090540  56.2767600
  54.3232140  33.9131450  60.2820640  54.9191210  33.5916020  59.6055060
  54.5810290  33.4403270  61.0733910  40.6230340  17.1729760  66.2658080
  40.2745160  17.6293580  67.0316260  40.2918040  16.2786890  66.3480510
  42.2294710  30.3449360  70.4311270  42.1864340  29.9742270  71.3125730
  42.3605720  31.2826930  70.5713090  45.9300740  31.9008950  66.0320990
  45.6892100  32.1683510  65.1451510  46.8703380  32.0714680  66.0871850
  48.1355160  18.3641640  69.7877500  48.0744050  18.9563470  70.5372910
  49.0755540  18.2567600  69.6427760  50.7729720  18.0211700  69.4269790
  51.3870130  18.3390990  68.7650870  51.3179280  17.5360290  70.0465650
  57.1904900  33.9203330  66.8331630  56.6963180  34.3172200  66.1158760
  56.5818190  33.2952540  67.2268910  41.2950980  16.7005960  69.5408850
  41.8433970  16.5194010  68.7774960  41.3606290  15.9100070  70.0765160
  42.0682740  33.2911610  67.5509050  41.4743060  33.1596310  68.2899090
  42.0606580  32.4549750  67.0851150  51.5137760  16.5843840  65.7539080
  50.6397600  16.9178950  65.5512010  51.4048510  16.1117020  66.5790950
  52.4209740  18.7914710  67.1380800  52.0923100  17.9766470  66.7582530
  53.3692040  18.7484520  67.0146490  54.8744350  34.5626750  64.1118370
  54.4147320  35.3142560  63.7376390  54.2456810  33.8433220  64.0533170
  41.6994970  30.6569990  66.5017090  40.9729030  30.0375280  66.4343040
  41.7604120  31.0510600  65.6315170  45.3040070  32.8714990  63.2866500
  45.8205090  32.2602350  62.7614760  45.9537450  33.3743770  63.7777510
  48.0435570  33.7623480  64.1135480  48.3313380  33.5077780  63.2368490
  48.5558790  33.2100840  64.7041050  49.2612580  17.5013680  64.6931990
  48.4784370  17.9759180  64.9728750  48.9675510  16.5968510  64.5845170
  53.8133650  18.2036780  62.7381080  54.2541740  18.1481880  61.8902680
  53.5441240  19.1194790  62.8091260  55.6772220  17.8352020  60.7489900
  55.6160620  16.8913240  60.6020920  56.4564250  17.9432110  61.2943360
  39.9824970  33.9744380  59.7113850  39.8147010  33.3415060  60.4095740
  39.1159480  34.1803780  59.3608040  40.6052990  17.8061160  57.2145710
  41.3632350  17.9190040  56.6409740  40.1430160  18.6430360  57.1689140
  47.1466800  19.9200430  60.2048020  46.3341310  19.5457320  59.8643900
  47.6508440  19.1645510  60.5069210  51.6491780  16.5842880  61.4431090
  52.2521150  17.1563090  61.9179610  50.9084770  17.1482320  61.2204990
  54.7926380  16.9864440  56.7171370  54.9877010  17.8847890  56.9838800
  54.0056250  16.7551520  57.2104320  41.5887670  32.6677610  57.1563990
  41.0635290  33.0485640  56.4525950  41.5132250  33.2928380  57.8773700
  42.9778140  18.3325210  55.7547680  43.5070900  17.5455010  55.6255630
  43.6106460  19.0116400  55.9883210  45.1715980  18.0700350  58.8093070
  44.5418720  17.3687660  58.9763200  44.6321120  18.8304480  58.5926230
  48.1107930  34.6839580  71.4803680  49.0375240  34.4483850  71.5239640
  48.0958360  35.5111580  70.9989710  56.3452990  34.2265150  58.4777930
  56.5205180  33.5402890  57.8338850  55.6474560  34.7512200  58.0854600
  45.2971540  17.3484330  71.2445560  45.0155810  17.8517930  70.4806380
  45.6791240  16.5506080  70.8787690  44.1880640  34.6159990  56.0313240
  44.9199460  34.3319270  55.4837130  44.4474310  34.3773270  56.9212620
  43.3495430  30.7324720  56.0359570  42.7204310  31.2009820  56.5845400
  43.4643260  29.8873940  56.4705760  51.8987000  16.7637910  71.8226030
  51.7852450  17.0832520  72.7177550  52.7156740  17.1650420  71.5263310
  54.6785490  33.9109440  71.3044720  55.4710810  33.4158670  71.0970680
  54.9718640  34.5899580  71.9120330  50.8045150  24.7830380  42.1860770
  50.7239200  23.8684990  41.9152480  50.3909570  25.2797450  41.4800480
  48.9363190  26.5609400  44.0670040  48.1605290  26.0809840  44.3568610
  49.5876120  25.8815050  43.8926200  42.9529020  26.8729210  44.9445800
  42.1213900  26.6177920  45.3442310  43.5610000  26.9439980  45.6803720
  52.9570620  30.9669590  42.8469170  52.4952150  30.1956830  43.1756340
  53.7696170  30.9935660  43.3521620  42.9330280  30.9069300  45.1403820
  43.2358320  30.0167040  44.9614040  43.6773870  31.4639520  44.9126070
  41.3620970  21.8331100  38.7288190  40.4737670  22.1747070  38.6268070
  41.6462160  21.6331420  37.8369020  39.3253980  24.4336750  44.6127890
  39.8970090  23.6658950  44.6131530  39.3255520  24.7325510  43.7034500
  49.1833930  33.2527600  42.4673160  48.5645370  33.7085100  41.8967600
  50.0385710  33.4079060  42.0662860  48.3772180  29.2366590  44.0740200
  48.3080460  28.2956530  43.9129330  49.1392040  29.3268000  44.6462770
  40.5678850  19.8421110  46.3996820  40.3881690  18.9446860  46.6799580
  40.1658930  20.3892980  47.0743770  49.4077350  22.0436970  44.3009130
  49.7842170  21.1708850  44.1882800  49.3096860  22.3795670  43.4099570
  43.5382360  20.4162600  39.7626570  43.6449110  21.3166330  40.0695330
  42.6274720  20.3680570  39.4721220  53.1901470  19.5387410  41.2337470
  54.0111090  19.0483980  41.2762950  53.2235550  20.1285070  41.9869310
  41.1865520  22.3381610  45.0079160  41.8675630  22.6019980  45.6266560
  40.8713570  21.4982480  45.3417170  45.3790090  23.3848970  44.0951750
  45.8868310  23.8829940  44.7356770  45.9103330  22.6084170  43.9191110
  57.4801020  21.5554160  47.7981100  56.7753190  21.9435870  47.2796210
  57.7458940  22.2504450  48.4002030  43.6626190  18.0247530  48.3615170
  43.6644630  18.5419920  47.5561070  42.8330500  17.5477710  48.3385100
  50.0497280  28.1366840  39.8605070  49.4314550  28.6016290  39.2967790
  50.5620530  28.8294320  40.2774580  44.9129040  27.6642710  46.5388670
  44.5798420  28.2911630  47.1809740  45.0895720  28.1904590  45.7590340
  53.4262950  21.4787790  44.0065010  52.7218520  21.7672680  44.5868120
  53.7875110  22.2887900  43.6464570  43.3441520  19.7357490  46.3685620
  43.6858330  20.5799540  46.0739490  42.4057330  19.8841230  46.4850960
  44.1248140  29.6323510  48.3537850  44.7422140  30.3074590  48.0722300
  43.2641260  30.0411490  48.2625350  39.4180480  28.8223370  37.2344700
  39.0408460  29.3110470  36.5029600  39.6753550  29.4948650  37.8651230
  55.0425730  31.0962920  46.2692490  54.3589250  31.7662030  46.2609160
  55.5820020  31.2943570  45.5037350  56.4949870  20.9242580  44.3974220
  55.5474780  20.9581560  44.5289650  56.8199860  21.7381530  44.7823580
  47.0269410  17.2239760  42.6930210  47.3344390  16.6686650  41.9765710
  46.0970110  17.3584220  42.5103200  52.5784470  32.9407050  44.9837670
  52.5911630  32.5369340  44.1159930  52.0259690  33.7154340  44.8799100
  53.8729890  29.6623270  40.0727840  53.7626220  28.7197600  40.1977260
  53.8698140  30.0238910  40.9590600  51.9769910  27.8436890  46.3120280
  52.3938700  27.6297000  45.4773740  52.7009730  28.1009680  46.8828900
  49.4150170  25.2888590  39.4290330  48.4879450  25.2225970  39.6578800
  49.5674990  26.2268720  39.3145570  49.4019250  21.5605590  36.4257490
  48.4622920  21.7219550  36.5109950  49.7202510  22.2791270  35.8793480
  55.9232010  26.2424110  46.4036520  55.0950640  26.3117200  45.9286650
  56.5182490  26.8278420  45.9352350  53.4447460  26.8508890  39.9325580
  52.8259880  26.5128440  39.2851880  53.4271910  26.2068650  40.6404770
  52.8874020  23.0293430  47.3491390  52.4745200  23.8547140  47.6031380
  52.1549970  22.4438470  47.1567750  45.0206810  25.8153330  42.2110060
  44.6163810  25.1030580  41.7155960  45.1069930  25.4706570  43.0998100
  45.4888510  29.5020890  44.3749270  45.1916800  28.8966360  43.6957050
  46.4388330  29.5398200  44.2638630  43.7335430  22.5896540  45.9909100
  44.2850020  22.6991880  45.2162350  44.2478940  22.9634140  46.7064330
  53.5774120  33.0752760  48.0372370  53.1004680  33.8824950  47.8444980
  52.8935910  32.4231090  48.1898580  44.5806940  29.2402580  51.0257070
  43.6835470  29.4642550  51.2730470  44.6059810  29.3637520  50.0768470
  51.6212160  26.0895700  36.9398330  52.0605440  25.2518130  36.7936150
  52.3340580  26.7225100  37.0262470  43.4078160  26.1115900  49.6014440
  43.2685930  26.9838700  49.9701840  42.5259520  25.7688710  49.4562380
  49.7307540  31.0291770  40.9079570  50.1703450  31.7716100  40.4934960
  49.6694430  31.2718340  41.8318530  45.2058510  32.0537600  51.8099590
  45.1773940  32.4580550  50.9428020  45.0423480  31.1247960  51.6471190
  55.2029300  17.3438510  35.2539370  54.8901960  17.4365340  36.1538440
  55.9641770  17.9219540  35.2036800  41.7211440  24.7098310  39.7116710
  41.6009040  25.4360400  39.0997980  41.4112330  23.9401220  39.2344620
  57.1573330  32.8364700  53.1063760  57.6333050  33.3147590  53.7852840
  57.7780490  32.7682190  52.3809260  39.3596810  27.8813450  45.5185350
  39.4377230  28.0162220  44.5741070  39.9738490  27.1729340  45.7113470
  40.6044440  29.5813640  41.9291530  40.1972520  29.7228230  41.0745130
  41.4957450  29.2973800  41.7262740  56.5606580  30.0277550  50.2663770
  56.6869640  29.7889430  49.3480950  56.6027960  29.1962090  50.7385850
  50.4223320  33.7305550  48.8358580  50.9367990  33.6413560  49.6381010
  49.5792400  34.0765250  49.1286490  52.3977720  34.0160890  38.2642580
  52.2378860  33.7263830  39.1624410  52.2324430  33.2401020  37.7287810
  44.8766100  33.7959420  40.0414200  44.7008580  32.8794960  39.8282000
  44.0221840  34.1546710  40.2812000  52.1003850  31.5248450  36.8240580
  51.4069010  31.5225740  36.1642860  52.8426710  31.1007770  36.3934750
  51.6653780  33.1511160  40.8989070  52.1210730  32.3700540  41.2127690
  52.0046300  33.8617980  41.4430250  56.4130590  22.0810010  51.2313510
  55.7974860  22.5889680  50.7028970  56.0927010  21.1808340  51.1739450
  39.4156330  28.9227620  48.0579810  39.5787370  28.4532980  47.2399180
  39.8808780  28.4151180  48.7228650  44.1875100  18.0533380  43.0940380
  43.7443250  18.8342920  42.7624900  44.7460090  18.3763270  43.8011320
  48.4744910  20.9201900  48.6975700  48.0124280  21.1284920  49.5095640
  48.0723020  20.1061250  48.3946370  53.4749420  22.1410850  49.8272360
  52.6243010  21.8416600  50.1481430  53.3151210  22.3852860  48.9156180
  50.5699130  23.6412600  51.9271150  50.8952540  22.8076350  51.5873380
  51.3579460  24.1641120  52.0749480  47.3033920  17.6744080  37.9746210
  46.6788100  17.6703950  38.6999520  47.2164040  16.8075040  37.5782180
  46.2251000  18.5980710  44.9529980  46.5223330  19.5043540  44.8722000
  46.7736560  18.1099490  44.3389550  43.9789320  23.1766950  40.8221630
  43.7530240  22.9604120  41.7268250  43.1981850  23.6095410  40.4767600
  51.2087080  23.1830320  39.4212280  50.6095970  23.9066120  39.2375900
  51.7566690  23.1207100  38.6388730  46.4188530  24.0752530  51.4881900
  46.3232130  23.1347260  51.3382300  47.2620510  24.2967600  51.0929970
  49.8151950  21.8193860  41.4515560  50.2081520  22.1366060  40.6384250
  50.1768800  20.9405740  41.5660080  41.5499070  20.4866200  49.6415680
  41.1562460  21.3341410  49.8488460  40.8617470  19.8492570  49.8324320
  48.1244120  20.5701170  52.7112420  47.4342440  20.3773370  53.3458510
  48.8676420  20.8535810  53.2436720  38.8516120  18.4094660  43.6745760
  38.5629170  18.9797520  44.3870740  39.5961880  17.9299110  44.0376990
  39.0386350  22.3514780  34.8848480  38.9561020  23.2945540  35.0263470
  38.6869410  22.2089690  34.0060830  50.4007090  24.4099610  45.5466340
  49.6688210  24.9186420  45.8956440  50.0031430  23.5929590  45.2455120
  46.8384480  21.0853810  43.9518830  46.8420540  20.6443760  43.1023370
  47.7335600  21.4071140  44.0590650  42.6886860  20.9680300  42.9113040
  42.3486910  21.4455530  43.6680090  41.9264180  20.5145420  42.5514140
  46.9004630  22.0865890  36.9425590  47.0217450  22.0452370  37.8911410
  46.5153140  22.9490040  36.7872320  50.8633000  19.8633290  44.9589280
  50.8805740  20.3141940  45.8031130  50.6148580  18.9638930  45.1722720
  45.9126130  24.3967030  36.3408890  45.3443030  23.9485280  35.7144800
  46.6215130  24.7559810  35.8074040  54.2903750  17.2765470  50.7975660
  54.6149520  16.5455130  51.3233640  54.3260260  16.9579110  49.8956650
  40.9895310  28.2979050  50.2175620  40.6050100  27.6572720  50.8158580
  41.3007500  29.0015170  50.7870350  47.1392450  25.1455590  45.6984240
  47.5062580  24.6714160  46.4445580  46.9497510  26.0197160  46.0392580
  40.0032940  19.8899280  41.8277710  39.7179860  19.5254950  42.6656330
  39.9411800  19.1579740  41.2140850  44.9291820  24.1864230  48.0168450
  44.6248890  25.0656210  48.2418810  45.8838280  24.2464020  48.0525890
  43.4573610  28.3925220  38.6135300  42.6835870  27.8522840  38.4534020
  44.1868240  27.8731830  38.2753060  54.2161590  27.3890580  44.4061690
  54.9360710  27.8845870  44.0157800  54.0143410  26.7108470  43.7615560
  49.6771530  18.7828540  38.5491080  48.8636140  18.2841710  38.4736390
  49.4833480  19.6226790  38.1327430  49.5980390  27.4599640  50.2930690
  49.5317700  26.5395310  50.0388280  48.9685530  27.5575080  51.0075330
  52.3919920  23.1548190  36.8453240  53.2799540  23.4665420  36.6704580
  52.3625010  22.2820440  36.4533820  43.5011010  28.0605600  42.2514110
  44.0189680  27.2573860  42.1971000  43.0495030  27.9984740  43.0930940
  48.3880510  29.3271880  37.5241410  48.7296210  30.0714110  37.0284730
  47.5593220  29.6403000  37.8866240  40.9855550  25.0266970  49.1639810
  40.6270490  25.6920820  49.7513150  40.6910110  24.1950520  49.5352430
  44.1868670  25.4851210  52.0479360  43.8868810  25.6308390  51.1507180
  44.9579910  24.9256500  51.9552750  49.5297120  30.2820210  50.0434490
  49.5441660  29.3501170  49.8253400  48.8222220  30.3679970  50.6824260
  54.6634190  24.4660030  36.3133100  54.5797910  24.8974250  35.4629540
  55.3828380  24.9258380  36.7459920  55.7408330  26.9227550  49.3903070
  55.0156520  27.5156330  49.1932460  56.2683790  26.9151090  48.5916440
  55.6921440  31.3202290  39.0415230  55.0497600  30.6657910  39.3158950
  55.3052100  31.7257380  38.2655900  51.2707920  28.6487720  42.8886920
  51.6231740  28.0515850  42.2288290  50.3870250  28.3231950  43.0595170
  47.3571200  29.4085410  40.2957330  48.0442330  29.9554620  40.6764920
  46.5703620  29.9526140  40.3306940  39.4963600  25.0258230  35.7874410
  40.3658450  25.3083030  36.0710330  39.0053920  25.8394100  35.6723220
  46.6598410  26.4131440  39.9082690  47.1161190  27.2236690  40.1342880
  46.3086620  26.0954580  40.7401180  48.9631020  31.9237780  47.1374990
  49.6073240  32.1297160  47.8148410  49.3260460  31.1626180  46.6845840
  42.5610190  16.7569090  40.3805210  42.4324820  16.7486990  41.3290130
  41.7372210  17.0952180  40.0296220  50.2363100  29.9270130  45.8552440
  50.8785330  29.2263290  45.9684610  50.7612450  30.7068570  45.6749330
  54.0818820  30.2118750  35.5791580  53.8556400  29.4949190  36.1716220
  53.6915020  29.9631190  34.7413330  52.0100720  30.7265030  49.0588500
  52.3456960  31.3131720  49.7366420  51.0901060  30.5957740  49.2886290
  39.8634850  34.2385610  36.3536040  40.2232490  34.8374950  35.6993310
  39.7227190  34.7845500  37.1271070  39.5604120  18.5160210  49.8411910
  38.8462640  18.7157130  50.4464520  39.9799160  17.7399780  50.2126710
  53.6635070  28.1290690  37.2405740  53.3756770  28.5903380  38.0283620
  54.4587240  27.6688460  37.5089960  47.8389300  30.7756360  52.2276560
  47.5186170  30.0565600  52.7722250  47.1647660  31.4511430  52.3012620
  45.8803470  31.6216810  37.1709710  45.8713570  32.3546500  36.5554220
  44.9601830  31.3748390  37.2636670  41.4810110  26.8431700  37.9156470
  40.8738060  27.5830600  37.9251770  41.9559460  26.9331060  37.0894670
  51.0542900  21.0082520  47.5913360  51.4223720  20.1877730  47.9192930
  50.1941100  21.0684410  48.0069010  54.4204930  19.9639460  38.4000920
  53.7918090  20.0685130  37.6859150  53.9256850  20.1836240  39.1894800
  48.8663070  31.6845050  35.8334900  48.9675050  31.4809040  34.9036880
  47.9664810  31.4303330  36.0382680  46.3888960  22.2425410  39.8158800
  45.6805110  22.7111750  40.2572410  46.6733440  21.5847420  40.4503990
  48.0144890  23.6622110  47.8151330  48.5130140  24.1367930  48.4803180
  48.1567840  22.7385630  48.0221360  50.4204390  18.9676070  41.2554590
  50.2972170  18.9862200  40.3064100  51.3688950  19.0155010  41.3752990
  47.5081180  34.2031370  40.5282570  47.7622680  34.1652760  39.6061940
  46.5593660  34.0764700  40.5210820  44.5923980  20.5510490  37.1909510
  45.4414510  20.9880640  37.1249700  44.2255250  20.8630750  38.0181570
  55.2211750  19.8790070  48.6579720  54.7185350  20.6195470  48.9973530
  56.0368410  20.2674070  48.3416510  53.5133760  25.1223250  42.1041080
  52.5723900  25.1373480  42.2788770  53.8277830  24.3359210  42.5501380
  43.4915400  26.8042850  35.6645040  44.2578670  26.6924210  36.2270470
  43.5690090  26.1080820  35.0121810  42.1862160  24.2367920  36.3477930
  42.2665750  23.2895430  36.4595330  43.0781910  24.5674800  36.4538590
  55.5159340  32.2932100  43.7795340  55.6406760  33.1163270  44.2519150
  56.3824900  32.0822830  43.4319490  42.9876870  34.3863310  43.4512470
  43.7239350  33.8378770  43.7221040  43.3717790  35.2519320  43.3118460
  39.8722350  30.4536880  39.3253980  38.9462130  30.6958020  39.3159390
  40.3378780  31.2811140  39.2038730  41.9935150  33.5709380  52.6398050
  42.7947880  33.8921430  53.0533450  41.4786970  33.2104960  53.3617960
  46.0979180  33.5593620  35.2738040  46.8907790  33.8482450  34.8219830
  45.5783530  33.1285790  34.5950520  50.8299780  29.6789250  52.5873460
  50.2237940  29.7020850  51.8469210  50.5253890  28.9472290  53.1240710
  52.2600150  33.4069540  51.1982870  53.2121900  33.3227560  51.1483110
  52.1128370  34.0711250  51.8716660  55.1509350  32.7863750  36.6974780
  54.8650860  32.3728890  35.8828960  54.9528900  33.7151460  36.5775300
  39.7132960  26.0582840  51.5834100  40.2171980  25.4790120  52.1550330
  38.9740380  26.3423070  52.1210470  46.6156580  28.7797030  35.1380390
  46.5107220  28.1649380  35.8641770  46.4480800  28.2562920  34.3543400
  46.7670900  27.4653830  51.1169620  46.0016570  28.0338830  51.0324290
  46.9486860  27.1730040  50.2237850  49.8559310  27.8417060  35.7422380
  49.3069410  28.2886360  36.3865120  50.4778570  27.3366310  36.2660050
  53.9094250  29.1959160  51.6744640  54.6503720  29.5334920  51.1712100
  53.1466930  29.3651220  51.1214410  41.7456040  24.2012430  52.4784170
  41.7861380  23.9026300  53.3869400  42.6001540  24.6020040  52.3191690
  45.5234430  26.8007980  37.6387680  45.9450850  26.6347850  38.4819070
  45.6485270  25.9908210  37.1442820  43.6861850  22.7804530  50.4458660
  43.1558310  22.2895480  49.8182000  44.3549920  23.2088730  49.9116590
  48.0362070  25.8245590  34.8864780  48.5567730  25.1094610  34.5205930
  48.6830470  26.4631460  35.1865290  52.5839910  27.2473990  50.2099850
  52.9980930  27.4019070  51.0590270  51.6490910  27.3729210  50.3725630
  53.0562080  24.5870150  52.2139000  53.6382850  23.8322470  52.1259480
  53.2323850  25.1177590  51.4370480  44.1734150  19.7466900  50.5255950
  44.0791020  19.1287650  49.8006820  43.5931540  20.4733190  50.2985860
  46.9395590  18.3040140  47.5583340  46.4912890  18.3264400  46.7128890
  46.3060790  17.9059160  48.1553640  47.3455140  27.1994470  48.1795780
  47.7643250  28.0427200  48.0072020  46.4263770  27.3366510  47.9502560
  49.6819040  24.9310650  49.5633620  49.8015250  24.3351790  50.3028460
  50.5413040  24.9680340  49.1434920  52.0206940  25.4847840  48.1396130
  51.4942160  26.0090460  47.5361270  52.3638280  26.1175230  48.7705860
  44.4193330  22.8741210  34.5845840  44.2182390  22.0108570  34.9459180
  44.2485380  22.7874570  33.6467440  45.1962560  33.5047480  49.2953510
  44.6583650  34.2293540  48.9762210  45.4496520  33.0277820  48.5050850
  46.4487810  21.4732000  50.8209440  47.0387500  21.1647850  51.5087260
  45.6308050  21.0011750  50.9769340  51.2681240  21.0897810  51.0542460
  50.5796760  20.4279350  50.9892450  51.9887260  20.6436080  51.4990920
  51.8981640  17.6849440  37.1132720  52.1783930  16.8417340  37.4692140
  51.1247370  17.9172550  37.6271470  43.2176130  19.9741830  34.5723720
  43.5202030  19.9809260  33.6642870  43.9570720  19.6239690  35.0691380
  48.0524770  34.7398690  49.5540160  47.9783470  35.6433830  49.8612530
  47.1503610  34.4210590  49.5262230  46.4361060  18.9176450  35.5579920
  46.0883060  18.2400440  34.9782370  46.6373830  18.4565960  36.3723310
  48.6010100  33.9057200  37.1766520  49.4960890  34.2442170  37.1985280
  48.6327730  33.1836610  36.5490800  42.2406260  29.2784250  35.4053520
  42.6781130  29.8213920  36.0611100  42.7253990  28.4531200  35.4149860
  39.4552060  32.0673280  42.8573780  39.7855070  31.1994340  42.6252420
  39.8843060  32.2731800  43.6878740  44.0513980  30.3982290  40.5175750
  43.7509520  30.2747260  41.4179660  43.9451470  29.5390880  40.1091480
  39.9442270  32.9343870  45.5955410  39.5073260  33.1144670  46.4279560
  40.5119950  33.6918490  45.4537130  55.5804450  32.4360870  49.8832720
  54.9806440  32.4953430  49.1396640  55.7098350  31.4965850  50.0129570
  56.8205900  30.1778690  35.2202430  55.9898860  30.2455340  35.6909660
  56.9977730  31.0682810  34.9169290  56.2762360  26.9226170  37.7236630
  57.0381270  27.4922820  37.8296320  56.2916730  26.3553370  38.4944940
  39.7766700  25.4464100  41.9544290  39.1215540  25.1775740  41.3103990
  40.6144650  25.3368580  41.5046270  57.2822330  27.7776270  42.5678560
  57.6531160  26.9943590  42.1614530  57.9224260  28.4665370  42.3895860
  54.2656090  29.1612850  47.9808880  53.4515930  29.5910010  48.2434670
  54.6730290  29.7731260  47.3677930  56.3281530  27.2160540  34.8809150
  56.6030370  28.1239420  34.7528370  56.1392270  27.1523070  35.8171140
  52.7257140  20.2405390  36.1762780  53.1442020  20.0536370  35.3359440
  52.4193200  19.3884440  36.4865710  56.2246870  25.1529530  39.8738580
  55.8490470  24.3857460  39.4419870  55.4949990  25.5352230  40.3613510
  40.8142630  25.8316670  46.4947630  41.1815670  25.7444070  47.3743650
  40.2453450  25.0683220  46.3954490  55.6146490  24.3001050  49.5078100
  55.3832580  24.0713800  48.6076050  55.8751040  25.2200600  49.4622990
  40.3658630  22.7425760  50.4006050  39.4714680  22.7092520  50.7399760
  40.9056180  22.9412550  51.1657300  54.0534560  19.5257480  52.2857800
  54.9304740  19.5340880  52.6691800  54.0655400  18.7888320  51.6750150
  38.9904780  22.6563030  37.8969620  38.0868860  22.9193230  37.7221280
  39.4745400  22.9274200  37.1169580  55.4997830  23.3787020  43.1745820
  56.0235310  22.8849670  42.5435990  56.0857250  23.5137380  43.9193390
  55.6787550  23.4626890  46.6965370  54.7290260  23.4290430  46.8110360
  55.8600560  24.3727000  46.4615140  41.5331990  21.7128570  35.8064000
  42.2423690  21.2911790  35.3211280  40.8171930  21.7803800  35.1747350
  41.1806150  17.7667900  34.8466650  41.9034280  18.3076840  35.1647870
  41.4530670  17.4931320  33.9708190  54.9897800  22.6360370  39.1138230
  55.4856920  22.4031240  39.8987110  54.7913870  21.7972210  38.6975870
  40.8698340  17.0174090  44.7489270  41.5174530  16.4671470  44.3084430
  41.2900180  17.2717240  45.5705080  56.4184960  21.2721320  41.6475910
  56.3084240  21.1177360  42.5858180  57.1792550  20.7442260  41.4051320
  54.7650680  17.2115450  48.1058910  55.4022900  17.8249590  48.4718100
  54.9125570  17.2476110  47.1608140  57.3075230  19.1029240  34.8882050
  58.2324540  18.9710420  34.6800340  57.2851020  19.1822060  35.8418500
  57.3813720  19.8739900  37.5138760  56.5865220  19.8085020  38.0431670
  57.5857000  20.8090540  37.5024110  54.3232140  33.9131450  41.5077150
  54.9191210  33.5916020  40.8311570  54.5810290  33.4403270  42.2990420
  40.6230340  17.1729760  47.4914590  40.2745160  17.6293580  48.2572770
  40.2918040  16.2786890  47.5737020  42.2294710  30.3449360  51.6567780
  42.1864340  29.9742270  52.5382240  42.3605720  31.2826930  51.7969600
  45.9300740  31.9008950  47.2577500  45.6892100  32.1683510  46.3708020
  46.8703380  32.0714680  47.3128360  48.1355160  18.3641640  51.0134010
  48.0744050  18.9563470  51.7629420  49.0755540  18.2567600  50.8684270
  50.7729720  18.0211700  50.6526300  51.3870130  18.3390990  49.9907380
  51.3179280  17.5360290  51.2722160  57.1904900  33.9203330  48.0588140
  56.6963180  34.3172200  47.3415270  56.5818190  33.2952540  48.4525420
  41.2950980  16.7005960  50.7665360  41.8433970  16.5194010  50.0031470
  41.3606290  15.9100070  51.3021670  42.0682740  33.2911610  48.7765560
  41.4743060  33.1596310  49.5155600  42.0606580  32.4549750  48.3107660
  51.5137760  16.5843840  46.9795590  50.6397600  16.9178950  46.7768520
  51.4048510  16.1117020  47.8047460  52.4209740  18.7914710  48.3637310
  52.0923100  17.9766470  47.9839040  53.3692040  18.7484520  48.2403000
  54.8744350  34.5626750  45.3374880  54.4147320  35.3142560  44.9632900
  54.2456810  33.8433220  45.2789680  41.6994970  30.6569990  47.7273600
  40.9729030  30.0375280  47.6599550  41.7604120  31.0510600  46.8571680
  45.3040070  32.8714990  44.5123010  45.8205090  32.2602350  43.9871270
  45.9537450  33.3743770  45.0034020  48.0435570  33.7623480  45.3391990
  48.3313380  33.5077780  44.4625000  48.5558790  33.2100840  45.9297560
  49.2612580  17.5013680  45.9188500  48.4784370  17.9759180  46.1985260
  48.9675510  16.5968510  45.8101680  53.8133650  18.2036780  43.9637590
  54.2541740  18.1481880  43.1159190  53.5441240  19.1194790  44.0347770
  55.6772220  17.8352020  41.9746410  55.6160620  16.8913240  41.8277430
  56.4564250  17.9432110  42.5199870  39.9824970  33.9744380  40.9370360
  39.8147010  33.3415060  41.6352250  39.1159480  34.1803780  40.5864550
  40.6052990  17.8061160  38.4402220  41.3632350  17.9190040  37.8666250
  40.1430160  18.6430360  38.3945650  47.1466800  19.9200430  41.4304530
  46.3341310  19.5457320  41.0900410  47.6508440  19.1645510  41.7325720
  51.6491780  16.5842880  42.6687600  52.2521150  17.1563090  43.1436120
  50.9084770  17.1482320  42.4461500  54.7926380  16.9864440  37.9427880
  54.9877010  17.8847890  38.2095310  54.0056250  16.7551520  38.4360830
  41.5887670  32.6677610  38.3820500  41.0635290  33.0485640  37.6782460
  41.5132250  33.2928380  39.1030210  42.9778140  18.3325210  36.9804190
  43.5070900  17.5455010  36.8512140  43.6106460  19.0116400  37.2139720
  45.1715980  18.0700350  40.0349580  44.5418720  17.3687660  40.2019710
  44.6321120  18.8304480  39.8182740  48.1107930  34.6839580  52.7060190
  49.0375240  34.4483850  52.7496150  48.0958360  35.5111580  52.2246220
  56.3452990  34.2265150  39.7034440  56.5205180  33.5402890  39.0595360
  55.6474560  34.7512200  39.3111110  45.2971540  17.3484330  52.4702070
  45.0155810  17.8517930  51.7062890  45.6791240  16.5506080  52.1044200
  44.1880640  34.6159990  37.2569750  44.9199460  34.3319270  36.7093640
  44.4474310  34.3773270  38.1469130  43.3495430  30.7324720  37.2616080
  42.7204310  31.2009820  37.8101910  43.4643260  29.8873940  37.6962270
  51.8987000  16.7637910  53.0482540  51.7852450  17.0832520  53.9434060
  52.7156740  17.1650420  52.7519820  54.6785490  33.9109440  52.5301230
  55.4710810  33.4158670  52.3227190  54.9718640  34.5899580  53.1376840
  50.8045150  24.7830380  23.4117280  50.7239200  23.8684990  23.1408990
  50.3909570  25.2797450  22.7056990  48.9363190  26.5609400  25.2926550
  48.1605290  26.0809840  25.5825120  49.5876120  25.8815050  25.1182710
  42.9529020  26.8729210  26.1702310  42.1213900  26.6177920  26.5698820
  43.5610000  26.9439980  26.9060230  52.9570620  30.9669590  24.0725680
  52.4952150  30.1956830  24.4012850  53.7696170  30.9935660  24.5778130
  42.9330280  30.9069300  26.3660330  43.2358320  30.0167040  26.1870550
  43.6773870  31.4639520  26.1382580  41.3620970  21.8331100  19.9544700
  40.4737670  22.1747070  19.8524580  41.6462160  21.6331420  19.0625530
  39.3253980  24.4336750  25.8384400  39.8970090  23.6658950  25.8388040
  39.3255520  24.7325510  24.9291010  49.1833930  33.2527600  23.6929670
  48.5645370  33.7085100  23.1224110  50.0385710  33.4079060  23.2919370
  48.3772180  29.2366590  25.2996710  48.3080460  28.2956530  25.1385840
  49.1392040  29.3268000  25.8719280  40.5678850  19.8421110  27.6253330
  40.3881690  18.9446860  27.9056090  40.1658930  20.3892980  28.3000280
  49.4077350  22.0436970  25.5265640  49.7842170  21.1708850  25.4139310
  49.3096860  22.3795670  24.6356080  43.5382360  20.4162600  20.9883080
  43.6449110  21.3166330  21.2951840  42.6274720  20.3680570  20.6977730
  53.1901470  19.5387410  22.4593980  54.0111090  19.0483980  22.5019460
  53.2235550  20.1285070  23.2125820  41.1865520  22.3381610  26.2335670
  41.8675630  22.6019980  26.8523070  40.8713570  21.4982480  26.5673680
  45.3790090  23.3848970  25.3208260  45.8868310  23.8829940  25.9613280
  45.9103330  22.6084170  25.1447620  57.4801020  21.5554160  29.0237610
  56.7753190  21.9435870  28.5052720  57.7458940  22.2504450  29.6258540
  43.6626190  18.0247530  29.5871680  43.6644630  18.5419920  28.7817580
  42.8330500  17.5477710  29.5641610  50.0497280  28.1366840  21.0861580
  49.4314550  28.6016290  20.5224300  50.5620530  28.8294320  21.5031090
  44.9129040  27.6642710  27.7645180  44.5798420  28.2911630  28.4066250
  45.0895720  28.1904590  26.9846850  53.4262950  21.4787790  25.2321520
  52.7218520  21.7672680  25.8124630  53.7875110  22.2887900  24.8721080
  43.3441520  19.7357490  27.5942130  43.6858330  20.5799540  27.2996000
  42.4057330  19.8841230  27.7107470  44.1248140  29.6323510  29.5794360
  44.7422140  30.3074590  29.2978810  43.2641260  30.0411490  29.4881860
  39.4180480  28.8223370  18.4601210  39.0408460  29.3110470  17.7286110
  39.6753550  29.4948650  19.0907740  55.0425730  31.0962920  27.4949000
  54.3589250  31.7662030  27.4865670  55.5820020  31.2943570  26.7293860
  56.4949870  20.9242580  25.6230730  55.5474780  20.9581560  25.7546160
  56.8199860  21.7381530  26.0080090  47.0269410  17.2239760  23.9186720
  47.3344390  16.6686650  23.2022220  46.0970110  17.3584220  23.7359710
  52.5784470  32.9407050  26.2094180  52.5911630  32.5369340  25.3416440
  52.0259690  33.7154340  26.1055610  53.8729890  29.6623270  21.2984350
  53.7626220  28.7197600  21.4233770  53.8698140  30.0238910  22.1847110
  51.9769910  27.8436890  27.5376790  52.3938700  27.6297000  26.7030250
  52.7009730  28.1009680  28.1085410  49.4150170  25.2888590  20.6546840
  48.4879450  25.2225970  20.8835310  49.5674990  26.2268720  20.5402080
  49.4019250  21.5605590  17.6514000  48.4622920  21.7219550  17.7366460
  49.7202510  22.2791270  17.1049990  55.9232010  26.2424110  27.6293030
  55.0950640  26.3117200  27.1543160  56.5182490  26.8278420  27.1608860
  53.4447460  26.8508890  21.1582090  52.8259880  26.5128440  20.5108390
  53.4271910  26.2068650  21.8661280  52.8874020  23.0293430  28.5747900
  52.4745200  23.8547140  28.8287890  52.1549970  22.4438470  28.3824260
  45.0206810  25.8153330  23.4366570  44.6163810  25.1030580  22.9412470
  45.1069930  25.4706570  24.3254610  45.4888510  29.5020890  25.6005780
  45.1916800  28.8966360  24.9213560  46.4388330  29.5398200  25.4895140
  43.7335430  22.5896540  27.2165610  44.2850020  22.6991880  26.4418860
  44.2478940  22.9634140  27.9320840  53.5774120  33.0752760  29.2628880
  53.1004680  33.8824950  29.0701490  52.8935910  32.4231090  29.4155090
  44.5806940  29.2402580  32.2513580  43.6835470  29.4642550  32.4986980
  44.6059810  29.3637520  31.3024980  51.6212160  26.0895700  18.1654840
  52.0605440  25.2518130  18.0192660  52.3340580  26.7225100  18.2518980
  43.4078160  26.1115900  30.8270950  43.2685930  26.9838700  31.1958350
  42.5259520  25.7688710  30.6818890  49.7307540  31.0291770  22.1336080
  50.1703450  31.7716100  21.7191470  49.6694430  31.2718340  23.0575040
  45.2058510  32.0537600  33.0356100  45.1773940  32.4580550  32.1684530
  45.0423480  31.1247960  32.8727700  55.2029300  17.3438510  16.4795880
  54.8901960  17.4365340  17.3794950  55.9641770  17.9219540  16.4293310
  41.7211440  24.7098310  20.9373220  41.6009040  25.4360400  20.3254490
  41.4112330  23.9401220  20.4601130  57.1573330  32.8364700  34.3320270
  57.6333050  33.3147590  35.0109350  57.7780490  32.7682190  33.6065770
  39.3596810  27.8813450  26.7441860  39.4377230  28.0162220  25.7997580
  39.9738490  27.1729340  26.9369980  40.6044440  29.5813640  23.1548040
  40.1972520  29.7228230  22.3001640  41.4957450  29.2973800  22.9519250
  56.5606580  30.0277550  31.4920280  56.6869640  29.7889430  30.5737460
  56.6027960  29.1962090  31.9642360  50.4223320  33.7305550  30.0615090
  50.9367990  33.6413560  30.8637520  49.5792400  34.0765250  30.3543000
  52.3977720  34.0160890  19.4899090  52.2378860  33.7263830  20.3880920
  52.2324430  33.2401020  18.9544320  44.8766100  33.7959420  21.2670710
  44.7008580  32.8794960  21.0538510  44.0221840  34.1546710  21.5068510
  52.1003850  31.5248450  18.0497090  51.4069010  31.5225740  17.3899370
  52.8426710  31.1007770  17.6191260  51.6653780  33.1511160  22.1245580
  52.1210730  32.3700540  22.4384200  52.0046300  33.8617980  22.6686760
  56.4130590  22.0810010  32.4570020  55.7974860  22.5889680  31.9285480
  56.0927010  21.1808340  32.3995960  39.4156330  28.9227620  29.2836320
  39.5787370  28.4532980  28.4655690  39.8808780  28.4151180  29.9485160
  44.1875100  18.0533380  24.3196890  43.7443250  18.8342920  23.9881410
  44.7460090  18.3763270  25.0267830  48.4744910  20.9201900  29.9232210
  48.0124280  21.1284920  30.7352150  48.0723020  20.1061250  29.6202880
  53.4749420  22.1410850  31.0528870  52.6243010  21.8416600  31.3737940
  53.3151210  22.3852860  30.1412690  50.5699130  23.6412600  33.1527660
  50.8952540  22.8076350  32.8129890  51.3579460  24.1641120  33.3005990
  47.3033920  17.6744080  19.2002720  46.6788100  17.6703950  19.9256030
  47.2164040  16.8075040  18.8038690  46.2251000  18.5980710  26.1786490
  46.5223330  19.5043540  26.0978510  46.7736560  18.1099490  25.5646060
  43.9789320  23.1766950  22.0478140  43.7530240  22.9604120  22.9524760
  43.1981850  23.6095410  21.7024110  51.2087080  23.1830320  20.6468790
  50.6095970  23.9066120  20.4632410  51.7566690  23.1207100  19.8645240
  46.4188530  24.0752530  32.7138410  46.3232130  23.1347260  32.5638810
  47.2620510  24.2967600  32.3186480  49.8151950  21.8193860  22.6772070
  50.2081520  22.1366060  21.8640760  50.1768800  20.9405740  22.7916590
  41.5499070  20.4866200  30.8672190  41.1562460  21.3341410  31.0744970
  40.8617470  19.8492570  31.0580830  48.1244120  20.5701170  33.9368930
  47.4342440  20.3773370  34.5715020  48.8676420  20.8535810  34.4693230
  38.8516120  18.4094660  24.9002270  38.5629170  18.9797520  25.6127250
  39.5961880  17.9299110  25.2633500  39.0386350  22.3514780  16.1104990
  38.9561020  23.2945540  16.2519980  38.6869410  22.2089690  15.2317340
  50.4007090  24.4099610  26.7722850  49.6688210  24.9186420  27.1212950
  50.0031430  23.5929590  26.4711630  46.8384480  21.0853810  25.1775340
  46.8420540  20.6443760  24.3279880  47.7335600  21.4071140  25.2847160
  42.6886860  20.9680300  24.1369550  42.3486910  21.4455530  24.8936600
  41.9264180  20.5145420  23.7770650  46.9004630  22.0865890  18.1682100
  47.0217450  22.0452370  19.1167920  46.5153140  22.9490040  18.0128830
  50.8633000  19.8633290  26.1845790  50.8805740  20.3141940  27.0287640
  50.6148580  18.9638930  26.3979230  45.9126130  24.3967030  17.5665400
  45.3443030  23.9485280  16.9401310  46.6215130  24.7559810  17.0330550
  54.2903750  17.2765470  32.0232170  54.6149520  16.5455130  32.5490150
  54.3260260  16.9579110  31.1213160  40.9895310  28.2979050  31.4432130
  40.6050100  27.6572720  32.0415090  41.3007500  29.0015170  32.0126860
  47.1392450  25.1455590  26.9240750  47.5062580  24.6714160  27.6702090
  46.9497510  26.0197160  27.2649090  40.0032940  19.8899280  23.0534220
  39.7179860  19.5254950  23.8912840  39.9411800  19.1579740  22.4397360
  44.9291820  24.1864230  29.2424960  44.6248890  25.0656210  29.4675320
  45.8838280  24.2464020  29.2782400  43.4573610  28.3925220  19.8391810
  42.6835870  27.8522840  19.6790530  44.1868240  27.8731830  19.5009570
  54.2161590  27.3890580  25.6318200  54.9360710  27.8845870  25.2414310
  54.0143410  26.7108470  24.9872070  49.6771530  18.7828540  19.7747590
  48.8636140  18.2841710  19.6992900  49.4833480  19.6226790  19.3583940
  49.5980390  27.4599640  31.5187200  49.5317700  26.5395310  31.2644790
  48.9685530  27.5575080  32.2331840  52.3919920  23.1548190  18.0709750
  53.2799540  23.4665420  17.8961090  52.3625010  22.2820440  17.6790330
  43.5011010  28.0605600  23.4770620  44.0189680  27.2573860  23.4227510
  43.0495030  27.9984740  24.3187450  48.3880510  29.3271880  18.7497920
  48.7296210  30.0714110  18.2541240  47.5593220  29.6403000  19.1122750
  40.9855550  25.0266970  30.3896320  40.6270490  25.6920820  30.9769660
  40.6910110  24.1950520  30.7608940  44.1868670  25.4851210  33.2735870
  43.8868810  25.6308390  32.3763690  44.9579910  24.9256500  33.1809260
  49.5297120  30.2820210  31.2691000  49.5441660  29.3501170  31.0509910
  48.8222220  30.3679970  31.9080770  54.6634190  24.4660030  17.5389610
  54.5797910  24.8974250  16.6886050  55.3828380  24.9258380  17.9716430
  55.7408330  26.9227550  30.6159580  55.0156520  27.5156330  30.4188970
  56.2683790  26.9151090  29.8172950  55.6921440  31.3202290  20.2671740
  55.0497600  30.6657910  20.5415460  55.3052100  31.7257380  19.4912410
  51.2707920  28.6487720  24.1143430  51.6231740  28.0515850  23.4544800
  50.3870250  28.3231950  24.2851680  47.3571200  29.4085410  21.5213840
  48.0442330  29.9554620  21.9021430  46.5703620  29.9526140  21.5563450
  39.4963600  25.0258230  17.0130920  40.3658450  25.3083030  17.2966840
  39.0053920  25.8394100  16.8979730  46.6598410  26.4131440  21.1339200
  47.1161190  27.2236690  21.3599390  46.3086620  26.0954580  21.9657690
  48.9631020  31.9237780  28.3631500  49.6073240  32.1297160  29.0404920
  49.3260460  31.1626180  27.9102350  42.5610190  16.7569090  21.6061720
  42.4324820  16.7486990  22.5546640  41.7372210  17.0952180  21.2552730
  50.2363100  29.9270130  27.0808950  50.8785330  29.2263290  27.1941120
  50.7612450  30.7068570  26.9005840  54.0818820  30.2118750  16.8048090
  53.8556400  29.4949190  17.3972730  53.6915020  29.9631190  15.9669840
  52.0100720  30.7265030  30.2845010  52.3456960  31.3131720  30.9622930
  51.0901060  30.5957740  30.5142800  39.8634850  34.2385610  17.5792550
  40.2232490  34.8374950  16.9249820  39.7227190  34.7845500  18.3527580
  39.5604120  18.5160210  31.0668420  38.8462640  18.7157130  31.6721030
  39.9799160  17.7399780  31.4383220  53.6635070  28.1290690  18.4662250
  53.3756770  28.5903380  19.2540130  54.4587240  27.6688460  18.7346470
  39.8476710  32.5040470  32.0534950  39.9567830  31.5635210  31.9130340
  39.1957270  32.7695220  31.4048680  47.8389300  30.7756360  33.4533070
  47.5186170  30.0565600  33.9978760  47.1647660  31.4511430  33.5269130
  45.8803470  31.6216810  18.3966220  45.8713570  32.3546500  17.7810730
  44.9601830  31.3748390  18.4893180  41.4810110  26.8431700  19.1412980
  40.8738060  27.5830600  19.1508280  41.9559460  26.9331060  18.3151180
  51.0542900  21.0082520  28.8169870  51.4223720  20.1877730  29.1449440
  50.1941100  21.0684410  29.2325520  54.4204930  19.9639460  19.6257430
  53.7918090  20.0685130  18.9115660  53.9256850  20.1836240  20.4151310
  48.8663070  31.6845050  17.0591410  48.9675050  31.4809040  16.1293390
  47.9664810  31.4303330  17.2639190  46.3888960  22.2425410  21.0415310
  45.6805110  22.7111750  21.4828920  46.6733440  21.5847420  21.6760500
  48.0144890  23.6622110  29.0407840  48.5130140  24.1367930  29.7059690
  48.1567840  22.7385630  29.2477870  50.4204390  18.9676070  22.4811100
  50.2972170  18.9862200  21.5320610  51.3688950  19.0155010  22.6009500
  47.5081180  34.2031370  21.7539080  47.7622680  34.1652760  20.8318450
  46.5593660  34.0764700  21.7467330  44.5923980  20.5510490  18.4166020
  45.4414510  20.9880640  18.3506210  44.2255250  20.8630750  19.2438080
  55.2211750  19.8790070  29.8836230  54.7185350  20.6195470  30.2230040
  56.0368410  20.2674070  29.5673020  53.5133760  25.1223250  23.3297590
  52.5723900  25.1373480  23.5045280  53.8277830  24.3359210  23.7757890
  43.4915400  26.8042850  16.8901550  44.2578670  26.6924210  17.4526980
  43.5690090  26.1080820  16.2378320  42.1862160  24.2367920  17.5734440
  42.2665750  23.2895430  17.6851840  43.0781910  24.5674800  17.6795100
  55.5159340  32.2932100  25.0051850  55.6406760  33.1163270  25.4775660
  56.3824900  32.0822830  24.6576000  42.9876870  34.3863310  24.6768980
  43.7239350  33.8378770  24.9477550  43.3717790  35.2519320  24.5374970
  39.8722350  30.4536880  20.5510490  38.9462130  30.6958020  20.5415900
  40.3378780  31.2811140  20.4295240  41.9935150  33.5709380  33.8654560
  42.7947880  33.8921430  34.2789960  41.4786970  33.2104960  34.5874470
  46.0979180  33.5593620  16.4994550  46.8907790  33.8482450  16.0476340
  45.5783530  33.1285790  15.8207030  50.8299780  29.6789250  33.8129970
  50.2237940  29.7020850  33.0725720  50.5253890  28.9472290  34.3497220
  52.2600150  33.4069540  32.4239380  53.2121900  33.3227560  32.3739620
  52.1128370  34.0711250  33.0973170  55.1509350  32.7863750  17.9231290
  54.8650860  32.3728890  17.1085470  54.9528900  33.7151460  17.8031810
  39.7132960  26.0582840  32.8090610  40.2171980  25.4790120  33.3806840
  38.9740380  26.3423070  33.3466980  46.6156580  28.7797030  16.3636900
  46.5107220  28.1649380  17.0898280  46.4480800  28.2562920  15.5799910
  46.7670900  27.4653830  32.3426130  46.0016570  28.0338830  32.2580800
  46.9486860  27.1730040  31.4494360  49.8559310  27.8417060  16.9678890
  49.3069410  28.2886360  17.6121630  50.4778570  27.3366310  17.4916560
  53.9094250  29.1959160  32.9001150  54.6503720  29.5334920  32.3968610
  53.1466930  29.3651220  32.3470920  41.7456040  24.2012430  33.7040680
  41.7861380  23.9026300  34.6125910  42.6001540  24.6020040  33.5448200
  45.5234430  26.8007980  18.8644190  45.9450850  26.6347850  19.7075580
  45.6485270  25.9908210  18.3699330  43.6861850  22.7804530  31.6715170
  43.1558310  22.2895480  31.0438510  44.3549920  23.2088730  31.1373100
  48.0362070  25.8245590  16.1121290  48.5567730  25.1094610  15.7462440
  48.6830470  26.4631460  16.4121800  52.5839910  27.2473990  31.4356360
  52.9980930  27.4019070  32.2846780  51.6490910  27.3729210  31.5982140
  53.0562080  24.5870150  33.4395510  53.6382850  23.8322470  33.3515990
  53.2323850  25.1177590  32.6626990  44.1734150  19.7466900  31.7512460
  44.0791020  19.1287650  31.0263330  43.5931540  20.4733190  31.5242370
  46.9395590  18.3040140  28.7839850  46.4912890  18.3264400  27.9385400
  46.3060790  17.9059160  29.3810150  47.3455140  27.1994470  29.4052290
  47.7643250  28.0427200  29.2328530  46.4263770  27.3366510  29.1759070
  49.6819040  24.9310650  30.7890130  49.8015250  24.3351790  31.5284970
  50.5413040  24.9680340  30.3691430  52.0206940  25.4847840  29.3652640
  51.4942160  26.0090460  28.7617780  52.3638280  26.1175230  29.9962370
  44.4193330  22.8741210  15.8102350  44.2182390  22.0108570  16.1715690
  44.2485380  22.7874570  14.8723950  45.1962560  33.5047480  30.5210020
  44.6583650  34.2293540  30.2018720  45.4496520  33.0277820  29.7307360
  46.4487810  21.4732000  32.0465950  47.0387500  21.1647850  32.7343770
  45.6308050  21.0011750  32.2025850  51.2681240  21.0897810  32.2798970
  50.5796760  20.4279350  32.2148960  51.9887260  20.6436080  32.7247430
  51.8981640  17.6849440  18.3389230  52.1783930  16.8417340  18.6948650
  51.1247370  17.9172550  18.8527980  43.2176130  19.9741830  15.7980230
  43.5202030  19.9809260  14.8899380  43.9570720  19.6239690  16.2947890
  48.0524770  34.7398690  30.7796670  47.9783470  35.6433830  31.0869040
  47.1503610  34.4210590  30.7518740  46.4361060  18.9176450  16.7836430
  46.0883060  18.2400440  16.2038880  46.6373830  18.4565960  17.5979820
  48.6010100  33.9057200  18.4023030  49.4960890  34.2442170  18.4241790
  48.6327730  33.1836610  17.7747310  42.2406260  29.2784250  16.6310030
  42.6781130  29.8213920  17.2867610  42.7253990  28.4531200  16.6406370
  39.4552060  32.0673280  24.0830290  39.7855070  31.1994340  23.8508930
  39.8843060  32.2731800  24.9135250  44.0513980  30.3982290  21.7432260
  43.7509520  30.2747260  22.6436170  43.9451470  29.5390880  21.3347990
  39.9442270  32.9343870  26.8211920  39.5073260  33.1144670  27.6536070
  40.5119950  33.6918490  26.6793640  55.5804450  32.4360870  31.1089230
  54.9806440  32.4953430  30.3653150  55.7098350  31.4965850  31.2386080
  56.8205900  30.1778690  16.4458940  55.9898860  30.2455340  16.9166170
  56.9977730  31.0682810  16.1425800  56.2762360  26.9226170  18.9493140
  57.0381270  27.4922820  19.0552830  56.2916730  26.3553370  19.7201450
  39.7766700  25.4464100  23.1800800  39.1215540  25.1775740  22.5360500
  40.6144650  25.3368580  22.7302780  57.2822330  27.7776270  23.7935070
  57.6531160  26.9943590  23.3871040  57.9224260  28.4665370  23.6152370
  54.2656090  29.1612850  29.2065390  53.4515930  29.5910010  29.4691180
  54.6730290  29.7731260  28.5934440  56.3281530  27.2160540  16.1065660
  56.6030370  28.1239420  15.9784880  56.1392270  27.1523070  17.0427650
  52.7257140  20.2405390  17.4019290  53.1442020  20.0536370  16.5615950
  52.4193200  19.3884440  17.7122220  56.2246870  25.1529530  21.0995090
  55.8490470  24.3857460  20.6676380  55.4949990  25.5352230  21.5870020
  40.8142630  25.8316670  27.7204140  41.1815670  25.7444070  28.6000160
  40.2453450  25.0683220  27.6211000  55.6146490  24.3001050  30.7334610
  55.3832580  24.0713800  29.8332560  55.8751040  25.2200600  30.6879500
  40.3658630  22.7425760  31.6262560  39.4714680  22.7092520  31.9656270
  40.9056180  22.9412550  32.3913810  54.0534560  19.5257480  33.5114310
  54.9304740  19.5340880  33.8948310  54.0655400  18.7888320  32.9006660
  38.9904780  22.6563030  19.1226130  38.0868860  22.9193230  18.9477790
  39.4745400  22.9274200  18.3426090  55.4997830  23.3787020  24.4002330
  56.0235310  22.8849670  23.7692500  56.0857250  23.5137380  25.1449900
  55.6787550  23.4626890  27.9221880  54.7290260  23.4290430  28.0366870
  55.8600560  24.3727000  27.6871650  41.5331990  21.7128570  17.0320510
  42.2423690  21.2911790  16.5467790  40.8171930  21.7803800  16.4003860
  41.1806150  17.7667900  16.0723160  41.9034280  18.3076840  16.3904380
  41.4530670  17.4931320  15.1964700  54.9897800  22.6360370  20.3394740
  55.4856920  22.4031240  21.1243620  54.7913870  21.7972210  19.9232380
  40.8698340  17.0174090  25.9745780  41.5174530  16.4671470  25.5340940
  41.2900180  17.2717240  26.7961590  56.4184960  21.2721320  22.8732420
  56.3084240  21.1177360  23.8114690  57.1792550  20.7442260  22.6307830
  54.7650680  17.2115450  29.3315420  55.4022900  17.8249590  29.6974610
  54.9125570  17.2476110  28.3864650  57.3075230  19.1029240  16.1138560
  58.2324540  18.9710420  15.9056850  57.2851020  19.1822060  17.0675010
  57.3813720  19.8739900  18.7395270  56.5865220  19.8085020  19.2688180
  57.5857000  20.8090540  18.7280620  54.3232140  33.9131450  22.7333660
  54.9191210  33.5916020  22.0568080  54.5810290  33.4403270  23.5246930
  40.6230340  17.1729760  28.7171100  40.2745160  17.6293580  29.4829280
  40.2918040  16.2786890  28.7993530  42.2294710  30.3449360  32.8824290
  42.1864340  29.9742270  33.7638750  42.3605720  31.2826930  33.0226110
  45.9300740  31.9008950  28.4834010  45.6892100  32.1683510  27.5964530
  46.8703380  32.0714680  28.5384870  48.1355160  18.3641640  32.2390520
  48.0744050  18.9563470  32.9885930  49.0755540  18.2567600  32.0940780
  50.7729720  18.0211700  31.8782810  51.3870130  18.3390990  31.2163890
  51.3179280  17.5360290  32.4978670  57.1904900  33.9203330  29.2844650
  56.6963180  34.3172200  28.5671780  56.5818190  33.2952540  29.6781930
  41.2950980  16.7005960  31.9921870  41.8433970  16.5194010  31.2287980
  41.3606290  15.9100070  32.5278180  42.0682740  33.2911610  30.0022070
  41.4743060  33.1596310  30.7412110  42.0606580  32.4549750  29.5364170
  51.5137760  16.5843840  28.2052100  50.6397600  16.9178950  28.0025030
  51.4048510  16.1117020  29.0303970  52.4209740  18.7914710  29.5893820
  52.0923100  17.9766470  29.2095550  53.3692040  18.7484520  29.4659510
  54.8744350  34.5626750  26.5631390  54.4147320  35.3142560  26.1889410
  54.2456810  33.8433220  26.5046190  41.6994970  30.6569990  28.9530110
  40.9729030  30.0375280  28.8856060  41.7604120  31.0510600  28.0828190
  45.3040070  32.8714990  25.7379520  45.8205090  32.2602350  25.2127780
  45.9537450  33.3743770  26.2290530  48.0435570  33.7623480  26.5648500
  48.3313380  33.5077780  25.6881510  48.5558790  33.2100840  27.1554070
  49.2612580  17.5013680  27.1445010  48.4784370  17.9759180  27.4241770
  48.9675510  16.5968510  27.0358190  53.8133650  18.2036780  25.1894100
  54.2541740  18.1481880  24.3415700  53.5441240  19.1194790  25.2604280
  55.6772220  17.8352020  23.2002920  55.6160620  16.8913240  23.0533940
  56.4564250  17.9432110  23.7456380  39.9824970  33.9744380  22.1626870
  39.8147010  33.3415060  22.8608760  39.1159480  34.1803780  21.8121060
  40.6052990  17.8061160  19.6658730  41.3632350  17.9190040  19.0922760
  40.1430160  18.6430360  19.6202160  47.1466800  19.9200430  22.6561040
  46.3341310  19.5457320  22.3156920  47.6508440  19.1645510  22.9582230
  51.6491780  16.5842880  23.8944110  52.2521150  17.1563090  24.3692630
  50.9084770  17.1482320  23.6718010  54.7926380  16.9864440  19.1684390
  54.9877010  17.8847890  19.4351820  54.0056250  16.7551520  19.6617340
  41.5887670  32.6677610  19.6077010  41.0635290  33.0485640  18.9038970
  41.5132250  33.2928380  20.3286720  42.9778140  18.3325210  18.2060700
  43.5070900  17.5455010  18.0768650  43.6106460  19.0116400  18.4396230
  45.1715980  18.0700350  21.2606090  44.5418720  17.3687660  21.4276220
  44.6321120  18.8304480  21.0439250  48.1107930  34.6839580  33.9316700
  49.0375240  34.4483850  33.9752660  48.0958360  35.5111580  33.4502730
  56.3452990  34.2265150  20.9290950  56.5205180  33.5402890  20.2851870
  55.6474560  34.7512200  20.5367620  45.2971540  17.3484330  33.6958580
  45.0155810  17.8517930  32.9319400  45.6791240  16.5506080  33.3300710
  44.1880640  34.6159990  18.4826260  44.9199460  34.3319270  17.9350150
  44.4474310  34.3773270  19.3725640  43.3495430  30.7324720  18.4872590
  42.7204310  31.2009820  19.0358420  43.4643260  29.8873940  18.9218780
  51.8987000  16.7637910  34.2739050  51.7852450  17.0832520  35.1690570
  52.7156740  17.1650420  33.9776330  54.6785490  33.9109440  33.7557740
  55.4710810  33.4158670  33.5483700  54.9718640  34.5899580  34.3633350
  50.8045150  24.7830380   4.6373790  50.7239200  23.8684990   4.3665500
  50.3909570  25.2797450   3.9313500  48.9363190  26.5609400   6.5183060
  48.1605290  26.0809840   6.8081630  49.5876120  25.8815050   6.3439220
  42.9529020  26.8729210   7.3958820  42.1213900  26.6177920   7.7955330
  43.5610000  26.9439980   8.1316740  52.9570620  30.9669590   5.2982190
  52.4952150  30.1956830   5.6269360  53.7696170  30.9935660   5.8034640
  42.9330280  30.9069300   7.5916840  43.2358320  30.0167040   7.4127060
  43.6773870  31.4639520   7.3639090  39.3253980  24.4336750   7.0640910
  39.8970090  23.6658950   7.0644550  39.3255520  24.7325510   6.1547520
  49.1833930  33.2527600   4.9186180  48.5645370  33.7085100   4.3480620
  50.0385710  33.4079060   4.5175880  48.3772180  29.2366590   6.5253220
  48.3080460  28.2956530   6.3642350  49.1392040  29.3268000   7.0975790
  40.5678850  19.8421110   8.8509840  40.3881690  18.9446860   9.1312600
  40.1658930  20.3892980   9.5256790  49.4077350  22.0436970   6.7522150
  49.7842170  21.1708850   6.6395820  49.3096860  22.3795670   5.8612590
  43.5382360  20.4162600   2.2139590  43.6449110  21.3166330   2.5208350
  42.6274720  20.3680570   1.9234240  53.1901470  19.5387410   3.6850490
  54.0111090  19.0483980   3.7275970  53.2235550  20.1285070   4.4382330
  41.1865520  22.3381610   7.4592180  41.8675630  22.6019980   8.0779580
  40.8713570  21.4982480   7.7930190  45.3790090  23.3848970   6.5464770
  45.8868310  23.8829940   7.1869790  45.9103330  22.6084170   6.3704130
  57.4801020  21.5554160  10.2494120  56.7753190  21.9435870   9.7309230
  57.7458940  22.2504450  10.8515050  43.6626190  18.0247530  10.8128190
  43.6644630  18.5419920  10.0074090  42.8330500  17.5477710  10.7898120
  50.0497280  28.1366840   2.3118090  49.4314550  28.6016290   1.7480810
  50.5620530  28.8294320   2.7287600  44.9129040  27.6642710   8.9901690
  44.5798420  28.2911630   9.6322760  45.0895720  28.1904590   8.2103360
  53.4262950  21.4787790   6.4578030  52.7218520  21.7672680   7.0381140
  53.7875110  22.2887900   6.0977590  43.3441520  19.7357490   8.8198640
  43.6858330  20.5799540   8.5252510  42.4057330  19.8841230   8.9363980
  44.1248140  29.6323510  10.8050870  44.7422140  30.3074590  10.5235320
  43.2641260  30.0411490  10.7138370  55.0425730  31.0962920   8.7205510
  54.3589250  31.7662030   8.7122180  55.5820020  31.2943570   7.9550370
  56.4949870  20.9242580   6.8487240  55.5474780  20.9581560   6.9802670
  56.8199860  21.7381530   7.2336600  47.0269410  17.2239760   5.1443230
  47.3344390  16.6686650   4.4278730  46.0970110  17.3584220   4.9616220
  52.5784470  32.9407050   7.4350690  52.5911630  32.5369340   6.5672950
  52.0259690  33.7154340   7.3312120  53.8729890  29.6623270   2.5240860
  53.7626220  28.7197600   2.6490280  53.8698140  30.0238910   3.4103620
  51.9769910  27.8436890   8.7633300  52.3938700  27.6297000   7.9286760
  52.7009730  28.1009680   9.3341920  49.4150170  25.2888590   1.8803350
  48.4879450  25.2225970   2.1091820  49.5674990  26.2268720   1.7658590
  55.9232010  26.2424110   8.8549540  55.0950640  26.3117200   8.3799670
  56.5182490  26.8278420   8.3865370  53.4447460  26.8508890   2.3838600
  52.8259880  26.5128440   1.7364900  53.4271910  26.2068650   3.0917790
  52.8874020  23.0293430   9.8004410  52.4745200  23.8547140  10.0544400
  52.1549970  22.4438470   9.6080770  45.0206810  25.8153330   4.6623080
  44.6163810  25.1030580   4.1668980  45.1069930  25.4706570   5.5511120
  45.4888510  29.5020890   6.8262290  45.1916800  28.8966360   6.1470070
  46.4388330  29.5398200   6.7151650  43.7335430  22.5896540   8.4422120
  44.2850020  22.6991880   7.6675370  44.2478940  22.9634140   9.1577350
  53.5774120  33.0752760  10.4885390  53.1004680  33.8824950  10.2958000
  52.8935910  32.4231090  10.6411600  44.5806940  29.2402580  13.4770090
  43.6835470  29.4642550  13.7243490  44.6059810  29.3637520  12.5281490
  43.4078160  26.1115900  12.0527460  43.2685930  26.9838700  12.4214860
  42.5259520  25.7688710  11.9075400  49.7307540  31.0291770   3.3592590
  50.1703450  31.7716100   2.9447980  49.6694430  31.2718340   4.2831550
  45.2058510  32.0537600  14.2612610  45.1773940  32.4580550  13.3941040
  45.0423480  31.1247960  14.0984210  57.1573330  32.8364700  15.5576780
  57.6333050  33.3147590  16.2365860  57.7780490  32.7682190  14.8322280
  39.3596810  27.8813450   7.9698370  39.4377230  28.0162220   7.0254090
  39.9738490  27.1729340   8.1626490  40.6044440  29.5813640   4.3804550
  40.1972520  29.7228230   3.5258150  41.4957450  29.2973800   4.1775760
  56.5606580  30.0277550  12.7176790  56.6869640  29.7889430  11.7993970
  56.6027960  29.1962090  13.1898870  50.4223320  33.7305550  11.2871600
  50.9367990  33.6413560  12.0894030  49.5792400  34.0765250  11.5799510
  44.8766100  33.7959420   2.4927220  44.7008580  32.8794960   2.2795020
  44.0221840  34.1546710   2.7325020  51.6653780  33.1511160   3.3502090
  52.1210730  32.3700540   3.6640710  52.0046300  33.8617980   3.8943270
  56.4130590  22.0810010  13.6826530  55.7974860  22.5889680  13.1541990
  56.0927010  21.1808340  13.6252470  39.4156330  28.9227620  10.5092830
  39.5787370  28.4532980   9.6912200  39.8808780  28.4151180  11.1741670
  44.1875100  18.0533380   5.5453400  43.7443250  18.8342920   5.2137920
  44.7460090  18.3763270   6.2524340  48.4744910  20.9201900  11.1488720
  48.0124280  21.1284920  11.9608660  48.0723020  20.1061250  10.8459390
  53.4749420  22.1410850  12.2785380  52.6243010  21.8416600  12.5994450
  53.3151210  22.3852860  11.3669200  50.5699130  23.6412600  14.3784170
  50.8952540  22.8076350  14.0386400  51.3579460  24.1641120  14.5262500
  46.2251000  18.5980710   7.4043000  46.5223330  19.5043540   7.3235020
  46.7736560  18.1099490   6.7902570  43.9789320  23.1766950   3.2734650
  43.7530240  22.9604120   4.1781270  43.1981850  23.6095410   2.9280620
  46.4188530  24.0752530  13.9394920  46.3232130  23.1347260  13.7895320
  47.2620510  24.2967600  13.5442990  49.8151950  21.8193860   3.9028580
  50.2081520  22.1366060   3.0897270  50.1768800  20.9405740   4.0173100
  41.5499070  20.4866200  12.0928700  41.1562460  21.3341410  12.3001480
  40.8617470  19.8492570  12.2837340  48.1244120  20.5701170  15.1625440
  47.4342440  20.3773370  15.7971530  48.8676420  20.8535810  15.6949740
  38.8516120  18.4094660   6.1258780  38.5629170  18.9797520   6.8383760
  39.5961880  17.9299110   6.4890010  50.4007090  24.4099610   7.9979360
  49.6688210  24.9186420   8.3469460  50.0031430  23.5929590   7.6968140
  46.8384480  21.0853810   6.4031850  46.8420540  20.6443760   5.5536390
  47.7335600  21.4071140   6.5103670  42.6886860  20.9680300   5.3626060
  42.3486910  21.4455530   6.1193110  41.9264180  20.5145420   5.0027160
  50.8633000  19.8633290   7.4102300  50.8805740  20.3141940   8.2544150
  50.6148580  18.9638930   7.6235740  54.2903750  17.2765470  13.2488680
  54.6149520  16.5455130  13.7746660  54.3260260  16.9579110  12.3469670
  40.9895310  28.2979050  12.6688640  40.6050100  27.6572720  13.2671600
  41.3007500  29.0015170  13.2383370  47.1392450  25.1455590   8.1497260
  47.5062580  24.6714160   8.8958600  46.9497510  26.0197160   8.4905600
  40.0032940  19.8899280   4.2790730  39.7179860  19.5254950   5.1169350
  39.9411800  19.1579740   3.6653870  44.9291820  24.1864230  10.4681470
  44.6248890  25.0656210  10.6931830  45.8838280  24.2464020  10.5038910
  54.2161590  27.3890580   6.8574710  54.9360710  27.8845870   6.4670820
  54.0143410  26.7108470   6.2128580  49.5980390  27.4599640  12.7443710
  49.5317700  26.5395310  12.4901300  48.9685530  27.5575080  13.4588350
  43.5011010  28.0605600   4.7027130  44.0189680  27.2573860   4.6484020
  43.0495030  27.9984740   5.5443960  40.9855550  25.0266970  11.6152830
  40.6270490  25.6920820  12.2026170  40.6910110  24.1950520  11.9865450
  44.1868670  25.4851210  14.4992380  43.8868810  25.6308390  13.6020200
  44.9579910  24.9256500  14.4065770  49.5297120  30.2820210  12.4947510
  49.5441660  29.3501170  12.2766420  48.8222220  30.3679970  13.1337280
  55.7408330  26.9227550  11.8416090  55.0156520  27.5156330  11.6445480
  56.2683790  26.9151090  11.0429460  51.2707920  28.6487720   5.3399940
  51.6231740  28.0515850   4.6801310  50.3870250  28.3231950   5.5108190
  47.3571200  29.4085410   2.7470350  48.0442330  29.9554620   3.1277940
  46.5703620  29.9526140   2.7819960  46.6598410  26.4131440   2.3595710
  47.1161190  27.2236690   2.5855900  46.3086620  26.0954580   3.1914200
  48.9631020  31.9237780   9.5888010  49.6073240  32.1297160  10.2661430
  49.3260460  31.1626180   9.1358860  42.5610190  16.7569090   2.8318230
  42.4324820  16.7486990   3.7803150  41.7372210  17.0952180   2.4809240
  50.2363100  29.9270130   8.3065460  50.8785330  29.2263290   8.4197630
  50.7612450  30.7068570   8.1262350  52.0100720  30.7265030  11.5101520
  52.3456960  31.3131720  12.1879440  51.0901060  30.5957740  11.7399310
  39.5604120  18.5160210  12.2924930  38.8462640  18.7157130  12.8977540
  39.9799160  17.7399780  12.6639730  39.8476710  32.5040470  13.2791460
  39.9567830  31.5635210  13.1386850  39.1957270  32.7695220  12.6305190
  47.8389300  30.7756360  14.6789580  47.5186170  30.0565600  15.2235270
  47.1647660  31.4511430  14.7525640  51.0542900  21.0082520  10.0426380
  51.4223720  20.1877730  10.3705950  50.1941100  21.0684410  10.4582030
  46.3888960  22.2425410   2.2671820  45.6805110  22.7111750   2.7085430
  46.6733440  21.5847420   2.9017010  48.0144890  23.6622110  10.2664350
  48.5130140  24.1367930  10.9316200  48.1567840  22.7385630  10.4734380
  50.4204390  18.9676070   3.7067610  50.2972170  18.9862200   2.7577120
  51.3688950  19.0155010   3.8266010  47.5081180  34.2031370   2.9795590
  47.7622680  34.1652760   2.0574960  46.5593660  34.0764700   2.9723840
  55.2211750  19.8790070  11.1092740  54.7185350  20.6195470  11.4486550
  56.0368410  20.2674070  10.7929530  53.5133760  25.1223250   4.5554100
  52.5723900  25.1373480   4.7301790  53.8277830  24.3359210   5.0014400
  55.5159340  32.2932100   6.2308360  55.6406760  33.1163270   6.7032170
  56.3824900  32.0822830   5.8832510  42.9876870  34.3863310   5.9025490
  43.7239350  33.8378770   6.1734060  43.3717790  35.2519320   5.7631480
  39.8722350  30.4536880   1.7767000  38.9462130  30.6958020   1.7672410
  40.3378780  31.2811140   1.6551750  41.9935150  33.5709380  15.0911070
  42.7947880  33.8921430  15.5046470  41.4786970  33.2104960  15.8130980
  50.8299780  29.6789250  15.0386480  50.2237940  29.7020850  14.2982230
  50.5253890  28.9472290  15.5753730  52.2600150  33.4069540  13.6495890
  53.2121900  33.3227560  13.5996130  52.1128370  34.0711250  14.3229680
  39.7132960  26.0582840  14.0347120  40.2171980  25.4790120  14.6063350
  38.9740380  26.3423070  14.5723490  46.7670900  27.4653830  13.5682640
  46.0016570  28.0338830  13.4837310  46.9486860  27.1730040  12.6750870
  53.9094250  29.1959160  14.1257660  54.6503720  29.5334920  13.6225120
  53.1466930  29.3651220  13.5727430  41.7456040  24.2012430  14.9297190
  41.7861380  23.9026300  15.8382420  42.6001540  24.6020040  14.7704710
  43.6861850  22.7804530  12.8971680  43.1558310  22.2895480  12.2695020
  44.3549920  23.2088730  12.3629610  52.5839910  27.2473990  12.6612870
  52.9980930  27.4019070  13.5103290  51.6490910  27.3729210  12.8238650
  53.0562080  24.5870150  14.6652020  53.6382850  23.8322470  14.5772500
  53.2323850  25.1177590  13.8883500  44.1734150  19.7466900  12.9768970
  44.0791020  19.1287650  12.2519840  43.5931540  20.4733190  12.7498880
  46.9395590  18.3040140  10.0096360  46.4912890  18.3264400   9.1641910
  46.3060790  17.9059160  10.6066660  47.3455140  27.1994470  10.6308800
  47.7643250  28.0427200  10.4585040  46.4263770  27.3366510  10.4015580
  49.6819040  24.9310650  12.0146640  49.8015250  24.3351790  12.7541480
  50.5413040  24.9680340  11.5947940  52.0206940  25.4847840  10.5909150
  51.4942160  26.0090460   9.9874290  52.3638280  26.1175230  11.2218880
  45.1962560  33.5047480  11.7466530  44.6583650  34.2293540  11.4275230
  45.4496520  33.0277820  10.9563870  46.4487810  21.4732000  13.2722460
  47.0387500  21.1647850  13.9600280  45.6308050  21.0011750  13.4282360
  51.2681240  21.0897810  13.5055480  50.5796760  20.4279350  13.4405470
  51.9887260  20.6436080  13.9503940  48.0524770  34.7398690  12.0053180
  47.9783470  35.6433830  12.3125550  47.1503610  34.4210590  11.9775250
  39.4552060  32.0673280   5.3086800  39.7855070  31.1994340   5.0765440
  39.8843060  32.2731800   6.1391760  44.0513980  30.3982290   2.9688770
  43.7509520  30.2747260   3.8692680  43.9451470  29.5390880   2.5604500
  39.9442270  32.9343870   8.0468430  39.5073260  33.1144670   8.8792580
  40.5119950  33.6918490   7.9050150  55.5804450  32.4360870  12.3345740
  54.9806440  32.4953430  11.5909660  55.7098350  31.4965850  12.4642590
  39.7766700  25.4464100   4.4057310  39.1215540  25.1775740   3.7617010
  40.6144650  25.3368580   3.9559290  57.2822330  27.7776270   5.0191580
  57.6531160  26.9943590   4.6127550  57.9224260  28.4665370   4.8408880
  54.2656090  29.1612850  10.4321900  53.4515930  29.5910010  10.6947690
  54.6730290  29.7731260   9.8190950  56.2246870  25.1529530   2.3251600
  55.8490470  24.3857460   1.8932890  55.4949990  25.5352230   2.8126530
  40.8142630  25.8316670   8.9460650  41.1815670  25.7444070   9.8256670
  40.2453450  25.0683220   8.8467510  55.6146490  24.3001050  11.9591120
  55.3832580  24.0713800  11.0589070  55.8751040  25.2200600  11.9136010
  40.3658630  22.7425760  12.8519070  39.4714680  22.7092520  13.1912780
  40.9056180  22.9412550  13.6170320  54.0534560  19.5257480  14.7370820
  54.9304740  19.5340880  15.1204820  54.0655400  18.7888320  14.1263170
  55.4997830  23.3787020   5.6258840  56.0235310  22.8849670   4.9949010
  56.0857250  23.5137380   6.3706410  55.6787550  23.4626890   9.1478390
  54.7290260  23.4290430   9.2623380  55.8600560  24.3727000   8.9128160
  40.8698340  17.0174090   7.2002290  41.5174530  16.4671470   6.7597450
  41.2900180  17.2717240   8.0218100  56.4184960  21.2721320   4.0988930
  56.3084240  21.1177360   5.0371200  57.1792550  20.7442260   3.8564340
  54.7650680  17.2115450  10.5571930  55.4022900  17.8249590  10.9231120
  54.9125570  17.2476110   9.6121160  54.3232140  33.9131450   3.9590170
  54.9191210  33.5916020   3.2824590  54.5810290  33.4403270   4.7503440
  40.6230340  17.1729760   9.9427610  40.2745160  17.6293580  10.7085790
  40.2918040  16.2786890  10.0250040  42.2294710  30.3449360  14.1080800
  42.1864340  29.9742270  14.9895260  42.3605720  31.2826930  14.2482620
  45.9300740  31.9008950   9.7090520  45.6892100  32.1683510   8.8221040
  46.8703380  32.0714680   9.7641380  48.1355160  18.3641640  13.4647030
  48.0744050  18.9563470  14.2142440  49.0755540  18.2567600  13.3197290
  50.7729720  18.0211700  13.1039320  51.3870130  18.3390990  12.4420400
  51.3179280  17.5360290  13.7235180  57.1904900  33.9203330  10.5101160
  56.6963180  34.3172200   9.7928290  56.5818190  33.2952540  10.9038440
  41.2950980  16.7005960  13.2178380  41.8433970  16.5194010  12.4544490
  41.3606290  15.9100070  13.7534690  42.0682740  33.2911610  11.2278580
  41.4743060  33.1596310  11.9668620  42.0606580  32.4549750  10.7620680
  51.5137760  16.5843840   9.4308610  50.6397600  16.9178950   9.2281540
  51.4048510  16.1117020  10.2560480  52.4209740  18.7914710  10.8150330
  52.0923100  17.9766470  10.4352060  53.3692040  18.7484520  10.6916020
  54.8744350  34.5626750   7.7887900  54.4147320  35.3142560   7.4145920
  54.2456810  33.8433220   7.7302700  41.6994970  30.6569990  10.1786620
  40.9729030  30.0375280  10.1112570  41.7604120  31.0510600   9.3084700
  45.3040070  32.8714990   6.9636030  45.8205090  32.2602350   6.4384290
  45.9537450  33.3743770   7.4547040  48.0435570  33.7623480   7.7905010
  48.3313380  33.5077780   6.9138020  48.5558790  33.2100840   8.3810580
  49.2612580  17.5013680   8.3701520  48.4784370  17.9759180   8.6498280
  48.9675510  16.5968510   8.2614700  53.8133650  18.2036780   6.4150610
  54.2541740  18.1481880   5.5672210  53.5441240  19.1194790   6.4860790
  55.6772220  17.8352020   4.4259430  55.6160620  16.8913240   4.2790450
  56.4564250  17.9432110   4.9712890  39.9824970  33.9744380   3.3883380
  39.8147010  33.3415060   4.0865270  39.1159480  34.1803780   3.0377570
  47.1466800  19.9200430   3.8817550  46.3341310  19.5457320   3.5413430
  47.6508440  19.1645510   4.1838740  51.6491780  16.5842880   5.1200620
  52.2521150  17.1563090   5.5949140  50.9084770  17.1482320   4.8974520
  45.1715980  18.0700350   2.4862600  44.5418720  17.3687660   2.6532730
  44.6321120  18.8304480   2.2695760  48.1107930  34.6839580  15.1573210
  49.0375240  34.4483850  15.2009170  48.0958360  35.5111580  14.6759240
  45.2971540  17.3484330  14.9215090  45.0155810  17.8517930  14.1575910
  45.6791240  16.5506080  14.5557220  51.8987000  16.7637910  15.4995560
  51.7852450  17.0832520  16.3947080  52.7156740  17.1650420  15.2032840
  54.6785490  33.9109440  14.9814250  55.4710810  33.4158670  14.7740210
  54.9718640  34.5899580  15.5889860  50.8045150   6.0086890  79.7347750
  50.7239200   5.0941500  79.4639460  50.3909570   6.5053960  79.0287460
  48.9363190   7.7865910  81.6157020  48.1605290   7.3066350  81.9055590
  49.5876120   7.1071560  81.4413180  42.9529020   8.0985720  82.4932780
  42.1213900   7.8434430  82.8929290  43.5610000   8.1696490  83.2290700
  52.9570620  12.1926100  80.3956150  52.4952150  11.4213340  80.7243320
  53.7696170  12.2192170  80.9008600  42.9330280  12.1325810  82.6890800
  43.2358320  11.2423550  82.5101020  43.6773870  12.6896030  82.4613050
  41.3620970   3.0587610  76.2775170  40.4737670   3.4003580  76.1755050
  41.6462160   2.8587930  75.3856000  39.3253980   5.6593260  82.1614870
  39.8970090   4.8915460  82.1618510  39.3255520   5.9582020  81.2521480
  49.1833930  14.4784110  80.0160140  48.5645370  14.9341610  79.4454580
  50.0385710  14.6335570  79.6149840  48.3772180  10.4623100  81.6227180
  48.3080460   9.5213040  81.4616310  49.1392040  10.5524510  82.1949750
  49.4077350   3.2693480  81.8496110  49.7842170   2.3965360  81.7369780
  49.3096860   3.6052180  80.9586550  41.1865520   3.5638120  82.5566140
  41.8675630   3.8276490  83.1753540  40.8713570   2.7238990  82.8904150
  45.3790090   4.6105480  81.6438730  45.8868310   5.1086450  82.2843750
  45.9103330   3.8340680  81.4678090  57.4801020   2.7810670  85.3468080
  56.7753190   3.1692380  84.8283190  57.7458940   3.4760960  85.9489010
  50.0497280   9.3623350  77.4092050  49.4314550   9.8272800  76.8454770
  50.5620530  10.0550830  77.8261560  44.9129040   8.8899220  84.0875650
  44.5798420   9.5168140  84.7296720  45.0895720   9.4161100  83.3077320
  53.4262950   2.7044300  81.5551990  52.7218520   2.9929190  82.1355100
  53.7875110   3.5144410  81.1951550  44.1248140  10.8580020  85.9024830
  44.7422140  11.5331100  85.6209280  43.2641260  11.2668000  85.8112330
  39.4180480  10.0479880  74.7831680  39.0408460  10.5366980  74.0516580
  39.6753550  10.7205160  75.4138210  55.0425730  12.3219430  83.8179470
  54.3589250  12.9918540  83.8096140  55.5820020  12.5200080  83.0524330
  56.4949870   2.1499090  81.9461200  55.5474780   2.1838070  82.0776630
  56.8199860   2.9638040  82.3310560  52.5784470  14.1663560  82.5324650
  52.5911630  13.7625850  81.6646910  52.0259690  14.9410850  82.4286080
  53.8729890  10.8879780  77.6214820  53.7626220   9.9454110  77.7464240
  53.8698140  11.2495420  78.5077580  51.9769910   9.0693400  83.8607260
  52.3938700   8.8553510  83.0260720  52.7009730   9.3266190  84.4315880
  49.4150170   6.5145100  76.9777310  48.4879450   6.4482480  77.2065780
  49.5674990   7.4525230  76.8632550  49.4019250   2.7862100  73.9744470
  48.4622920   2.9476060  74.0596930  49.7202510   3.5047780  73.4280460
  55.9232010   7.4680620  83.9523500  55.0950640   7.5373710  83.4773630
  56.5182490   8.0534930  83.4839330  53.4447460   8.0765400  77.4812560
  52.8259880   7.7384950  76.8338860  53.4271910   7.4325160  78.1891750
  52.8874020   4.2549940  84.8978370  52.4745200   5.0803650  85.1518360
  52.1549970   3.6694980  84.7054730  45.0206810   7.0409840  79.7597040
  44.6163810   6.3287090  79.2642940  45.1069930   6.6963080  80.6485080
  45.4888510  10.7277400  81.9236250  45.1916800  10.1222870  81.2444030
  46.4388330  10.7654710  81.8125610  43.7335430   3.8153050  83.5396080
  44.2850020   3.9248390  82.7649330  44.2478940   4.1890650  84.2551310
  53.5774120  14.3009270  85.5859350  53.1004680  15.1081460  85.3931960
  52.8935910  13.6487600  85.7385560  51.6212160   7.3152210  74.4885310
  52.0605440   6.4774640  74.3423130  52.3340580   7.9481610  74.5749450
  49.7307540  12.2548280  78.4566550  50.1703450  12.9972610  78.0421940
  49.6694430  12.4974850  79.3805510  41.7211440   5.9354820  77.2603690
  41.6009040   6.6616910  76.6484960  41.4112330   5.1657730  76.7831600
  39.3596810   9.1069960  83.0672330  39.4377230   9.2418730  82.1228050
  39.9738490   8.3985850  83.2600450  40.6044440  10.8070150  79.4778510
  40.1972520  10.9484740  78.6232110  41.4957450  10.5230310  79.2749720
  52.3977720  15.2417400  75.8129560  52.2378860  14.9520340  76.7111390
  52.2324430  14.4657530  75.2774790  44.8766100  15.0215930  77.5901180
  44.7008580  14.1051470  77.3768980  44.0221840  15.3803220  77.8298980
  52.1003850  12.7504960  74.3727560  51.4069010  12.7482250  73.7129840
  52.8426710  12.3264280  73.9421730  51.6653780  14.3767670  78.4476050
  52.1210730  13.5957050  78.7614670  52.0046300  15.0874490  78.9917230
  43.9789320   4.4023460  78.3708610  43.7530240   4.1860630  79.2755230
  43.1981850   4.8351920  78.0254580  51.2087080   4.4086830  76.9699260
  50.6095970   5.1322630  76.7862880  51.7566690   4.3463610  76.1875710
  49.8151950   3.0450370  79.0002540  50.2081520   3.3622570  78.1871230
  50.1768800   2.1662250  79.1147060  39.0386350   3.5771290  72.4335460
  38.9561020   4.5202050  72.5750450  38.6869410   3.4346200  71.5547810
  50.4007090   5.6356120  83.0953320  49.6688210   6.1442930  83.4443420
  50.0031430   4.8186100  82.7942100  46.8384480   2.3110320  81.5005810
  46.8420540   1.8700270  80.6510350  47.7335600   2.6327650  81.6077630
  42.6886860   2.1936810  80.4600020  42.3486910   2.6712040  81.2167070
  41.9264180   1.7401930  80.1001120  46.9004630   3.3122400  74.4912570
  47.0217450   3.2708880  75.4398390  46.5153140   4.1746550  74.3359300
  45.9126130   5.6223540  73.8895870  45.3443030   5.1741790  73.2631780
  46.6215130   5.9816320  73.3561020  47.1392450   6.3712100  83.2471220
  47.5062580   5.8970670  83.9932560  46.9497510   7.2453670  83.5879560
  44.9291820   5.4120740  85.5655430  44.6248890   6.2912720  85.7905790
  45.8838280   5.4720530  85.6012870  43.4573610   9.6181730  76.1622280
  42.6835870   9.0779350  76.0021000  44.1868240   9.0988340  75.8240040
  54.2161590   8.6147090  81.9548670  54.9360710   9.1102380  81.5644780
  54.0143410   7.9364980  81.3102540  52.3919920   4.3804700  74.3940220
  53.2799540   4.6921930  74.2191560  52.3625010   3.5076950  74.0020800
  43.5011010   9.2862110  79.8001090  44.0189680   8.4830370  79.7457980
  43.0495030   9.2241250  80.6417920  48.3880510  10.5528390  75.0728390
  48.7296210  11.2970620  74.5771710  47.5593220  10.8659510  75.4353220
  54.6634190   5.6916540  73.8620080  54.5797910   6.1230760  73.0116520
  55.3828380   6.1514890  74.2946900  55.6921440  12.5458800  76.5902210
  55.0497600  11.8914420  76.8645930  55.3052100  12.9513890  75.8142880
  51.2707920   9.8744230  80.4373900  51.6231740   9.2772360  79.7775270
  50.3870250   9.5488460  80.6082150  47.3571200  10.6341920  77.8444310
  48.0442330  11.1811130  78.2251900  46.5703620  11.1782650  77.8793920
  39.4963600   6.2514740  73.3361390  40.3658450   6.5339540  73.6197310
  39.0053920   7.0650610  73.2210200  46.6598410   7.6387950  77.4569670
  47.1161190   8.4493200  77.6829860  46.3086620   7.3211090  78.2888160
  48.9631020  13.1494290  84.6861970  49.6073240  13.3553670  85.3635390
  49.3260460  12.3882690  84.2332820  50.2363100  11.1526640  83.4039420
  50.8785330  10.4519800  83.5171590  50.7612450  11.9325080  83.2236310
  54.0818820  11.4375260  73.1278560  53.8556400  10.7205700  73.7203200
  53.6915020  11.1887700  72.2900310  39.8634850  15.4642120  73.9023020
  40.2232490  16.0631460  73.2480290  39.7227190  16.0102010  74.6758050
  53.6635070   9.3547200  74.7892720  53.3756770   9.8159890  75.5770600
  54.4587240   8.8944970  75.0576940  45.8803470  12.8473320  74.7196690
  45.8713570  13.5803010  74.1041200  44.9601830  12.6004900  74.8123650
  41.4810110   8.0688210  75.4643450  40.8738060   8.8087110  75.4738750
  41.9559460   8.1587570  74.6381650  48.8663070  12.9101560  73.3821880
  48.9675050  12.7065550  72.4523860  47.9664810  12.6559840  73.5869660
  46.3888960   3.4681920  77.3645780  45.6805110   3.9368260  77.8059390
  46.6733440   2.8103930  77.9990970  47.5081180  15.4287880  78.0769550
  47.7622680  15.3909270  77.1548920  46.5593660  15.3021210  78.0697800
  44.5923980   1.7767000  74.7396490  45.4414510   2.2137150  74.6736680
  44.2255250   2.0887260  75.5668550  53.5133760   6.3479760  79.6528060
  52.5723900   6.3629990  79.8275750  53.8277830   5.5615720  80.0988360
  43.4915400   8.0299360  73.2132020  44.2578670   7.9180720  73.7757450
  43.5690090   7.3337330  72.5608790  42.1862160   5.4624430  73.8964910
  42.2665750   4.5151940  74.0082310  43.0781910   5.7931310  74.0025570
  55.5159340  13.5188610  81.3282320  55.6406760  14.3419780  81.8006130
  56.3824900  13.3079340  80.9806470  42.9876870  15.6119820  80.9999450
  43.7239350  15.0635280  81.2708020  43.3717790  16.4775830  80.8605440
  39.8722350  11.6793390  76.8740960  38.9462130  11.9214530  76.8646370
  40.3378780  12.5067650  76.7525710  46.0979180  14.7850130  72.8225020
  46.8907790  15.0738960  72.3706810  45.5783530  14.3542300  72.1437500
  55.1509350  14.0120260  74.2461760  54.8650860  13.5985400  73.4315940
  54.9528900  14.9407970  74.1262280  46.6156580  10.0053540  72.6867370
  46.5107220   9.3905890  73.4128750  46.4480800   9.4819430  71.9030380
  49.8559310   9.0673570  73.2909360  49.3069410   9.5142870  73.9352100
  50.4778570   8.5622820  73.8147030  45.5234430   8.0264490  75.1874660
  45.9450850   7.8604360  76.0306050  45.6485270   7.2164720  74.6929800
  48.0362070   7.0502100  72.4351760  48.5567730   6.3351120  72.0692910
  48.6830470   7.6887970  72.7352270  47.3455140   8.4250980  85.7282760
  47.7643250   9.2683710  85.5559000  46.4263770   8.5623020  85.4989540
  44.4193330   4.0997720  72.1332820  44.2182390   3.2365080  72.4946160
  44.2485380   4.0131080  71.1954420  48.6010100  15.1313710  74.7253500
  49.4960890  15.4698680  74.7472260  48.6327730  14.4093120  74.0977780
  42.2406260  10.5040760  72.9540500  42.6781130  11.0470430  73.6098080
  42.7253990   9.6787710  72.9636840  39.4552060  13.2929790  80.4060760
  39.7855070  12.4250850  80.1739400  39.8843060  13.4988310  81.2365720
  44.0513980  11.6238800  78.0662730  43.7509520  11.5003770  78.9666640
  43.9451470  10.7647390  77.6578460  39.9442270  14.1600380  83.1442390
  39.5073260  14.3401180  83.9766540  40.5119950  14.9175000  83.0024110
  56.8205900  11.4035200  72.7689410  55.9898860  11.4711850  73.2396640
  56.9977730  12.2939320  72.4656270  56.2762360   8.1482680  75.2723610
  57.0381270   8.7179330  75.3783300  56.2916730   7.5809880  76.0431920
  39.7766700   6.6720610  79.5031270  39.1215540   6.4032250  78.8590970
  40.6144650   6.5625090  79.0533250  57.2822330   9.0032780  80.1165540
  57.6531160   8.2200100  79.7101510  57.9224260   9.6921880  79.9382840
  54.2656090  10.3869360  85.5295860  53.4515930  10.8166520  85.7921650
  54.6730290  10.9987770  84.9164910  56.3281530   8.4417050  72.4296130
  56.6030370   9.3495930  72.3015350  56.1392270   8.3779580  73.3658120
  56.2246870   6.3786040  77.4225560  55.8490470   5.6113970  76.9906850
  55.4949990   6.7608740  77.9100490  40.8142630   7.0573180  84.0434610
  41.1815670   6.9700580  84.9230630  40.2453450   6.2939730  83.9441470
  38.9904780   3.8819540  75.4456600  38.0868860   4.1449740  75.2708260
  39.4745400   4.1530710  74.6656560  55.4997830   4.6043530  80.7232800
  56.0235310   4.1106180  80.0922970  56.0857250   4.7393890  81.4680370
  55.6787550   4.6883400  84.2452350  54.7290260   4.6546940  84.3597340
  55.8600560   5.5983510  84.0102120  41.5331990   2.9385080  73.3550980
  42.2423690   2.5168300  72.8698260  40.8171930   3.0060310  72.7234330
  54.9897800   3.8616880  76.6625210  55.4856920   3.6287750  77.4474090
  54.7913870   3.0228720  76.2462850  56.4184960   2.4977830  79.1962890
  56.3084240   2.3433870  80.1345160  57.1792550   1.9698770  78.9538300
  54.3232140  15.1387960  79.0564130  54.9191210  14.8172530  78.3798550
  54.5810290  14.6659780  79.8477400  45.9300740  13.1265460  84.8064480
  45.6892100  13.3940020  83.9195000  46.8703380  13.2971190  84.8615340
  54.8744350  15.7883260  82.8861860  54.4147320  16.5399070  82.5119880
  54.2456810  15.0689730  82.8276660  41.6994970  11.8826500  85.2760580
  40.9729030  11.2631790  85.2086530  41.7604120  12.2767110  84.4058660
  45.3040070  14.0971500  82.0609990  45.8205090  13.4858860  81.5358250
  45.9537450  14.6000280  82.5521000  48.0435570  14.9879990  82.8878970
  48.3313380  14.7334290  82.0111980  48.5558790  14.4357350  83.4784540
  39.9824970  15.2000890  78.4857340  39.8147010  14.5671570  79.1839230
  39.1159480  15.4060290  78.1351530  41.5887670  13.8934120  75.9307480
  41.0635290  14.2742150  75.2269440  41.5132250  14.5184890  76.6517190
  56.3452990  15.4521660  77.2521420  56.5205180  14.7659400  76.6082340
  55.6474560  15.9768710  76.8598090  44.1880640  15.8416500  74.8056730
  44.9199460  15.5575780  74.2580620  44.4474310  15.6029780  75.6956110
  43.3495430  11.9581230  74.8103060  42.7204310  12.4266330  75.3588890
  43.4643260  11.1130450  75.2449250  50.8045150   6.0086890  60.9604260
  50.7239200   5.0941500  60.6895970  50.3909570   6.5053960  60.2543970
  48.9363190   7.7865910  62.8413530  48.1605290   7.3066350  63.1312100
  49.5876120   7.1071560  62.6669690  42.9529020   8.0985720  63.7189290
  42.1213900   7.8434430  64.1185800  43.5610000   8.1696490  64.4547210
  52.9570620  12.1926100  61.6212660  52.4952150  11.4213340  61.9499830
  53.7696170  12.2192170  62.1265110  42.9330280  12.1325810  63.9147310
  43.2358320  11.2423550  63.7357530  43.6773870  12.6896030  63.6869560
  41.3620970   3.0587610  57.5031680  40.4737670   3.4003580  57.4011560
  41.6462160   2.8587930  56.6112510  39.3253980   5.6593260  63.3871380
  39.8970090   4.8915460  63.3875020  39.3255520   5.9582020  62.4777990
  49.1833930  14.4784110  61.2416650  48.5645370  14.9341610  60.6711090
  50.0385710  14.6335570  60.8406350  48.3772180  10.4623100  62.8483690
  48.3080460   9.5213040  62.6872820  49.1392040  10.5524510  63.4206260
  49.4077350   3.2693480  63.0752620  49.7842170   2.3965360  62.9626290
  49.3096860   3.6052180  62.1843060  41.1865520   3.5638120  63.7822650
  41.8675630   3.8276490  64.4010050  40.8713570   2.7238990  64.1160660
  45.3790090   4.6105480  62.8695240  45.8868310   5.1086450  63.5100260
  45.9103330   3.8340680  62.6934600  57.4801020   2.7810670  66.5724590
  56.7753190   3.1692380  66.0539700  57.7458940   3.4760960  67.1745520
  50.0497280   9.3623350  58.6348560  49.4314550   9.8272800  58.0711280
  50.5620530  10.0550830  59.0518070  44.9129040   8.8899220  65.3132160
  44.5798420   9.5168140  65.9553230  45.0895720   9.4161100  64.5333830
  53.4262950   2.7044300  62.7808500  52.7218520   2.9929190  63.3611610
  53.7875110   3.5144410  62.4208060  44.1248140  10.8580020  67.1281340
  44.7422140  11.5331100  66.8465790  43.2641260  11.2668000  67.0368840
  39.4180480  10.0479880  56.0088190  39.0408460  10.5366980  55.2773090
  39.6753550  10.7205160  56.6394720  55.0425730  12.3219430  65.0435980
  54.3589250  12.9918540  65.0352650  55.5820020  12.5200080  64.2780840
  56.4949870   2.1499090  63.1717710  55.5474780   2.1838070  63.3033140
  56.8199860   2.9638040  63.5567070  52.5784470  14.1663560  63.7581160
  52.5911630  13.7625850  62.8903420  52.0259690  14.9410850  63.6542590
  53.8729890  10.8879780  58.8471330  53.7626220   9.9454110  58.9720750
  53.8698140  11.2495420  59.7334090  51.9769910   9.0693400  65.0863770
  52.3938700   8.8553510  64.2517230  52.7009730   9.3266190  65.6572390
  49.4150170   6.5145100  58.2033820  48.4879450   6.4482480  58.4322290
  49.5674990   7.4525230  58.0889060  49.4019250   2.7862100  55.2000980
  48.4622920   2.9476060  55.2853440  49.7202510   3.5047780  54.6536970
  55.9232010   7.4680620  65.1780010  55.0950640   7.5373710  64.7030140
  56.5182490   8.0534930  64.7095840  53.4447460   8.0765400  58.7069070
  52.8259880   7.7384950  58.0595370  53.4271910   7.4325160  59.4148260
  52.8874020   4.2549940  66.1234880  52.4745200   5.0803650  66.3774870
  52.1549970   3.6694980  65.9311240  45.0206810   7.0409840  60.9853550
  44.6163810   6.3287090  60.4899450  45.1069930   6.6963080  61.8741590
  45.4888510  10.7277400  63.1492760  45.1916800  10.1222870  62.4700540
  46.4388330  10.7654710  63.0382120  43.7335430   3.8153050  64.7652590
  44.2850020   3.9248390  63.9905840  44.2478940   4.1890650  65.4807820
  53.5774120  14.3009270  66.8115860  53.1004680  15.1081460  66.6188470
  52.8935910  13.6487600  66.9642070  44.5806940  10.4659090  69.8000560
  43.6835470  10.6899060  70.0473960  44.6059810  10.5894030  68.8511960
  51.6212160   7.3152210  55.7141820  52.0605440   6.4774640  55.5679640
  52.3340580   7.9481610  55.8005960  43.4078160   7.3372410  68.3757930
  43.2685930   8.2095210  68.7445330  42.5259520   6.9945220  68.2305870
  49.7307540  12.2548280  59.6823060  50.1703450  12.9972610  59.2678450
  49.6694430  12.4974850  60.6062020  45.2058510  13.2794110  70.5843080
  45.1773940  13.6837060  69.7171510  45.0423480  12.3504470  70.4214680
  41.7211440   5.9354820  58.4860200  41.6009040   6.6616910  57.8741470
  41.4112330   5.1657730  58.0088110  57.1573330  14.0621210  71.8807250
  57.6333050  14.5404100  72.5596330  57.7780490  13.9938700  71.1552750
  39.3596810   9.1069960  64.2928840  39.4377230   9.2418730  63.3484560
  39.9738490   8.3985850  64.4856960  40.6044440  10.8070150  60.7035020
  40.1972520  10.9484740  59.8488620  41.4957450  10.5230310  60.5006230
  56.5606580  11.2534060  69.0407260  56.6869640  11.0145940  68.1224440
  56.6027960  10.4218600  69.5129340  50.4223320  14.9562060  67.6102070
  50.9367990  14.8670070  68.4124500  49.5792400  15.3021760  67.9029980
  52.3977720  15.2417400  57.0386070  52.2378860  14.9520340  57.9367900
  52.2324430  14.4657530  56.5031300  44.8766100  15.0215930  58.8157690
  44.7008580  14.1051470  58.6025490  44.0221840  15.3803220  59.0555490
  52.1003850  12.7504960  55.5984070  51.4069010  12.7482250  54.9386350
  52.8426710  12.3264280  55.1678240  51.6653780  14.3767670  59.6732560
  52.1210730  13.5957050  59.9871180  52.0046300  15.0874490  60.2173740
  56.4130590   3.3066520  70.0057000  55.7974860   3.8146190  69.4772460
  56.0927010   2.4064850  69.9482940  39.4156330  10.1484130  66.8323300
  39.5787370   9.6789490  66.0142670  39.8808780   9.6407690  67.4972140
  53.4749420   3.3667360  68.6015850  52.6243010   3.0673110  68.9224920
  53.3151210   3.6109370  67.6899670  50.5699130   4.8669110  70.7014640
  50.8952540   4.0332860  70.3616870  51.3579460   5.3897630  70.8492970
  43.9789320   4.4023460  59.5965120  43.7530240   4.1860630  60.5011740
  43.1981850   4.8351920  59.2511090  51.2087080   4.4086830  58.1955770
  50.6095970   5.1322630  58.0119390  51.7566690   4.3463610  57.4132220
  46.4188530   5.3009040  70.2625390  46.3232130   4.3603770  70.1125790
  47.2620510   5.5224110  69.8673460  49.8151950   3.0450370  60.2259050
  50.2081520   3.3622570  59.4127740  50.1768800   2.1662250  60.3403570
  39.0386350   3.5771290  53.6591970  38.9561020   4.5202050  53.8006960
  38.6869410   3.4346200  52.7804320  50.4007090   5.6356120  64.3209830
  49.6688210   6.1442930  64.6699930  50.0031430   4.8186100  64.0198610
  46.8384480   2.3110320  62.7262320  46.8420540   1.8700270  61.8766860
  47.7335600   2.6327650  62.8334140  42.6886860   2.1936810  61.6856530
  42.3486910   2.6712040  62.4423580  41.9264180   1.7401930  61.3257630
  46.9004630   3.3122400  55.7169080  47.0217450   3.2708880  56.6654900
  46.5153140   4.1746550  55.5615810  45.9126130   5.6223540  55.1152380
  45.3443030   5.1741790  54.4888290  46.6215130   5.9816320  54.5817530
  40.9895310   9.5235560  68.9919110  40.6050100   8.8829230  69.5902070
  41.3007500  10.2271680  69.5613840  47.1392450   6.3712100  64.4727730
  47.5062580   5.8970670  65.2189070  46.9497510   7.2453670  64.8136070
  44.9291820   5.4120740  66.7911940  44.6248890   6.2912720  67.0162300
  45.8838280   5.4720530  66.8269380  43.4573610   9.6181730  57.3878790
  42.6835870   9.0779350  57.2277510  44.1868240   9.0988340  57.0496550
  54.2161590   8.6147090  63.1805180  54.9360710   9.1102380  62.7901290
  54.0143410   7.9364980  62.5359050  49.5980390   8.6856150  69.0674180
  49.5317700   7.7651820  68.8131770  48.9685530   8.7831590  69.7818820
  52.3919920   4.3804700  55.6196730  53.2799540   4.6921930  55.4448070
  52.3625010   3.5076950  55.2277310  43.5011010   9.2862110  61.0257600
  44.0189680   8.4830370  60.9714490  43.0495030   9.2241250  61.8674430
  48.3880510  10.5528390  56.2984900  48.7296210  11.2970620  55.8028220
  47.5593220  10.8659510  56.6609730  40.9855550   6.2523480  67.9383300
  40.6270490   6.9177330  68.5256640  40.6910110   5.4207030  68.3095920
  44.1868670   6.7107720  70.8222850  43.8868810   6.8564900  69.9250670
  44.9579910   6.1513010  70.7296240  49.5297120  11.5076720  68.8177980
  49.5441660  10.5757680  68.5996890  48.8222220  11.5936480  69.4567750
  54.6634190   5.6916540  55.0876590  54.5797910   6.1230760  54.2373030
  55.3828380   6.1514890  55.5203410  55.7408330   8.1484060  68.1646560
  55.0156520   8.7412840  67.9675950  56.2683790   8.1407600  67.3659930
  55.6921440  12.5458800  57.8158720  55.0497600  11.8914420  58.0902440
  55.3052100  12.9513890  57.0399390  51.2707920   9.8744230  61.6630410
  51.6231740   9.2772360  61.0031780  50.3870250   9.5488460  61.8338660
  47.3571200  10.6341920  59.0700820  48.0442330  11.1811130  59.4508410
  46.5703620  11.1782650  59.1050430  39.4963600   6.2514740  54.5617900
  40.3658450   6.5339540  54.8453820  39.0053920   7.0650610  54.4466710
  46.6598410   7.6387950  58.6826180  47.1161190   8.4493200  58.9086370
  46.3086620   7.3211090  59.5144670  48.9631020  13.1494290  65.9118480
  49.6073240  13.3553670  66.5891900  49.3260460  12.3882690  65.4589330
  50.2363100  11.1526640  64.6295930  50.8785330  10.4519800  64.7428100
  50.7612450  11.9325080  64.4492820  54.0818820  11.4375260  54.3535070
  53.8556400  10.7205700  54.9459710  53.6915020  11.1887700  53.5156820
  52.0100720  11.9521540  67.8331990  52.3456960  12.5388230  68.5109910
  51.0901060  11.8214250  68.0629780  39.8634850  15.4642120  55.1279530
  40.2232490  16.0631460  54.4736800  39.7227190  16.0102010  55.9014560
  53.6635070   9.3547200  56.0149230  53.3756770   9.8159890  56.8027110
  54.4587240   8.8944970  56.2833450  39.8476710  13.7296980  69.6021930
  39.9567830  12.7891720  69.4617320  39.1957270  13.9951730  68.9535660
  47.8389300  12.0012870  71.0020050  47.5186170  11.2822110  71.5465740
  47.1647660  12.6767940  71.0756110  45.8803470  12.8473320  55.9453200
  45.8713570  13.5803010  55.3297710  44.9601830  12.6004900  56.0380160
  41.4810110   8.0688210  56.6899960  40.8738060   8.8087110  56.6995260
  41.9559460   8.1587570  55.8638160  48.8663070  12.9101560  54.6078390
  48.9675050  12.7065550  53.6780370  47.9664810  12.6559840  54.8126170
  46.3888960   3.4681920  58.5902290  45.6805110   3.9368260  59.0315900
  46.6733440   2.8103930  59.2247480  48.0144890   4.8878620  66.5894820
  48.5130140   5.3624440  67.2546670  48.1567840   3.9642140  66.7964850
  47.5081180  15.4287880  59.3026060  47.7622680  15.3909270  58.3805430
  46.5593660  15.3021210  59.2954310  44.5923980   1.7767000  55.9653000
  45.4414510   2.2137150  55.8993190  44.2255250   2.0887260  56.7925060
  53.5133760   6.3479760  60.8784570  52.5723900   6.3629990  61.0532260
  53.8277830   5.5615720  61.3244870  43.4915400   8.0299360  54.4388530
  44.2578670   7.9180720  55.0013960  43.5690090   7.3337330  53.7865300
  42.1862160   5.4624430  55.1221420  42.2665750   4.5151940  55.2338820
  43.0781910   5.7931310  55.2282080  55.5159340  13.5188610  62.5538830
  55.6406760  14.3419780  63.0262640  56.3824900  13.3079340  62.2062980
  42.9876870  15.6119820  62.2255960  43.7239350  15.0635280  62.4964530
  43.3717790  16.4775830  62.0861950  39.8722350  11.6793390  58.0997470
  38.9462130  11.9214530  58.0902880  40.3378780  12.5067650  57.9782220
  41.9935150  14.7965890  71.4141540  42.7947880  15.1177940  71.8276940
  41.4786970  14.4361470  72.1361450  46.0979180  14.7850130  54.0481530
  46.8907790  15.0738960  53.5963320  45.5783530  14.3542300  53.3694010
  50.8299780  10.9045760  71.3616950  50.2237940  10.9277360  70.6212700
  50.5253890  10.1728800  71.8984200  52.2600150  14.6326050  69.9726360
  53.2121900  14.5484070  69.9226600  52.1128370  15.2967760  70.6460150
  55.1509350  14.0120260  55.4718270  54.8650860  13.5985400  54.6572450
  54.9528900  14.9407970  55.3518790  39.7132960   7.2839350  70.3577590
  40.2171980   6.7046630  70.9293820  38.9740380   7.5679580  70.8953960
  46.6156580  10.0053540  53.9123880  46.5107220   9.3905890  54.6385260
  46.4480800   9.4819430  53.1286890  46.7670900   8.6910340  69.8913110
  46.0016570   9.2595340  69.8067780  46.9486860   8.3986550  68.9981340
  49.8559310   9.0673570  54.5165870  49.3069410   9.5142870  55.1608610
  50.4778570   8.5622820  55.0403540  53.9094250  10.4215670  70.4488130
  54.6503720  10.7591430  69.9455590  53.1466930  10.5907730  69.8957900
  41.7456040   5.4268940  71.2527660  41.7861380   5.1282810  72.1612890
  42.6001540   5.8276550  71.0935180  45.5234430   8.0264490  56.4131170
  45.9450850   7.8604360  57.2562560  45.6485270   7.2164720  55.9186310
  43.6861850   4.0061040  69.2202150  43.1558310   3.5151990  68.5925490
  44.3549920   4.4345240  68.6860080  48.0362070   7.0502100  53.6608270
  48.5567730   6.3351120  53.2949420  48.6830470   7.6887970  53.9608780
  52.5839910   8.4730500  68.9843340  52.9980930   8.6275580  69.8333760
  51.6490910   8.5985720  69.1469120  53.0562080   5.8126660  70.9882490
  53.6382850   5.0578980  70.9002970  53.2323850   6.3434100  70.2113970
  47.3455140   8.4250980  66.9539270  47.7643250   9.2683710  66.7815510
  46.4263770   8.5623020  66.7246050  49.6819040   6.1567160  68.3377110
  49.8015250   5.5608300  69.0771950  50.5413040   6.1936850  67.9178410
  52.0206940   6.7104350  66.9139620  51.4942160   7.2346970  66.3104760
  52.3638280   7.3431740  67.5449350  44.4193330   4.0997720  53.3589330
  44.2182390   3.2365080  53.7202670  44.2485380   4.0131080  52.4210930
  45.1962560  14.7303990  68.0697000  44.6583650  15.4550050  67.7505700
  45.4496520  14.2534330  67.2794340  46.4487810   2.6988510  69.5952930
  47.0387500   2.3904360  70.2830750  45.6308050   2.2268260  69.7512830
  51.2681240   2.3154320  69.8285950  50.5796760   1.6535860  69.7635940
  51.9887260   1.8692590  70.2734410  48.0524770  15.9655200  68.3283650
  47.9783470  16.8690340  68.6356020  47.1503610  15.6467100  68.3005720
  48.6010100  15.1313710  55.9510010  49.4960890  15.4698680  55.9728770
  48.6327730  14.4093120  55.3234290  42.2406260  10.5040760  54.1797010
  42.6781130  11.0470430  54.8354590  42.7253990   9.6787710  54.1893350
  39.4552060  13.2929790  61.6317270  39.7855070  12.4250850  61.3995910
  39.8843060  13.4988310  62.4622230  44.0513980  11.6238800  59.2919240
  43.7509520  11.5003770  60.1923150  43.9451470  10.7647390  58.8834970
  39.9442270  14.1600380  64.3698900  39.5073260  14.3401180  65.2023050
  40.5119950  14.9175000  64.2280620  55.5804450  13.6617380  68.6576210
  54.9806440  13.7209940  67.9140130  55.7098350  12.7222360  68.7873060
  56.8205900  11.4035200  53.9945920  55.9898860  11.4711850  54.4653150
  56.9977730  12.2939320  53.6912780  56.2762360   8.1482680  56.4980120
  57.0381270   8.7179330  56.6039810  56.2916730   7.5809880  57.2688430
  39.7766700   6.6720610  60.7287780  39.1215540   6.4032250  60.0847480
  40.6144650   6.5625090  60.2789760  57.2822330   9.0032780  61.3422050
  57.6531160   8.2200100  60.9358020  57.9224260   9.6921880  61.1639350
  54.2656090  10.3869360  66.7552370  53.4515930  10.8166520  67.0178160
  54.6730290  10.9987770  66.1421420  56.3281530   8.4417050  53.6552640
  56.6030370   9.3495930  53.5271860  56.1392270   8.3779580  54.5914630
  56.2246870   6.3786040  58.6482070  55.8490470   5.6113970  58.2163360
  55.4949990   6.7608740  59.1357000  40.8142630   7.0573180  65.2691120
  41.1815670   6.9700580  66.1487140  40.2453450   6.2939730  65.1697980
  55.6146490   5.5257560  68.2821590  55.3832580   5.2970310  67.3819540
  55.8751040   6.4457110  68.2366480  40.3658630   3.9682270  69.1749540
  39.4714680   3.9349030  69.5143250  40.9056180   4.1669060  69.9400790
  38.9904780   3.8819540  56.6713110  38.0868860   4.1449740  56.4964770
  39.4745400   4.1530710  55.8913070  55.4997830   4.6043530  61.9489310
  56.0235310   4.1106180  61.3179480  56.0857250   4.7393890  62.6936880
  55.6787550   4.6883400  65.4708860  54.7290260   4.6546940  65.5853850
  55.8600560   5.5983510  65.2358630  41.5331990   2.9385080  54.5807490
  42.2423690   2.5168300  54.0954770  40.8171930   3.0060310  53.9490840
  54.9897800   3.8616880  57.8881720  55.4856920   3.6287750  58.6730600
  54.7913870   3.0228720  57.4719360  56.4184960   2.4977830  60.4219400
  56.3084240   2.3433870  61.3601670  57.1792550   1.9698770  60.1794810
  54.3232140  15.1387960  60.2820640  54.9191210  14.8172530  59.6055060
  54.5810290  14.6659780  61.0733910  42.2294710  11.5705870  70.4311270
  42.1864340  11.1998780  71.3125730  42.3605720  12.5083440  70.5713090
  45.9300740  13.1265460  66.0320990  45.6892100  13.3940020  65.1451510
  46.8703380  13.2971190  66.0871850  57.1904900  15.1459840  66.8331630
  56.6963180  15.5428710  66.1158760  56.5818190  14.5209050  67.2268910
  42.0682740  14.5168120  67.5509050  41.4743060  14.3852820  68.2899090
  42.0606580  13.6806260  67.0851150  54.8744350  15.7883260  64.1118370
  54.4147320  16.5399070  63.7376390  54.2456810  15.0689730  64.0533170
  41.6994970  11.8826500  66.5017090  40.9729030  11.2631790  66.4343040
  41.7604120  12.2767110  65.6315170  45.3040070  14.0971500  63.2866500
  45.8205090  13.4858860  62.7614760  45.9537450  14.6000280  63.7777510
  48.0435570  14.9879990  64.1135480  48.3313380  14.7334290  63.2368490
  48.5558790  14.4357350  64.7041050  39.9824970  15.2000890  59.7113850
  39.8147010  14.5671570  60.4095740  39.1159480  15.4060290  59.3608040
  41.5887670  13.8934120  57.1563990  41.0635290  14.2742150  56.4525950
  41.5132250  14.5184890  57.8773700  48.1107930  15.9096090  71.4803680
  49.0375240  15.6740360  71.5239640  48.0958360  16.7368090  70.9989710
  56.3452990  15.4521660  58.4777930  56.5205180  14.7659400  57.8338850
  55.6474560  15.9768710  58.0854600  44.1880640  15.8416500  56.0313240
  44.9199460  15.5575780  55.4837130  44.4474310  15.6029780  56.9212620
  43.3495430  11.9581230  56.0359570  42.7204310  12.4266330  56.5845400
  43.4643260  11.1130450  56.4705760  54.6785490  15.1365950  71.3044720
  55.4710810  14.6415180  71.0970680  54.9718640  15.8156090  71.9120330
  50.8045150   6.0086890  42.1860770  50.7239200   5.0941500  41.9152480
  50.3909570   6.5053960  41.4800480  48.9363190   7.7865910  44.0670040
  48.1605290   7.3066350  44.3568610  49.5876120   7.1071560  43.8926200
  42.9529020   8.0985720  44.9445800  42.1213900   7.8434430  45.3442310
  43.5610000   8.1696490  45.6803720  52.9570620  12.1926100  42.8469170
  52.4952150  11.4213340  43.1756340  53.7696170  12.2192170  43.3521620
  42.9330280  12.1325810  45.1403820  43.2358320  11.2423550  44.9614040
  43.6773870  12.6896030  44.9126070  41.3620970   3.0587610  38.7288190
  40.4737670   3.4003580  38.6268070  41.6462160   2.8587930  37.8369020
  39.3253980   5.6593260  44.6127890  39.8970090   4.8915460  44.6131530
  39.3255520   5.9582020  43.7034500  49.1833930  14.4784110  42.4673160
  48.5645370  14.9341610  41.8967600  50.0385710  14.6335570  42.0662860
  48.3772180  10.4623100  44.0740200  48.3080460   9.5213040  43.9129330
  49.1392040  10.5524510  44.6462770  49.4077350   3.2693480  44.3009130
  49.7842170   2.3965360  44.1882800  49.3096860   3.6052180  43.4099570
  41.1865520   3.5638120  45.0079160  41.8675630   3.8276490  45.6266560
  40.8713570   2.7238990  45.3417170  45.3790090   4.6105480  44.0951750
  45.8868310   5.1086450  44.7356770  45.9103330   3.8340680  43.9191110
  57.4801020   2.7810670  47.7981100  56.7753190   3.1692380  47.2796210
  57.7458940   3.4760960  48.4002030  50.0497280   9.3623350  39.8605070
  49.4314550   9.8272800  39.2967790  50.5620530  10.0550830  40.2774580
  44.9129040   8.8899220  46.5388670  44.5798420   9.5168140  47.1809740
  45.0895720   9.4161100  45.7590340  53.4262950   2.7044300  44.0065010
  52.7218520   2.9929190  44.5868120  53.7875110   3.5144410  43.6464570
  44.1248140  10.8580020  48.3537850  44.7422140  11.5331100  48.0722300
  43.2641260  11.2668000  48.2625350  39.4180480  10.0479880  37.2344700
  39.0408460  10.5366980  36.5029600  39.6753550  10.7205160  37.8651230
  55.0425730  12.3219430  46.2692490  54.3589250  12.9918540  46.2609160
  55.5820020  12.5200080  45.5037350  56.4949870   2.1499090  44.3974220
  55.5474780   2.1838070  44.5289650  56.8199860   2.9638040  44.7823580
  52.5784470  14.1663560  44.9837670  52.5911630  13.7625850  44.1159930
  52.0259690  14.9410850  44.8799100  53.8729890  10.8879780  40.0727840
  53.7626220   9.9454110  40.1977260  53.8698140  11.2495420  40.9590600
  51.9769910   9.0693400  46.3120280  52.3938700   8.8553510  45.4773740
  52.7009730   9.3266190  46.8828900  49.4150170   6.5145100  39.4290330
  48.4879450   6.4482480  39.6578800  49.5674990   7.4525230  39.3145570
  49.4019250   2.7862100  36.4257490  48.4622920   2.9476060  36.5109950
  49.7202510   3.5047780  35.8793480  55.9232010   7.4680620  46.4036520
  55.0950640   7.5373710  45.9286650  56.5182490   8.0534930  45.9352350
  53.4447460   8.0765400  39.9325580  52.8259880   7.7384950  39.2851880
  53.4271910   7.4325160  40.6404770  52.8874020   4.2549940  47.3491390
  52.4745200   5.0803650  47.6031380  52.1549970   3.6694980  47.1567750
  45.0206810   7.0409840  42.2110060  44.6163810   6.3287090  41.7155960
  45.1069930   6.6963080  43.0998100  45.4888510  10.7277400  44.3749270
  45.1916800  10.1222870  43.6957050  46.4388330  10.7654710  44.2638630
  43.7335430   3.8153050  45.9909100  44.2850020   3.9248390  45.2162350
  44.2478940   4.1890650  46.7064330  53.5774120  14.3009270  48.0372370
  53.1004680  15.1081460  47.8444980  52.8935910  13.6487600  48.1898580
  44.5806940  10.4659090  51.0257070  43.6835470  10.6899060  51.2730470
  44.6059810  10.5894030  50.0768470  51.6212160   7.3152210  36.9398330
  52.0605440   6.4774640  36.7936150  52.3340580   7.9481610  37.0262470
  43.4078160   7.3372410  49.6014440  43.2685930   8.2095210  49.9701840
  42.5259520   6.9945220  49.4562380  49.7307540  12.2548280  40.9079570
  50.1703450  12.9972610  40.4934960  49.6694430  12.4974850  41.8318530
  45.2058510  13.2794110  51.8099590  45.1773940  13.6837060  50.9428020
  45.0423480  12.3504470  51.6471190  41.7211440   5.9354820  39.7116710
  41.6009040   6.6616910  39.0997980  41.4112330   5.1657730  39.2344620
  57.1573330  14.0621210  53.1063760  57.6333050  14.5404100  53.7852840
  57.7780490  13.9938700  52.3809260  39.3596810   9.1069960  45.5185350
  39.4377230   9.2418730  44.5741070  39.9738490   8.3985850  45.7113470
  40.6044440  10.8070150  41.9291530  40.1972520  10.9484740  41.0745130
  41.4957450  10.5230310  41.7262740  56.5606580  11.2534060  50.2663770
  56.6869640  11.0145940  49.3480950  56.6027960  10.4218600  50.7385850
  50.4223320  14.9562060  48.8358580  50.9367990  14.8670070  49.6381010
  49.5792400  15.3021760  49.1286490  52.3977720  15.2417400  38.2642580
  52.2378860  14.9520340  39.1624410  52.2324430  14.4657530  37.7287810
  44.8766100  15.0215930  40.0414200  44.7008580  14.1051470  39.8282000
  44.0221840  15.3803220  40.2812000  52.1003850  12.7504960  36.8240580
  51.4069010  12.7482250  36.1642860  52.8426710  12.3264280  36.3934750
  51.6653780  14.3767670  40.8989070  52.1210730  13.5957050  41.2127690
  52.0046300  15.0874490  41.4430250  56.4130590   3.3066520  51.2313510
  55.7974860   3.8146190  50.7028970  56.0927010   2.4064850  51.1739450
  39.4156330  10.1484130  48.0579810  39.5787370   9.6789490  47.2399180
  39.8808780   9.6407690  48.7228650  53.4749420   3.3667360  49.8272360
  52.6243010   3.0673110  50.1481430  53.3151210   3.6109370  48.9156180
  50.5699130   4.8669110  51.9271150  50.8952540   4.0332860  51.5873380
  51.3579460   5.3897630  52.0749480  43.9789320   4.4023460  40.8221630
  43.7530240   4.1860630  41.7268250  43.1981850   4.8351920  40.4767600
  51.2087080   4.4086830  39.4212280  50.6095970   5.1322630  39.2375900
  51.7566690   4.3463610  38.6388730  46.4188530   5.3009040  51.4881900
  46.3232130   4.3603770  51.3382300  47.2620510   5.5224110  51.0929970
  49.8151950   3.0450370  41.4515560  50.2081520   3.3622570  40.6384250
  50.1768800   2.1662250  41.5660080  39.0386350   3.5771290  34.8848480
  38.9561020   4.5202050  35.0263470  38.6869410   3.4346200  34.0060830
  50.4007090   5.6356120  45.5466340  49.6688210   6.1442930  45.8956440
  50.0031430   4.8186100  45.2455120  46.8384480   2.3110320  43.9518830
  46.8420540   1.8700270  43.1023370  47.7335600   2.6327650  44.0590650
  42.6886860   2.1936810  42.9113040  42.3486910   2.6712040  43.6680090
  41.9264180   1.7401930  42.5514140  46.9004630   3.3122400  36.9425590
  47.0217450   3.2708880  37.8911410  46.5153140   4.1746550  36.7872320
  45.9126130   5.6223540  36.3408890  45.3443030   5.1741790  35.7144800
  46.6215130   5.9816320  35.8074040  40.9895310   9.5235560  50.2175620
  40.6050100   8.8829230  50.8158580  41.3007500  10.2271680  50.7870350
  47.1392450   6.3712100  45.6984240  47.5062580   5.8970670  46.4445580
  46.9497510   7.2453670  46.0392580  44.9291820   5.4120740  48.0168450
  44.6248890   6.2912720  48.2418810  45.8838280   5.4720530  48.0525890
  43.4573610   9.6181730  38.6135300  42.6835870   9.0779350  38.4534020
  44.1868240   9.0988340  38.2753060  54.2161590   8.6147090  44.4061690
  54.9360710   9.1102380  44.0157800  54.0143410   7.9364980  43.7615560
  49.5980390   8.6856150  50.2930690  49.5317700   7.7651820  50.0388280
  48.9685530   8.7831590  51.0075330  52.3919920   4.3804700  36.8453240
  53.2799540   4.6921930  36.6704580  52.3625010   3.5076950  36.4533820
  43.5011010   9.2862110  42.2514110  44.0189680   8.4830370  42.1971000
  43.0495030   9.2241250  43.0930940  48.3880510  10.5528390  37.5241410
  48.7296210  11.2970620  37.0284730  47.5593220  10.8659510  37.8866240
  40.9855550   6.2523480  49.1639810  40.6270490   6.9177330  49.7513150
  40.6910110   5.4207030  49.5352430  44.1868670   6.7107720  52.0479360
  43.8868810   6.8564900  51.1507180  44.9579910   6.1513010  51.9552750
  49.5297120  11.5076720  50.0434490  49.5441660  10.5757680  49.8253400
  48.8222220  11.5936480  50.6824260  54.6634190   5.6916540  36.3133100
  54.5797910   6.1230760  35.4629540  55.3828380   6.1514890  36.7459920
  55.7408330   8.1484060  49.3903070  55.0156520   8.7412840  49.1932460
  56.2683790   8.1407600  48.5916440  55.6921440  12.5458800  39.0415230
  55.0497600  11.8914420  39.3158950  55.3052100  12.9513890  38.2655900
  51.2707920   9.8744230  42.8886920  51.6231740   9.2772360  42.2288290
  50.3870250   9.5488460  43.0595170  47.3571200  10.6341920  40.2957330
  48.0442330  11.1811130  40.6764920  46.5703620  11.1782650  40.3306940
  39.4963600   6.2514740  35.7874410  40.3658450   6.5339540  36.0710330
  39.0053920   7.0650610  35.6723220  46.6598410   7.6387950  39.9082690
  47.1161190   8.4493200  40.1342880  46.3086620   7.3211090  40.7401180
  48.9631020  13.1494290  47.1374990  49.6073240  13.3553670  47.8148410
  49.3260460  12.3882690  46.6845840  50.2363100  11.1526640  45.8552440
  50.8785330  10.4519800  45.9684610  50.7612450  11.9325080  45.6749330
  54.0818820  11.4375260  35.5791580  53.8556400  10.7205700  36.1716220
  53.6915020  11.1887700  34.7413330  52.0100720  11.9521540  49.0588500
  52.3456960  12.5388230  49.7366420  51.0901060  11.8214250  49.2886290
  39.8634850  15.4642120  36.3536040  40.2232490  16.0631460  35.6993310
  39.7227190  16.0102010  37.1271070  53.6635070   9.3547200  37.2405740
  53.3756770   9.8159890  38.0283620  54.4587240   8.8944970  37.5089960
  39.8476710  13.7296980  50.8278440  39.9567830  12.7891720  50.6873830
  39.1957270  13.9951730  50.1792170  47.8389300  12.0012870  52.2276560
  47.5186170  11.2822110  52.7722250  47.1647660  12.6767940  52.3012620
  45.8803470  12.8473320  37.1709710  45.8713570  13.5803010  36.5554220
  44.9601830  12.6004900  37.2636670  41.4810110   8.0688210  37.9156470
  40.8738060   8.8087110  37.9251770  41.9559460   8.1587570  37.0894670
  48.8663070  12.9101560  35.8334900  48.9675050  12.7065550  34.9036880
  47.9664810  12.6559840  36.0382680  46.3888960   3.4681920  39.8158800
  45.6805110   3.9368260  40.2572410  46.6733440   2.8103930  40.4503990
  48.0144890   4.8878620  47.8151330  48.5130140   5.3624440  48.4803180
  48.1567840   3.9642140  48.0221360  47.5081180  15.4287880  40.5282570
  47.7622680  15.3909270  39.6061940  46.5593660  15.3021210  40.5210820
  44.5923980   1.7767000  37.1909510  45.4414510   2.2137150  37.1249700
  44.2255250   2.0887260  38.0181570  53.5133760   6.3479760  42.1041080
  52.5723900   6.3629990  42.2788770  53.8277830   5.5615720  42.5501380
  43.4915400   8.0299360  35.6645040  44.2578670   7.9180720  36.2270470
  43.5690090   7.3337330  35.0121810  42.1862160   5.4624430  36.3477930
  42.2665750   4.5151940  36.4595330  43.0781910   5.7931310  36.4538590
  55.5159340  13.5188610  43.7795340  55.6406760  14.3419780  44.2519150
  56.3824900  13.3079340  43.4319490  42.9876870  15.6119820  43.4512470
  43.7239350  15.0635280  43.7221040  43.3717790  16.4775830  43.3118460
  39.8722350  11.6793390  39.3253980  38.9462130  11.9214530  39.3159390
  40.3378780  12.5067650  39.2038730  41.9935150  14.7965890  52.6398050
  42.7947880  15.1177940  53.0533450  41.4786970  14.4361470  53.3617960
  46.0979180  14.7850130  35.2738040  46.8907790  15.0738960  34.8219830
  45.5783530  14.3542300  34.5950520  50.8299780  10.9045760  52.5873460
  50.2237940  10.9277360  51.8469210  50.5253890  10.1728800  53.1240710
  52.2600150  14.6326050  51.1982870  53.2121900  14.5484070  51.1483110
  52.1128370  15.2967760  51.8716660  55.1509350  14.0120260  36.6974780
  54.8650860  13.5985400  35.8828960  54.9528900  14.9407970  36.5775300
  39.7132960   7.2839350  51.5834100  40.2171980   6.7046630  52.1550330
  38.9740380   7.5679580  52.1210470  46.6156580  10.0053540  35.1380390
  46.5107220   9.3905890  35.8641770  46.4480800   9.4819430  34.3543400
  46.7670900   8.6910340  51.1169620  46.0016570   9.2595340  51.0324290
  46.9486860   8.3986550  50.2237850  49.8559310   9.0673570  35.7422380
  49.3069410   9.5142870  36.3865120  50.4778570   8.5622820  36.2660050
  53.9094250  10.4215670  51.6744640  54.6503720  10.7591430  51.1712100
  53.1466930  10.5907730  51.1214410  41.7456040   5.4268940  52.4784170
  41.7861380   5.1282810  53.3869400  42.6001540   5.8276550  52.3191690
  45.5234430   8.0264490  37.6387680  45.9450850   7.8604360  38.4819070
  45.6485270   7.2164720  37.1442820  43.6861850   4.0061040  50.4458660
  43.1558310   3.5151990  49.8182000  44.3549920   4.4345240  49.9116590
  48.0362070   7.0502100  34.8864780  48.5567730   6.3351120  34.5205930
  48.6830470   7.6887970  35.1865290  52.5839910   8.4730500  50.2099850
  52.9980930   8.6275580  51.0590270  51.6490910   8.5985720  50.3725630
  53.0562080   5.8126660  52.2139000  53.6382850   5.0578980  52.1259480
  53.2323850   6.3434100  51.4370480  47.3455140   8.4250980  48.1795780
  47.7643250   9.2683710  48.0072020  46.4263770   8.5623020  47.9502560
  49.6819040   6.1567160  49.5633620  49.8015250   5.5608300  50.3028460
  50.5413040   6.1936850  49.1434920  52.0206940   6.7104350  48.1396130
  51.4942160   7.2346970  47.5361270  52.3638280   7.3431740  48.7705860
  44.4193330   4.0997720  34.5845840  44.2182390   3.2365080  34.9459180
  44.2485380   4.0131080  33.6467440  45.1962560  14.7303990  49.2953510
  44.6583650  15.4550050  48.9762210  45.4496520  14.2534330  48.5050850
  46.4487810   2.6988510  50.8209440  47.0387500   2.3904360  51.5087260
  45.6308050   2.2268260  50.9769340  51.2681240   2.3154320  51.0542460
  50.5796760   1.6535860  50.9892450  51.9887260   1.8692590  51.4990920
  48.0524770  15.9655200  49.5540160  47.9783470  16.8690340  49.8612530
  47.1503610  15.6467100  49.5262230  48.6010100  15.1313710  37.1766520
  49.4960890  15.4698680  37.1985280  48.6327730  14.4093120  36.5490800
  42.2406260  10.5040760  35.4053520  42.6781130  11.0470430  36.0611100
  42.7253990   9.6787710  35.4149860  39.4552060  13.2929790  42.8573780
  39.7855070  12.4250850  42.6252420  39.8843060  13.4988310  43.6878740
  44.0513980  11.6238800  40.5175750  43.7509520  11.5003770  41.4179660
  43.9451470  10.7647390  40.1091480  39.9442270  14.1600380  45.5955410
  39.5073260  14.3401180  46.4279560  40.5119950  14.9175000  45.4537130
  55.5804450  13.6617380  49.8832720  54.9806440  13.7209940  49.1396640
  55.7098350  12.7222360  50.0129570  56.8205900  11.4035200  35.2202430
  55.9898860  11.4711850  35.6909660  56.9977730  12.2939320  34.9169290
  56.2762360   8.1482680  37.7236630  57.0381270   8.7179330  37.8296320
  56.2916730   7.5809880  38.4944940  39.7766700   6.6720610  41.9544290
  39.1215540   6.4032250  41.3103990  40.6144650   6.5625090  41.5046270
  57.2822330   9.0032780  42.5678560  57.6531160   8.2200100  42.1614530
  57.9224260   9.6921880  42.3895860  54.2656090  10.3869360  47.9808880
  53.4515930  10.8166520  48.2434670  54.6730290  10.9987770  47.3677930
  56.3281530   8.4417050  34.8809150  56.6030370   9.3495930  34.7528370
  56.1392270   8.3779580  35.8171140  56.2246870   6.3786040  39.8738580
  55.8490470   5.6113970  39.4419870  55.4949990   6.7608740  40.3613510
  40.8142630   7.0573180  46.4947630  41.1815670   6.9700580  47.3743650
  40.2453450   6.2939730  46.3954490  55.6146490   5.5257560  49.5078100
  55.3832580   5.2970310  48.6076050  55.8751040   6.4457110  49.4622990
  40.3658630   3.9682270  50.4006050  39.4714680   3.9349030  50.7399760
  40.9056180   4.1669060  51.1657300  38.9904780   3.8819540  37.8969620
  38.0868860   4.1449740  37.7221280  39.4745400   4.1530710  37.1169580
  55.4997830   4.6043530  43.1745820  56.0235310   4.1106180  42.5435990
  56.0857250   4.7393890  43.9193390  55.6787550   4.6883400  46.6965370
  54.7290260   4.6546940  46.8110360  55.8600560   5.5983510  46.4615140
  41.5331990   2.9385080  35.8064000  42.2423690   2.5168300  35.3211280
  40.8171930   3.0060310  35.1747350  54.9897800   3.8616880  39.1138230
  55.4856920   3.6287750  39.8987110  54.7913870   3.0228720  38.6975870
  56.4184960   2.4977830  41.6475910  56.3084240   2.3433870  42.5858180
  57.1792550   1.9698770  41.4051320  54.3232140  15.1387960  41.5077150
  54.9191210  14.8172530  40.8311570  54.5810290  14.6659780  42.2990420
  42.2294710  11.5705870  51.6567780  42.1864340  11.1998780  52.5382240
  42.3605720  12.5083440  51.7969600  45.9300740  13.1265460  47.2577500
  45.6892100  13.3940020  46.3708020  46.8703380  13.2971190  47.3128360
  57.1904900  15.1459840  48.0588140  56.6963180  15.5428710  47.3415270
  56.5818190  14.5209050  48.4525420  42.0682740  14.5168120  48.7765560
  41.4743060  14.3852820  49.5155600  42.0606580  13.6806260  48.3107660
  54.8744350  15.7883260  45.3374880  54.4147320  16.5399070  44.9632900
  54.2456810  15.0689730  45.2789680  41.6994970  11.8826500  47.7273600
  40.9729030  11.2631790  47.6599550  41.7604120  12.2767110  46.8571680
  45.3040070  14.0971500  44.5123010  45.8205090  13.4858860  43.9871270
  45.9537450  14.6000280  45.0034020  48.0435570  14.9879990  45.3391990
  48.3313380  14.7334290  44.4625000  48.5558790  14.4357350  45.9297560
  39.9824970  15.2000890  40.9370360  39.8147010  14.5671570  41.6352250
  39.1159480  15.4060290  40.5864550  41.5887670  13.8934120  38.3820500
  41.0635290  14.2742150  37.6782460  41.5132250  14.5184890  39.1030210
  48.1107930  15.9096090  52.7060190  49.0375240  15.6740360  52.7496150
  48.0958360  16.7368090  52.2246220  56.3452990  15.4521660  39.7034440
  56.5205180  14.7659400  39.0595360  55.6474560  15.9768710  39.3111110
  44.1880640  15.8416500  37.2569750  44.9199460  15.5575780  36.7093640
  44.4474310  15.6029780  38.1469130  43.3495430  11.9581230  37.2616080
  42.7204310  12.4266330  37.8101910  43.4643260  11.1130450  37.6962270
  54.6785490  15.1365950  52.5301230  55.4710810  14.6415180  52.3227190
  54.9718640  15.8156090  53.1376840  50.8045150   6.0086890  23.4117280
  50.7239200   5.0941500  23.1408990  50.3909570   6.5053960  22.7056990
  48.9363190   7.7865910  25.2926550  48.1605290   7.3066350  25.5825120
  49.5876120   7.1071560  25.1182710  42.9529020   8.0985720  26.1702310
  42.1213900   7.8434430  26.5698820  43.5610000   8.1696490  26.9060230
  52.9570620  12.1926100  24.0725680  52.4952150  11.4213340  24.4012850
  53.7696170  12.2192170  24.5778130  42.9330280  12.1325810  26.3660330
  43.2358320  11.2423550  26.1870550  43.6773870  12.6896030  26.1382580
  41.3620970   3.0587610  19.9544700  40.4737670   3.4003580  19.8524580
  41.6462160   2.8587930  19.0625530  39.3253980   5.6593260  25.8384400
  39.8970090   4.8915460  25.8388040  39.3255520   5.9582020  24.9291010
  49.1833930  14.4784110  23.6929670  48.5645370  14.9341610  23.1224110
  50.0385710  14.6335570  23.2919370  48.3772180  10.4623100  25.2996710
  48.3080460   9.5213040  25.1385840  49.1392040  10.5524510  25.8719280
  49.4077350   3.2693480  25.5265640  49.7842170   2.3965360  25.4139310
  49.3096860   3.6052180  24.6356080  41.1865520   3.5638120  26.2335670
  41.8675630   3.8276490  26.8523070  40.8713570   2.7238990  26.5673680
  45.3790090   4.6105480  25.3208260  45.8868310   5.1086450  25.9613280
  45.9103330   3.8340680  25.1447620  57.4801020   2.7810670  29.0237610
  56.7753190   3.1692380  28.5052720  57.7458940   3.4760960  29.6258540
  50.0497280   9.3623350  21.0861580  49.4314550   9.8272800  20.5224300
  50.5620530  10.0550830  21.5031090  44.9129040   8.8899220  27.7645180
  44.5798420   9.5168140  28.4066250  45.0895720   9.4161100  26.9846850
  53.4262950   2.7044300  25.2321520  52.7218520   2.9929190  25.8124630
  53.7875110   3.5144410  24.8721080  44.1248140  10.8580020  29.5794360
  44.7422140  11.5331100  29.2978810  43.2641260  11.2668000  29.4881860
  39.4180480  10.0479880  18.4601210  39.0408460  10.5366980  17.7286110
  39.6753550  10.7205160  19.0907740  55.0425730  12.3219430  27.4949000
  54.3589250  12.9918540  27.4865670  55.5820020  12.5200080  26.7293860
  56.4949870   2.1499090  25.6230730  55.5474780   2.1838070  25.7546160
  56.8199860   2.9638040  26.0080090  52.5784470  14.1663560  26.2094180
  52.5911630  13.7625850  25.3416440  52.0259690  14.9410850  26.1055610
  53.8729890  10.8879780  21.2984350  53.7626220   9.9454110  21.4233770
  53.8698140  11.2495420  22.1847110  51.9769910   9.0693400  27.5376790
  52.3938700   8.8553510  26.7030250  52.7009730   9.3266190  28.1085410
  49.4150170   6.5145100  20.6546840  48.4879450   6.4482480  20.8835310
  49.5674990   7.4525230  20.5402080  49.4019250   2.7862100  17.6514000
  48.4622920   2.9476060  17.7366460  49.7202510   3.5047780  17.1049990
  55.9232010   7.4680620  27.6293030  55.0950640   7.5373710  27.1543160
  56.5182490   8.0534930  27.1608860  53.4447460   8.0765400  21.1582090
  52.8259880   7.7384950  20.5108390  53.4271910   7.4325160  21.8661280
  52.8874020   4.2549940  28.5747900  52.4745200   5.0803650  28.8287890
  52.1549970   3.6694980  28.3824260  45.0206810   7.0409840  23.4366570
  44.6163810   6.3287090  22.9412470  45.1069930   6.6963080  24.3254610
  45.4888510  10.7277400  25.6005780  45.1916800  10.1222870  24.9213560
  46.4388330  10.7654710  25.4895140  43.7335430   3.8153050  27.2165610
  44.2850020   3.9248390  26.4418860  44.2478940   4.1890650  27.9320840
  53.5774120  14.3009270  29.2628880  53.1004680  15.1081460  29.0701490
  52.8935910  13.6487600  29.4155090  44.5806940  10.4659090  32.2513580
  43.6835470  10.6899060  32.4986980  44.6059810  10.5894030  31.3024980
  51.6212160   7.3152210  18.1654840  52.0605440   6.4774640  18.0192660
  52.3340580   7.9481610  18.2518980  43.4078160   7.3372410  30.8270950
  43.2685930   8.2095210  31.1958350  42.5259520   6.9945220  30.6818890
  49.7307540  12.2548280  22.1336080  50.1703450  12.9972610  21.7191470
  49.6694430  12.4974850  23.0575040  45.2058510  13.2794110  33.0356100
  45.1773940  13.6837060  32.1684530  45.0423480  12.3504470  32.8727700
  41.7211440   5.9354820  20.9373220  41.6009040   6.6616910  20.3254490
  41.4112330   5.1657730  20.4601130  57.1573330  14.0621210  34.3320270
  57.6333050  14.5404100  35.0109350  57.7780490  13.9938700  33.6065770
  39.3596810   9.1069960  26.7441860  39.4377230   9.2418730  25.7997580
  39.9738490   8.3985850  26.9369980  40.6044440  10.8070150  23.1548040
  40.1972520  10.9484740  22.3001640  41.4957450  10.5230310  22.9519250
  56.5606580  11.2534060  31.4920280  56.6869640  11.0145940  30.5737460
  56.6027960  10.4218600  31.9642360  50.4223320  14.9562060  30.0615090
  50.9367990  14.8670070  30.8637520  49.5792400  15.3021760  30.3543000
  52.3977720  15.2417400  19.4899090  52.2378860  14.9520340  20.3880920
  52.2324430  14.4657530  18.9544320  44.8766100  15.0215930  21.2670710
  44.7008580  14.1051470  21.0538510  44.0221840  15.3803220  21.5068510
  52.1003850  12.7504960  18.0497090  51.4069010  12.7482250  17.3899370
  52.8426710  12.3264280  17.6191260  51.6653780  14.3767670  22.1245580
  52.1210730  13.5957050  22.4384200  52.0046300  15.0874490  22.6686760
  56.4130590   3.3066520  32.4570020  55.7974860   3.8146190  31.9285480
  56.0927010   2.4064850  32.3995960  39.4156330  10.1484130  29.2836320
  39.5787370   9.6789490  28.4655690  39.8808780   9.6407690  29.9485160
  53.4749420   3.3667360  31.0528870  52.6243010   3.0673110  31.3737940
  53.3151210   3.6109370  30.1412690  50.5699130   4.8669110  33.1527660
  50.8952540   4.0332860  32.8129890  51.3579460   5.3897630  33.3005990
  43.9789320   4.4023460  22.0478140  43.7530240   4.1860630  22.9524760
  43.1981850   4.8351920  21.7024110  51.2087080   4.4086830  20.6468790
  50.6095970   5.1322630  20.4632410  51.7566690   4.3463610  19.8645240
  46.4188530   5.3009040  32.7138410  46.3232130   4.3603770  32.5638810
  47.2620510   5.5224110  32.3186480  49.8151950   3.0450370  22.6772070
  50.2081520   3.3622570  21.8640760  50.1768800   2.1662250  22.7916590
  39.0386350   3.5771290  16.1104990  38.9561020   4.5202050  16.2519980
  38.6869410   3.4346200  15.2317340  50.4007090   5.6356120  26.7722850
  49.6688210   6.1442930  27.1212950  50.0031430   4.8186100  26.4711630
  46.8384480   2.3110320  25.1775340  46.8420540   1.8700270  24.3279880
  47.7335600   2.6327650  25.2847160  42.6886860   2.1936810  24.1369550
  42.3486910   2.6712040  24.8936600  41.9264180   1.7401930  23.7770650
  46.9004630   3.3122400  18.1682100  47.0217450   3.2708880  19.1167920
  46.5153140   4.1746550  18.0128830  45.9126130   5.6223540  17.5665400
  45.3443030   5.1741790  16.9401310  46.6215130   5.9816320  17.0330550
  40.9895310   9.5235560  31.4432130  40.6050100   8.8829230  32.0415090
  41.3007500  10.2271680  32.0126860  47.1392450   6.3712100  26.9240750
  47.5062580   5.8970670  27.6702090  46.9497510   7.2453670  27.2649090
  44.9291820   5.4120740  29.2424960  44.6248890   6.2912720  29.4675320
  45.8838280   5.4720530  29.2782400  43.4573610   9.6181730  19.8391810
  42.6835870   9.0779350  19.6790530  44.1868240   9.0988340  19.5009570
  54.2161590   8.6147090  25.6318200  54.9360710   9.1102380  25.2414310
  54.0143410   7.9364980  24.9872070  49.5980390   8.6856150  31.5187200
  49.5317700   7.7651820  31.2644790  48.9685530   8.7831590  32.2331840
  52.3919920   4.3804700  18.0709750  53.2799540   4.6921930  17.8961090
  52.3625010   3.5076950  17.6790330  43.5011010   9.2862110  23.4770620
  44.0189680   8.4830370  23.4227510  43.0495030   9.2241250  24.3187450
  48.3880510  10.5528390  18.7497920  48.7296210  11.2970620  18.2541240
  47.5593220  10.8659510  19.1122750  40.9855550   6.2523480  30.3896320
  40.6270490   6.9177330  30.9769660  40.6910110   5.4207030  30.7608940
  44.1868670   6.7107720  33.2735870  43.8868810   6.8564900  32.3763690
  44.9579910   6.1513010  33.1809260  49.5297120  11.5076720  31.2691000
  49.5441660  10.5757680  31.0509910  48.8222220  11.5936480  31.9080770
  54.6634190   5.6916540  17.5389610  54.5797910   6.1230760  16.6886050
  55.3828380   6.1514890  17.9716430  55.7408330   8.1484060  30.6159580
  55.0156520   8.7412840  30.4188970  56.2683790   8.1407600  29.8172950
  55.6921440  12.5458800  20.2671740  55.0497600  11.8914420  20.5415460
  55.3052100  12.9513890  19.4912410  51.2707920   9.8744230  24.1143430
  51.6231740   9.2772360  23.4544800  50.3870250   9.5488460  24.2851680
  47.3571200  10.6341920  21.5213840  48.0442330  11.1811130  21.9021430
  46.5703620  11.1782650  21.5563450  39.4963600   6.2514740  17.0130920
  40.3658450   6.5339540  17.2966840  39.0053920   7.0650610  16.8979730
  46.6598410   7.6387950  21.1339200  47.1161190   8.4493200  21.3599390
  46.3086620   7.3211090  21.9657690  48.9631020  13.1494290  28.3631500
  49.6073240  13.3553670  29.0404920  49.3260460  12.3882690  27.9102350
  50.2363100  11.1526640  27.0808950  50.8785330  10.4519800  27.1941120
  50.7612450  11.9325080  26.9005840  54.0818820  11.4375260  16.8048090
  53.8556400  10.7205700  17.3972730  53.6915020  11.1887700  15.9669840
  52.0100720  11.9521540  30.2845010  52.3456960  12.5388230  30.9622930
  51.0901060  11.8214250  30.5142800  39.8634850  15.4642120  17.5792550
  40.2232490  16.0631460  16.9249820  39.7227190  16.0102010  18.3527580
  53.6635070   9.3547200  18.4662250  53.3756770   9.8159890  19.2540130
  54.4587240   8.8944970  18.7346470  39.8476710  13.7296980  32.0534950
  39.9567830  12.7891720  31.9130340  39.1957270  13.9951730  31.4048680
  47.8389300  12.0012870  33.4533070  47.5186170  11.2822110  33.9978760
  47.1647660  12.6767940  33.5269130  45.8803470  12.8473320  18.3966220
  45.8713570  13.5803010  17.7810730  44.9601830  12.6004900  18.4893180
  41.4810110   8.0688210  19.1412980  40.8738060   8.8087110  19.1508280
  41.9559460   8.1587570  18.3151180  48.8663070  12.9101560  17.0591410
  48.9675050  12.7065550  16.1293390  47.9664810  12.6559840  17.2639190
  46.3888960   3.4681920  21.0415310  45.6805110   3.9368260  21.4828920
  46.6733440   2.8103930  21.6760500  48.0144890   4.8878620  29.0407840
  48.5130140   5.3624440  29.7059690  48.1567840   3.9642140  29.2477870
  47.5081180  15.4287880  21.7539080  47.7622680  15.3909270  20.8318450
  46.5593660  15.3021210  21.7467330  44.5923980   1.7767000  18.4166020
  45.4414510   2.2137150  18.3506210  44.2255250   2.0887260  19.2438080
  53.5133760   6.3479760  23.3297590  52.5723900   6.3629990  23.5045280
  53.8277830   5.5615720  23.7757890  43.4915400   8.0299360  16.8901550
  44.2578670   7.9180720  17.4526980  43.5690090   7.3337330  16.2378320
  42.1862160   5.4624430  17.5734440  42.2665750   4.5151940  17.6851840
  43.0781910   5.7931310  17.6795100  55.5159340  13.5188610  25.0051850
  55.6406760  14.3419780  25.4775660  56.3824900  13.3079340  24.6576000
  42.9876870  15.6119820  24.6768980  43.7239350  15.0635280  24.9477550
  43.3717790  16.4775830  24.5374970  39.8722350  11.6793390  20.5510490
  38.9462130  11.9214530  20.5415900  40.3378780  12.5067650  20.4295240
  41.9935150  14.7965890  33.8654560  42.7947880  15.1177940  34.2789960
  41.4786970  14.4361470  34.5874470  46.0979180  14.7850130  16.4994550
  46.8907790  15.0738960  16.0476340  45.5783530  14.3542300  15.8207030
  50.8299780  10.9045760  33.8129970  50.2237940  10.9277360  33.0725720
  50.5253890  10.1728800  34.3497220  52.2600150  14.6326050  32.4239380
  53.2121900  14.5484070  32.3739620  52.1128370  15.2967760  33.0973170
  55.1509350  14.0120260  17.9231290  54.8650860  13.5985400  17.1085470
  54.9528900  14.9407970  17.8031810  39.7132960   7.2839350  32.8090610
  40.2171980   6.7046630  33.3806840  38.9740380   7.5679580  33.3466980
  46.6156580  10.0053540  16.3636900  46.5107220   9.3905890  17.0898280
  46.4480800   9.4819430  15.5799910  46.7670900   8.6910340  32.3426130
  46.0016570   9.2595340  32.2580800  46.9486860   8.3986550  31.4494360
  49.8559310   9.0673570  16.9678890  49.3069410   9.5142870  17.6121630
  50.4778570   8.5622820  17.4916560  53.9094250  10.4215670  32.9001150
  54.6503720  10.7591430  32.3968610  53.1466930  10.5907730  32.3470920
  41.7456040   5.4268940  33.7040680  41.7861380   5.1282810  34.6125910
  42.6001540   5.8276550  33.5448200  45.5234430   8.0264490  18.8644190
  45.9450850   7.8604360  19.7075580  45.6485270   7.2164720  18.3699330
  43.6861850   4.0061040  31.6715170  43.1558310   3.5151990  31.0438510
  44.3549920   4.4345240  31.1373100  48.0362070   7.0502100  16.1121290
  48.5567730   6.3351120  15.7462440  48.6830470   7.6887970  16.4121800
  52.5839910   8.4730500  31.4356360  52.9980930   8.6275580  32.2846780
  51.6490910   8.5985720  31.5982140  53.0562080   5.8126660  33.4395510
  53.6382850   5.0578980  33.3515990  53.2323850   6.3434100  32.6626990
  47.3455140   8.4250980  29.4052290  47.7643250   9.2683710  29.2328530
  46.4263770   8.5623020  29.1759070  49.6819040   6.1567160  30.7890130
  49.8015250   5.5608300  31.5284970  50.5413040   6.1936850  30.3691430
  52.0206940   6.7104350  29.3652640  51.4942160   7.2346970  28.7617780
  52.3638280   7.3431740  29.9962370  44.4193330   4.0997720  15.8102350
  44.2182390   3.2365080  16.1715690  44.2485380   4.0131080  14.8723950
  45.1962560  14.7303990  30.5210020  44.6583650  15.4550050  30.2018720
  45.4496520  14.2534330  29.7307360  46.4487810   2.6988510  32.0465950
  47.0387500   2.3904360  32.7343770  45.6308050   2.2268260  32.2025850
  51.2681240   2.3154320  32.2798970  50.5796760   1.6535860  32.2148960
  51.9887260   1.8692590  32.7247430  48.0524770  15.9655200  30.7796670
  47.9783470  16.8690340  31.0869040  47.1503610  15.6467100  30.7518740
  48.6010100  15.1313710  18.4023030  49.4960890  15.4698680  18.4241790
  48.6327730  14.4093120  17.7747310  42.2406260  10.5040760  16.6310030
  42.6781130  11.0470430  17.2867610  42.7253990   9.6787710  16.6406370
  39.4552060  13.2929790  24.0830290  39.7855070  12.4250850  23.8508930
  39.8843060  13.4988310  24.9135250  44.0513980  11.6238800  21.7432260
  43.7509520  11.5003770  22.6436170  43.9451470  10.7647390  21.3347990
  39.9442270  14.1600380  26.8211920  39.5073260  14.3401180  27.6536070
  40.5119950  14.9175000  26.6793640  55.5804450  13.6617380  31.1089230
  54.9806440  13.7209940  30.3653150  55.7098350  12.7222360  31.2386080
  56.8205900  11.4035200  16.4458940  55.9898860  11.4711850  16.9166170
  56.9977730  12.2939320  16.1425800  56.2762360   8.1482680  18.9493140
  57.0381270   8.7179330  19.0552830  56.2916730   7.5809880  19.7201450
  39.7766700   6.6720610  23.1800800  39.1215540   6.4032250  22.5360500
  40.6144650   6.5625090  22.7302780  57.2822330   9.0032780  23.7935070
  57.6531160   8.2200100  23.3871040  57.9224260   9.6921880  23.6152370
  54.2656090  10.3869360  29.2065390  53.4515930  10.8166520  29.4691180
  54.6730290  10.9987770  28.5934440  56.3281530   8.4417050  16.1065660
  56.6030370   9.3495930  15.9784880  56.1392270   8.3779580  17.0427650
  56.2246870   6.3786040  21.0995090  55.8490470   5.6113970  20.6676380
  55.4949990   6.7608740  21.5870020  40.8142630   7.0573180  27.7204140
  41.1815670   6.9700580  28.6000160  40.2453450   6.2939730  27.6211000
  55.6146490   5.5257560  30.7334610  55.3832580   5.2970310  29.8332560
  55.8751040   6.4457110  30.6879500  40.3658630   3.9682270  31.6262560
  39.4714680   3.9349030  31.9656270  40.9056180   4.1669060  32.3913810
  38.9904780   3.8819540  19.1226130  38.0868860   4.1449740  18.9477790
  39.4745400   4.1530710  18.3426090  55.4997830   4.6043530  24.4002330
  56.0235310   4.1106180  23.7692500  56.0857250   4.7393890  25.1449900
  55.6787550   4.6883400  27.9221880  54.7290260   4.6546940  28.0366870
  55.8600560   5.5983510  27.6871650  41.5331990   2.9385080  17.0320510
  42.2423690   2.5168300  16.5467790  40.8171930   3.0060310  16.4003860
  54.9897800   3.8616880  20.3394740  55.4856920   3.6287750  21.1243620
  54.7913870   3.0228720  19.9232380  56.4184960   2.4977830  22.8732420
  56.3084240   2.3433870  23.8114690  57.1792550   1.9698770  22.6307830
  54.3232140  15.1387960  22.7333660  54.9191210  14.8172530  22.0568080
  54.5810290  14.6659780  23.5246930  42.2294710  11.5705870  32.8824290
  42.1864340  11.1998780  33.7638750  42.3605720  12.5083440  33.0226110
  45.9300740  13.1265460  28.4834010  45.6892100  13.3940020  27.5964530
  46.8703380  13.2971190  28.5384870  57.1904900  15.1459840  29.2844650
  56.6963180  15.5428710  28.5671780  56.5818190  14.5209050  29.6781930
  42.0682740  14.5168120  30.0022070  41.4743060  14.3852820  30.7412110
  42.0606580  13.6806260  29.5364170  54.8744350  15.7883260  26.5631390
  54.4147320  16.5399070  26.1889410  54.2456810  15.0689730  26.5046190
  41.6994970  11.8826500  28.9530110  40.9729030  11.2631790  28.8856060
  41.7604120  12.2767110  28.0828190  45.3040070  14.0971500  25.7379520
  45.8205090  13.4858860  25.2127780  45.9537450  14.6000280  26.2290530
  48.0435570  14.9879990  26.5648500  48.3313380  14.7334290  25.6881510
  48.5558790  14.4357350  27.1554070  39.9824970  15.2000890  22.1626870
  39.8147010  14.5671570  22.8608760  39.1159480  15.4060290  21.8121060
  41.5887670  13.8934120  19.6077010  41.0635290  14.2742150  18.9038970
  41.5132250  14.5184890  20.3286720  48.1107930  15.9096090  33.9316700
  49.0375240  15.6740360  33.9752660  48.0958360  16.7368090  33.4502730
  56.3452990  15.4521660  20.9290950  56.5205180  14.7659400  20.2851870
  55.6474560  15.9768710  20.5367620  44.1880640  15.8416500  18.4826260
  44.9199460  15.5575780  17.9350150  44.4474310  15.6029780  19.3725640
  43.3495430  11.9581230  18.4872590  42.7204310  12.4266330  19.0358420
  43.4643260  11.1130450  18.9218780  54.6785490  15.1365950  33.7557740
  55.4710810  14.6415180  33.5483700  54.9718640  15.8156090  34.3633350
  50.8045150   6.0086890   4.6373790  50.7239200   5.0941500   4.3665500
  50.3909570   6.5053960   3.9313500  48.9363190   7.7865910   6.5183060
  48.1605290   7.3066350   6.8081630  49.5876120   7.1071560   6.3439220
  42.9529020   8.0985720   7.3958820  42.1213900   7.8434430   7.7955330
  43.5610000   8.1696490   8.1316740  52.9570620  12.1926100   5.2982190
  52.4952150  11.4213340   5.6269360  53.7696170  12.2192170   5.8034640
  42.9330280  12.1325810   7.5916840  43.2358320  11.2423550   7.4127060
  43.6773870  12.6896030   7.3639090  39.3253980   5.6593260   7.0640910
  39.8970090   4.8915460   7.0644550  39.3255520   5.9582020   6.1547520
  49.1833930  14.4784110   4.9186180  48.5645370  14.9341610   4.3480620
  50.0385710  14.6335570   4.5175880  48.3772180  10.4623100   6.5253220
  48.3080460   9.5213040   6.3642350  49.1392040  10.5524510   7.0975790
  49.4077350   3.2693480   6.7522150  49.7842170   2.3965360   6.6395820
  49.3096860   3.6052180   5.8612590  41.1865520   3.5638120   7.4592180
  41.8675630   3.8276490   8.0779580  40.8713570   2.7238990   7.7930190
  45.3790090   4.6105480   6.5464770  45.8868310   5.1086450   7.1869790
  45.9103330   3.8340680   6.3704130  57.4801020   2.7810670  10.2494120
  56.7753190   3.1692380   9.7309230  57.7458940   3.4760960  10.8515050
  50.0497280   9.3623350   2.3118090  49.4314550   9.8272800   1.7480810
  50.5620530  10.0550830   2.7287600  44.9129040   8.8899220   8.9901690
  44.5798420   9.5168140   9.6322760  45.0895720   9.4161100   8.2103360
  53.4262950   2.7044300   6.4578030  52.7218520   2.9929190   7.0381140
  53.7875110   3.5144410   6.0977590  44.1248140  10.8580020  10.8050870
  44.7422140  11.5331100  10.5235320  43.2641260  11.2668000  10.7138370
  55.0425730  12.3219430   8.7205510  54.3589250  12.9918540   8.7122180
  55.5820020  12.5200080   7.9550370  56.4949870   2.1499090   6.8487240
  55.5474780   2.1838070   6.9802670  56.8199860   2.9638040   7.2336600
  52.5784470  14.1663560   7.4350690  52.5911630  13.7625850   6.5672950
  52.0259690  14.9410850   7.3312120  53.8729890  10.8879780   2.5240860
  53.7626220   9.9454110   2.6490280  53.8698140  11.2495420   3.4103620
  51.9769910   9.0693400   8.7633300  52.3938700   8.8553510   7.9286760
  52.7009730   9.3266190   9.3341920  49.4150170   6.5145100   1.8803350
  48.4879450   6.4482480   2.1091820  49.5674990   7.4525230   1.7658590
  55.9232010   7.4680620   8.8549540  55.0950640   7.5373710   8.3799670
  56.5182490   8.0534930   8.3865370  53.4447460   8.0765400   2.3838600
  52.8259880   7.7384950   1.7364900  53.4271910   7.4325160   3.0917790
  52.8874020   4.2549940   9.8004410  52.4745200   5.0803650  10.0544400
  52.1549970   3.6694980   9.6080770  45.0206810   7.0409840   4.6623080
  44.6163810   6.3287090   4.1668980  45.1069930   6.6963080   5.5511120
  45.4888510  10.7277400   6.8262290  45.1916800  10.1222870   6.1470070
  46.4388330  10.7654710   6.7151650  43.7335430   3.8153050   8.4422120
  44.2850020   3.9248390   7.6675370  44.2478940   4.1890650   9.1577350
  53.5774120  14.3009270  10.4885390  53.1004680  15.1081460  10.2958000
  52.8935910  13.6487600  10.6411600  44.5806940  10.4659090  13.4770090
  43.6835470  10.6899060  13.7243490  44.6059810  10.5894030  12.5281490
  43.4078160   7.3372410  12.0527460  43.2685930   8.2095210  12.4214860
  42.5259520   6.9945220  11.9075400  49.7307540  12.2548280   3.3592590
  50.1703450  12.9972610   2.9447980  49.6694430  12.4974850   4.2831550
  45.2058510  13.2794110  14.2612610  45.1773940  13.6837060  13.3941040
  45.0423480  12.3504470  14.0984210  57.1573330  14.0621210  15.5576780
  57.6333050  14.5404100  16.2365860  57.7780490  13.9938700  14.8322280
  39.3596810   9.1069960   7.9698370  39.4377230   9.2418730   7.0254090
  39.9738490   8.3985850   8.1626490  40.6044440  10.8070150   4.3804550
  40.1972520  10.9484740   3.5258150  41.4957450  10.5230310   4.1775760
  56.5606580  11.2534060  12.7176790  56.6869640  11.0145940  11.7993970
  56.6027960  10.4218600  13.1898870  50.4223320  14.9562060  11.2871600
  50.9367990  14.8670070  12.0894030  49.5792400  15.3021760  11.5799510
  44.8766100  15.0215930   2.4927220  44.7008580  14.1051470   2.2795020
  44.0221840  15.3803220   2.7325020  51.6653780  14.3767670   3.3502090
  52.1210730  13.5957050   3.6640710  52.0046300  15.0874490   3.8943270
  56.4130590   3.3066520  13.6826530  55.7974860   3.8146190  13.1541990
  56.0927010   2.4064850  13.6252470  39.4156330  10.1484130  10.5092830
  39.5787370   9.6789490   9.6912200  39.8808780   9.6407690  11.1741670
  53.4749420   3.3667360  12.2785380  52.6243010   3.0673110  12.5994450
  53.3151210   3.6109370  11.3669200  50.5699130   4.8669110  14.3784170
  50.8952540   4.0332860  14.0386400  51.3579460   5.3897630  14.5262500
  43.9789320   4.4023460   3.2734650  43.7530240   4.1860630   4.1781270
  43.1981850   4.8351920   2.9280620  46.4188530   5.3009040  13.9394920
  46.3232130   4.3603770  13.7895320  47.2620510   5.5224110  13.5442990
  49.8151950   3.0450370   3.9028580  50.2081520   3.3622570   3.0897270
  50.1768800   2.1662250   4.0173100  50.4007090   5.6356120   7.9979360
  49.6688210   6.1442930   8.3469460  50.0031430   4.8186100   7.6968140
  46.8384480   2.3110320   6.4031850  46.8420540   1.8700270   5.5536390
  47.7335600   2.6327650   6.5103670  42.6886860   2.1936810   5.3626060
  42.3486910   2.6712040   6.1193110  41.9264180   1.7401930   5.0027160
  40.9895310   9.5235560  12.6688640  40.6050100   8.8829230  13.2671600
  41.3007500  10.2271680  13.2383370  47.1392450   6.3712100   8.1497260
  47.5062580   5.8970670   8.8958600  46.9497510   7.2453670   8.4905600
  44.9291820   5.4120740  10.4681470  44.6248890   6.2912720  10.6931830
  45.8838280   5.4720530  10.5038910  54.2161590   8.6147090   6.8574710
  54.9360710   9.1102380   6.4670820  54.0143410   7.9364980   6.2128580
  49.5980390   8.6856150  12.7443710  49.5317700   7.7651820  12.4901300
  48.9685530   8.7831590  13.4588350  43.5011010   9.2862110   4.7027130
  44.0189680   8.4830370   4.6484020  43.0495030   9.2241250   5.5443960
  40.9855550   6.2523480  11.6152830  40.6270490   6.9177330  12.2026170
  40.6910110   5.4207030  11.9865450  44.1868670   6.7107720  14.4992380
  43.8868810   6.8564900  13.6020200  44.9579910   6.1513010  14.4065770
  49.5297120  11.5076720  12.4947510  49.5441660  10.5757680  12.2766420
  48.8222220  11.5936480  13.1337280  55.7408330   8.1484060  11.8416090
  55.0156520   8.7412840  11.6445480  56.2683790   8.1407600  11.0429460
  51.2707920   9.8744230   5.3399940  51.6231740   9.2772360   4.6801310
  50.3870250   9.5488460   5.5108190  47.3571200  10.6341920   2.7470350
  48.0442330  11.1811130   3.1277940  46.5703620  11.1782650   2.7819960
  46.6598410   7.6387950   2.3595710  47.1161190   8.4493200   2.5855900
  46.3086620   7.3211090   3.1914200  48.9631020  13.1494290   9.5888010
  49.6073240  13.3553670  10.2661430  49.3260460  12.3882690   9.1358860
  50.2363100  11.1526640   8.3065460  50.8785330  10.4519800   8.4197630
  50.7612450  11.9325080   8.1262350  52.0100720  11.9521540  11.5101520
  52.3456960  12.5388230  12.1879440  51.0901060  11.8214250  11.7399310
  39.8476710  13.7296980  13.2791460  39.9567830  12.7891720  13.1386850
  39.1957270  13.9951730  12.6305190  47.8389300  12.0012870  14.6789580
  47.5186170  11.2822110  15.2235270  47.1647660  12.6767940  14.7525640
  46.3888960   3.4681920   2.2671820  45.6805110   3.9368260   2.7085430
  46.6733440   2.8103930   2.9017010  48.0144890   4.8878620  10.2664350
  48.5130140   5.3624440  10.9316200  48.1567840   3.9642140  10.4734380
  47.5081180  15.4287880   2.9795590  47.7622680  15.3909270   2.0574960
  46.5593660  15.3021210   2.9723840  53.5133760   6.3479760   4.5554100
  52.5723900   6.3629990   4.7301790  53.8277830   5.5615720   5.0014400
  55.5159340  13.5188610   6.2308360  55.6406760  14.3419780   6.7032170
  56.3824900  13.3079340   5.8832510  42.9876870  15.6119820   5.9025490
  43.7239350  15.0635280   6.1734060  43.3717790  16.4775830   5.7631480
  39.8722350  11.6793390   1.7767000  38.9462130  11.9214530   1.7672410
  40.3378780  12.5067650   1.6551750  41.9935150  14.7965890  15.0911070
  42.7947880  15.1177940  15.5046470  41.4786970  14.4361470  15.8130980
  50.8299780  10.9045760  15.0386480  50.2237940  10.9277360  14.2982230
  50.5253890  10.1728800  15.5753730  52.2600150  14.6326050  13.6495890
  53.2121900  14.5484070  13.5996130  52.1128370  15.2967760  14.3229680
  39.7132960   7.2839350  14.0347120  40.2171980   6.7046630  14.6063350
  38.9740380   7.5679580  14.5723490  46.7670900   8.6910340  13.5682640
  46.0016570   9.2595340  13.4837310  46.9486860   8.3986550  12.6750870
  53.9094250  10.4215670  14.1257660  54.6503720  10.7591430  13.6225120
  53.1466930  10.5907730  13.5727430  41.7456040   5.4268940  14.9297190
  41.7861380   5.1282810  15.8382420  42.6001540   5.8276550  14.7704710
  43.6861850   4.0061040  12.8971680  43.1558310   3.5151990  12.2695020
  44.3549920   4.4345240  12.3629610  52.5839910   8.4730500  12.6612870
  52.9980930   8.6275580  13.5103290  51.6490910   8.5985720  12.8238650
  53.0562080   5.8126660  14.6652020  53.6382850   5.0578980  14.5772500
  53.2323850   6.3434100  13.8883500  47.3455140   8.4250980  10.6308800
  47.7643250   9.2683710  10.4585040  46.4263770   8.5623020  10.4015580
  49.6819040   6.1567160  12.0146640  49.8015250   5.5608300  12.7541480
  50.5413040   6.1936850  11.5947940  52.0206940   6.7104350  10.5909150
  51.4942160   7.2346970   9.9874290  52.3638280   7.3431740  11.2218880
  45.1962560  14.7303990  11.7466530  44.6583650  15.4550050  11.4275230
  45.4496520  14.2534330  10.9563870  46.4487810   2.6988510  13.2722460
  47.0387500   2.3904360  13.9600280  45.6308050   2.2268260  13.4282360
  51.2681240   2.3154320  13.5055480  50.5796760   1.6535860  13.4405470
  51.9887260   1.8692590  13.9503940  48.0524770  15.9655200  12.0053180
  47.9783470  16.8690340  12.3125550  47.1503610  15.6467100  11.9775250
  39.4552060  13.2929790   5.3086800  39.7855070  12.4250850   5.0765440
  39.8843060  13.4988310   6.1391760  44.0513980  11.6238800   2.9688770
  43.7509520  11.5003770   3.8692680  43.9451470  10.7647390   2.5604500
  39.9442270  14.1600380   8.0468430  39.5073260  14.3401180   8.8792580
  40.5119950  14.9175000   7.9050150  55.5804450  13.6617380  12.3345740
  54.9806440  13.7209940  11.5909660  55.7098350  12.7222360  12.4642590
  39.7766700   6.6720610   4.4057310  39.1215540   6.4032250   3.7617010
  40.6144650   6.5625090   3.9559290  57.2822330   9.0032780   5.0191580
  57.6531160   8.2200100   4.6127550  57.9224260   9.6921880   4.8408880
  54.2656090  10.3869360  10.4321900  53.4515930  10.8166520  10.6947690
  54.6730290  10.9987770   9.8190950  56.2246870   6.3786040   2.3251600
  55.8490470   5.6113970   1.8932890  55.4949990   6.7608740   2.8126530
  40.8142630   7.0573180   8.9460650  41.1815670   6.9700580   9.8256670
  40.2453450   6.2939730   8.8467510  55.6146490   5.5257560  11.9591120
  55.3832580   5.2970310  11.0589070  55.8751040   6.4457110  11.9136010
  40.3658630   3.9682270  12.8519070  39.4714680   3.9349030  13.1912780
  40.9056180   4.1669060  13.6170320  55.4997830   4.6043530   5.6258840
  56.0235310   4.1106180   4.9949010  56.0857250   4.7393890   6.3706410
  55.6787550   4.6883400   9.1478390  54.7290260   4.6546940   9.2623380
  55.8600560   5.5983510   8.9128160  56.4184960   2.4977830   4.0988930
  56.3084240   2.3433870   5.0371200  57.1792550   1.9698770   3.8564340
  54.3232140  15.1387960   3.9590170  54.9191210  14.8172530   3.2824590
  54.5810290  14.6659780   4.7503440  42.2294710  11.5705870  14.1080800
  42.1864340  11.1998780  14.9895260  42.3605720  12.5083440  14.2482620
  45.9300740  13.1265460   9.7090520  45.6892100  13.3940020   8.8221040
  46.8703380  13.2971190   9.7641380  57.1904900  15.1459840  10.5101160
  56.6963180  15.5428710   9.7928290  56.5818190  14.5209050  10.9038440
  42.0682740  14.5168120  11.2278580  41.4743060  14.3852820  11.9668620
  42.0606580  13.6806260  10.7620680  54.8744350  15.7883260   7.7887900
  54.4147320  16.5399070   7.4145920  54.2456810  15.0689730   7.7302700
  41.6994970  11.8826500  10.1786620  40.9729030  11.2631790  10.1112570
  41.7604120  12.2767110   9.3084700  45.3040070  14.0971500   6.9636030
  45.8205090  13.4858860   6.4384290  45.9537450  14.6000280   7.4547040
  48.0435570  14.9879990   7.7905010  48.3313380  14.7334290   6.9138020
  48.5558790  14.4357350   8.3810580  39.9824970  15.2000890   3.3883380
  39.8147010  14.5671570   4.0865270  39.1159480  15.4060290   3.0377570
  48.1107930  15.9096090  15.1573210  49.0375240  15.6740360  15.2009170
  48.0958360  16.7368090  14.6759240  54.6785490  15.1365950  14.9814250
  55.4710810  14.6415180  14.7740210  54.9718640  15.8156090  15.5889860
  32.0301660  81.1060850  79.7347750  31.9495710  80.1915460  79.4639460
  31.6166080  81.6027920  79.0287460  30.1619700  82.8839870  81.6157020
  29.3861800  82.4040310  81.9055590  30.8132630  82.2045520  81.4413180
  24.1785530  83.1959680  82.4932780  23.3470410  82.9408390  82.8929290
  24.7866510  83.2670450  83.2290700  22.5877480  78.1561570  76.2775170
  21.6994180  78.4977540  76.1755050  22.8718670  77.9561890  75.3856000
  20.5510490  80.7567220  82.1614870  21.1226600  79.9889420  82.1618510
  20.5512030  81.0555980  81.2521480  29.6028690  85.5597060  81.6227180
  29.5336970  84.6187000  81.4616310  30.3648550  85.6498470  82.1949750
  21.7935360  76.1651580  83.9483800  21.6138200  75.2677330  84.2286560
  21.3915440  76.7123450  84.6230750  30.6333860  78.3667440  81.8496110
  31.0098680  77.4939320  81.7369780  30.5353370  78.7026140  80.9586550
  24.7638870  76.7393070  77.3113550  24.8705620  77.6396800  77.6182310
  23.8531230  76.6911040  77.0208200  34.4157980  75.8617880  78.7824450
  35.2367600  75.3714450  78.8249930  34.4492060  76.4515540  79.5356290
  22.4122030  78.6612080  82.5566140  23.0932140  78.9250450  83.1753540
  22.0970080  77.8212950  82.8904150  26.6046600  79.7079440  81.6438730
  27.1124820  80.2060410  82.2843750  27.1359840  78.9314640  81.4678090
  38.7057530  77.8784630  85.3468080  38.0009700  78.2666340  84.8283190
  38.9715450  78.5734920  85.9489010  24.8882700  74.3478000  85.9102150
  24.8901140  74.8650390  85.1048050  24.0587010  73.8708180  85.8872080
  31.2753790  84.4597310  77.4092050  30.6571060  84.9246760  76.8454770
  31.7877040  85.1524790  77.8261560  26.1385550  83.9873180  84.0875650
  25.8054930  84.6142100  84.7296720  26.3152230  84.5135060  83.3077320
  34.6519460  77.8018260  81.5551990  33.9475030  78.0903150  82.1355100
  35.0131620  78.6118370  81.1951550  24.5698030  76.0587960  83.9172600
  24.9114840  76.9030010  83.6226470  23.6313840  76.2071700  84.0337940
  25.3504650  85.9553980  85.9024830  25.9678650  86.6305060  85.6209280
  24.4897770  86.3641960  85.8112330  20.6436990  85.1453840  74.7831680
  20.2664970  85.6340940  74.0516580  20.9010060  85.8179120  75.4138210
  37.7206380  77.2473050  81.9461200  36.7731290  77.2812030  82.0776630
  38.0456370  78.0612000  82.3310560  28.2525920  73.5470230  80.2417190
  28.5600900  72.9917120  79.5252690  27.3226620  73.6814690  80.0590180
  35.0986400  85.9853740  77.6214820  34.9882730  85.0428070  77.7464240
  35.0954650  86.3469380  78.5077580  33.2026420  84.1667360  83.8607260
  33.6195210  83.9527470  83.0260720  33.9266240  84.4240150  84.4315880
  30.6406680  81.6119060  76.9777310  29.7135960  81.5456440  77.2065780
  30.7931500  82.5499190  76.8632550  30.6275760  77.8836060  73.9744470
  29.6879430  78.0450020  74.0596930  30.9459020  78.6021740  73.4280460
  37.1488520  82.5654580  83.9523500  36.3207150  82.6347670  83.4773630
  37.7439000  83.1508890  83.4839330  34.6703970  83.1739360  77.4812560
  34.0516390  82.8358910  76.8338860  34.6528420  82.5299120  78.1891750
  34.1130530  79.3523900  84.8978370  33.7001710  80.1777610  85.1518360
  33.3806480  78.7668940  84.7054730  26.2463320  82.1383800  79.7597040
  25.8420320  81.4261050  79.2642940  26.3326440  81.7937040  80.6485080
  26.7145020  85.8251360  81.9236250  26.4173310  85.2196830  81.2444030
  27.6644840  85.8628670  81.8125610  24.9591940  78.9127010  83.5396080
  25.5106530  79.0222350  82.7649330  25.4735450  79.2864610  84.2551310
  32.8468670  82.4126170  74.4885310  33.2861950  81.5748600  74.3423130
  33.5597090  83.0455570  74.5749450  36.4285810  73.6668980  72.8026350
  36.1158470  73.7595810  73.7025420  37.1898280  74.2450010  72.7523780
  22.9467950  81.0328780  77.2603690  22.8265550  81.7590870  76.6484960
  22.6368840  80.2631690  76.7831600  20.5853320  84.2043920  83.0672330
  20.6633740  84.3392690  82.1228050  21.1995000  83.4959810  83.2600450
  21.8300950  85.9044110  79.4778510  21.4229030  86.0458700  78.6232110
  22.7213960  85.6204270  79.2749720  25.4131610  74.3763850  80.6427360
  24.9699760  75.1573390  80.3111880  25.9716600  74.6993740  81.3498300
  28.5290430  73.9974550  75.5233190  27.9044610  73.9934420  76.2486500
  28.4420550  73.1305510  75.1269160  27.4507510  74.9211180  82.5016960
  27.7479840  75.8274010  82.4208980  27.9993070  74.4329960  81.8876530
  25.2045830  79.4997420  78.3708610  24.9786750  79.2834590  79.2755230
  24.4238360  79.9325880  78.0254580  32.4343590  79.5060790  76.9699260
  31.8352480  80.2296590  76.7862880  32.9823200  79.4437570  76.1875710
  31.0408460  78.1424330  79.0002540  31.4338030  78.4596530  78.1871230
  31.4025310  77.2636210  79.1147060  20.0772630  74.7325130  81.2232740
  19.7885680  75.3027990  81.9357720  20.8218390  74.2529580  81.5863970
  20.2642860  78.6745250  72.4335460  20.1817530  79.6176010  72.5750450
  19.9125920  78.5320160  71.5547810  31.6263600  80.7330080  83.0953320
  30.8944720  81.2416890  83.4443420  31.2287940  79.9160060  82.7942100
  28.0640990  77.4084280  81.5005810  28.0677050  76.9674230  80.6510350
  28.9592110  77.7301610  81.6077630  23.9143370  77.2910770  80.4600020
  23.5743420  77.7686000  81.2167070  23.1520690  76.8375890  80.1001120
  28.1261140  78.4096360  74.4912570  28.2473960  78.3682840  75.4398390
  27.7409650  79.2720510  74.3359300  32.0889510  76.1863760  82.5076260
  32.1062250  76.6372410  83.3518110  31.8405090  75.2869400  82.7209700
  27.1382640  80.7197500  73.8895870  26.5699540  80.2715750  73.2631780
  27.8471640  81.0790280  73.3561020  28.3648960  81.4686060  83.2471220
  28.7319090  80.9944630  83.9932560  28.1754020  82.3427630  83.5879560
  21.2289450  76.2129750  79.3764690  20.9436370  75.8485420  80.2143310
  21.1668310  75.4810210  78.7627830  26.1548330  80.5094700  85.5655430
  25.8505400  81.3886680  85.7905790  27.1094790  80.5694490  85.6012870
  24.6830120  84.7155690  76.1622280  23.9092380  84.1753310  76.0021000
  25.4124750  84.1962300  75.8240040  35.4418100  83.7121050  81.9548670
  36.1617220  84.2076340  81.5644780  35.2399920  83.0338940  81.3102540
  30.9028040  75.1059010  76.0978060  30.0892650  74.6072180  76.0223370
  30.7089990  75.9457260  75.6814410  33.6176430  79.4778660  74.3940220
  34.5056050  79.7895890  74.2191560  33.5881520  78.6050910  74.0020800
  24.7267520  84.3836070  79.8001090  25.2446190  83.5804330  79.7457980
  24.2751540  84.3215210  80.6417920  29.6137020  85.6502350  75.0728390
  29.9552720  86.3944580  74.5771710  28.7849730  85.9633470  75.4353220
  35.8890700  80.7890500  73.8620080  35.8054420  81.2204720  73.0116520
  36.6084890  81.2488850  74.2946900  32.4964430  84.9718190  80.4373900
  32.8488250  84.3746320  79.7775270  31.6126760  84.6462420  80.6082150
  28.5827710  85.7315880  77.8444310  29.2698840  86.2785090  78.2251900
  27.7960130  86.2756610  77.8793920  20.7220110  81.3488700  73.3361390
  21.5914960  81.6313500  73.6197310  20.2310430  82.1624570  73.2210200
  27.8854920  82.7361910  77.4569670  28.3417700  83.5467160  77.6829860
  27.5343130  82.4185050  78.2888160  23.7866700  73.0799560  77.9292190
  23.6581330  73.0717460  78.8777110  22.9628720  73.4182650  77.5783200
  31.4619610  86.2500600  83.4039420  32.1041840  85.5493760  83.5171590
  31.9868960  87.0299040  83.2236310  35.3075330  86.5349220  73.1278560
  35.0812910  85.8179660  73.7203200  34.9171530  86.2861660  72.2900310
  34.8891580  84.4521160  74.7892720  34.6013280  84.9133850  75.5770600
  35.6843750  83.9918930  75.0576940  22.7066620  83.1662170  75.4643450
  22.0994570  83.9061070  75.4738750  23.1815970  83.2561530  74.6381650
  32.2799410  77.3312990  85.1400340  32.6480230  76.5108200  85.4679910
  31.4197610  77.3914880  85.5555990  35.6461440  76.2869930  75.9487900
  35.0174600  76.3915600  75.2346130  35.1513360  76.5066710  76.7381780
  27.6145470  78.5655880  77.3645780  26.9061620  79.0342220  77.8059390
  27.8989950  77.9077890  77.9990970  31.6460900  75.2906540  78.8041570
  31.5228680  75.3092670  77.8551080  32.5945460  75.3385480  78.9239970
  25.8180490  76.8740960  74.7396490  26.6671020  77.3111110  74.6736680
  25.4511760  77.1861220  75.5668550  34.7390270  81.4453720  79.6528060
  33.7980410  81.4603950  79.8275750  35.0534340  80.6589680  80.0988360
  24.7171910  83.1273320  73.2132020  25.4835180  83.0154680  73.7757450
  24.7946600  82.4311290  72.5608790  23.4118670  80.5598390  73.8964910
  23.4922260  79.6125900  74.0082310  24.3038420  80.8905270  74.0025570
  27.8413090  85.1027500  72.6867370  27.7363730  84.4879850  73.4128750
  27.6737310  84.5793390  71.9030380  31.0815820  84.1647530  73.2909360
  30.5325920  84.6116830  73.9352100  31.7035080  83.6596780  73.8147030
  26.7490940  83.1238450  75.1874660  27.1707360  82.9578320  76.0306050
  26.8741780  82.3138680  74.6929800  29.2618580  82.1476060  72.4351760
  29.7824240  81.4325080  72.0692910  29.9086980  82.7861930  72.7352270
  28.1652100  74.6270610  85.1070320  27.7169400  74.6494870  84.2615870
  27.5317300  74.2289630  85.7040620  28.5711650  83.5224940  85.7282760
  28.9899760  84.3657670  85.5559000  27.6520280  83.6596980  85.4989540
  25.6449840  79.1971680  72.1332820  25.4438900  78.3339040  72.4946160
  25.4741890  79.1105040  71.1954420  33.1238150  74.0079910  74.6619700
  33.4040440  73.1647810  75.0179120  32.3503880  74.2403020  75.1758450
  24.4432640  76.2972300  72.1210700  24.7458540  76.3039730  71.2129850
  25.1827230  75.9470160  72.6178360  27.6617570  75.2406920  73.1066900
  27.3139570  74.5630910  72.5269350  27.8630340  74.7796430  73.9210290
  23.4662770  85.6014720  72.9540500  23.9037640  86.1444390  73.6098080
  23.9510500  84.7761670  72.9636840  25.2770490  86.7212760  78.0662730
  24.9766030  86.5977730  78.9666640  25.1707980  85.8621350  77.6578460
  37.5018870  83.2456640  75.2723610  38.2637780  83.8153290  75.3783300
  37.5173240  82.6783840  76.0431920  21.0023210  81.7694570  79.5031270
  20.3472050  81.5006210  78.8590970  21.8401160  81.6599050  79.0533250
  38.5078840  84.1006740  80.1165540  38.8787670  83.3174060  79.7101510
  39.1480770  84.7895840  79.9382840  35.4912600  85.4843320  85.5295860
  34.6772440  85.9140480  85.7921650  35.8986800  86.0961730  84.9164910
  37.5538040  83.5391010  72.4296130  37.8286880  84.4469890  72.3015350
  37.3648780  83.4753540  73.3658120  33.9513650  76.5635860  73.7249760
  34.3698530  76.3766840  72.8846420  33.6449710  75.7114910  74.0352690
  37.4503380  81.4760000  77.4225560  37.0746980  80.7087930  76.9906850
  36.7206500  81.8582700  77.9100490  22.0399140  82.1547140  84.0434610
  22.4072180  82.0674540  84.9230630  21.4709960  81.3913690  83.9441470
  20.2161290  78.9793500  75.4456600  19.3125370  79.2423700  75.2708260
  20.7001910  79.2504670  74.6656560  36.7254340  79.7017490  80.7232800
  37.2491820  79.2080140  80.0922970  37.3113760  79.8367850  81.4680370
  36.9044060  79.7857360  84.2452350  35.9546770  79.7520900  84.3597340
  37.0857070  80.6957470  84.0102120  22.7588500  78.0359040  73.3550980
  23.4680200  77.6142260  72.8698260  22.0428440  78.1034270  72.7234330
  22.4062660  74.0898370  72.3953630  23.1290790  74.6307310  72.7134850
  22.6787180  73.8161790  71.5195170  36.2154310  78.9590840  76.6625210
  36.7113430  78.7261710  77.4474090  36.0170380  78.1202680  76.2462850
  22.0954850  73.3404560  82.2976250  22.7431040  72.7901940  81.8571410
  22.5156690  73.5947710  83.1192060  37.6441470  77.5951790  79.1962890
  37.5340750  77.4407830  80.1345160  38.4049060  77.0672730  78.9538300
  38.5331740  75.4259710  72.4369030  39.4581050  75.2940890  72.2287320
  38.5107530  75.5052530  73.3905480  38.6070230  76.1970370  75.0625740
  37.8121730  76.1315490  75.5918650  38.8113510  77.1321010  75.0511090
  21.8486850  73.4960230  85.0401570  21.5001670  73.9524050  85.8059750
  21.5174550  72.6017360  85.1224000  32.7394270  72.9074310  84.5282570
  31.8654110  73.2409420  84.3255500  32.6305020  72.4347490  85.3534440
  33.6466250  75.1145180  85.9124290  33.3179610  74.2996940  85.5326020
  34.5948550  75.0714990  85.7889980  30.4869090  73.8244150  83.4675480
  29.7040880  74.2989650  83.7472240  30.1932020  72.9198980  83.3588660
  35.0390160  74.5267250  81.5124570  35.4798250  74.4712350  80.6646170
  34.7697750  75.4425260  81.5834750  36.9028730  74.1582490  79.5233390
  36.8417130  73.2143710  79.3764410  37.6820760  74.2662580  80.0686850
  21.8309500  74.1291630  75.9889200  22.5888860  74.2420510  75.4153230
  21.3686670  74.9660830  75.9432630  28.3723310  76.2430900  78.9791510
  27.5597820  75.8687790  78.6387390  28.8764950  75.4875980  79.2812700
  32.8748290  72.9073350  80.2174580  33.4777660  73.4793560  80.6923100
  32.1341280  73.4712790  79.9948480  36.0182890  73.3094910  75.4914860
  36.2133520  74.2078360  75.7582290  35.2312760  73.0781990  75.9847810
  24.2034650  74.6555680  74.5291170  24.7327410  73.8685480  74.3999120
  24.8362970  75.3346870  74.7626700  26.3972490  74.3930820  77.5836560
  25.7675230  73.6918130  77.7506690  25.8577630  75.1534950  77.3669720
  32.0301660  81.1060850  60.9604260  31.9495710  80.1915460  60.6895970
  31.6166080  81.6027920  60.2543970  30.1619700  82.8839870  62.8413530
  29.3861800  82.4040310  63.1312100  30.8132630  82.2045520  62.6669690
  24.1785530  83.1959680  63.7189290  23.3470410  82.9408390  64.1185800
  24.7866510  83.2670450  64.4547210  22.5877480  78.1561570  57.5031680
  21.6994180  78.4977540  57.4011560  22.8718670  77.9561890  56.6112510
  20.5510490  80.7567220  63.3871380  21.1226600  79.9889420  63.3875020
  20.5512030  81.0555980  62.4777990  29.6028690  85.5597060  62.8483690
  29.5336970  84.6187000  62.6872820  30.3648550  85.6498470  63.4206260
  21.7935360  76.1651580  65.1740310  21.6138200  75.2677330  65.4543070
  21.3915440  76.7123450  65.8487260  30.6333860  78.3667440  63.0752620
  31.0098680  77.4939320  62.9626290  30.5353370  78.7026140  62.1843060
  24.7638870  76.7393070  58.5370060  24.8705620  77.6396800  58.8438820
  23.8531230  76.6911040  58.2464710  34.4157980  75.8617880  60.0080960
  35.2367600  75.3714450  60.0506440  34.4492060  76.4515540  60.7612800
  22.4122030  78.6612080  63.7822650  23.0932140  78.9250450  64.4010050
  22.0970080  77.8212950  64.1160660  26.6046600  79.7079440  62.8695240
  27.1124820  80.2060410  63.5100260  27.1359840  78.9314640  62.6934600
  38.7057530  77.8784630  66.5724590  38.0009700  78.2666340  66.0539700
  38.9715450  78.5734920  67.1745520  24.8882700  74.3478000  67.1358660
  24.8901140  74.8650390  66.3304560  24.0587010  73.8708180  67.1128590
  31.2753790  84.4597310  58.6348560  30.6571060  84.9246760  58.0711280
  31.7877040  85.1524790  59.0518070  26.1385550  83.9873180  65.3132160
  25.8054930  84.6142100  65.9553230  26.3152230  84.5135060  64.5333830
  34.6519460  77.8018260  62.7808500  33.9475030  78.0903150  63.3611610
  35.0131620  78.6118370  62.4208060  24.5698030  76.0587960  65.1429110
  24.9114840  76.9030010  64.8482980  23.6313840  76.2071700  65.2594450
  25.3504650  85.9553980  67.1281340  25.9678650  86.6305060  66.8465790
  24.4897770  86.3641960  67.0368840  20.6436990  85.1453840  56.0088190
  20.2664970  85.6340940  55.2773090  20.9010060  85.8179120  56.6394720
  37.7206380  77.2473050  63.1717710  36.7731290  77.2812030  63.3033140
  38.0456370  78.0612000  63.5567070  28.2525920  73.5470230  61.4673700
  28.5600900  72.9917120  60.7509200  27.3226620  73.6814690  61.2846690
  35.0986400  85.9853740  58.8471330  34.9882730  85.0428070  58.9720750
  35.0954650  86.3469380  59.7334090  33.2026420  84.1667360  65.0863770
  33.6195210  83.9527470  64.2517230  33.9266240  84.4240150  65.6572390
  30.6406680  81.6119060  58.2033820  29.7135960  81.5456440  58.4322290
  30.7931500  82.5499190  58.0889060  30.6275760  77.8836060  55.2000980
  29.6879430  78.0450020  55.2853440  30.9459020  78.6021740  54.6536970
  37.1488520  82.5654580  65.1780010  36.3207150  82.6347670  64.7030140
  37.7439000  83.1508890  64.7095840  34.6703970  83.1739360  58.7069070
  34.0516390  82.8358910  58.0595370  34.6528420  82.5299120  59.4148260
  34.1130530  79.3523900  66.1234880  33.7001710  80.1777610  66.3774870
  33.3806480  78.7668940  65.9311240  26.2463320  82.1383800  60.9853550
  25.8420320  81.4261050  60.4899450  26.3326440  81.7937040  61.8741590
  26.7145020  85.8251360  63.1492760  26.4173310  85.2196830  62.4700540
  27.6644840  85.8628670  63.0382120  24.9591940  78.9127010  64.7652590
  25.5106530  79.0222350  63.9905840  25.4735450  79.2864610  65.4807820
  25.8063450  85.5633050  69.8000560  24.9091980  85.7873020  70.0473960
  25.8316320  85.6867990  68.8511960  32.8468670  82.4126170  55.7141820
  33.2861950  81.5748600  55.5679640  33.5597090  83.0455570  55.8005960
  24.6334670  82.4346370  68.3757930  24.4942440  83.3069170  68.7445330
  23.7516030  82.0919180  68.2305870  36.4285810  73.6668980  54.0282860
  36.1158470  73.7595810  54.9281930  37.1898280  74.2450010  53.9780290
  22.9467950  81.0328780  58.4860200  22.8265550  81.7590870  57.8741470
  22.6368840  80.2631690  58.0088110  20.5853320  84.2043920  64.2928840
  20.6633740  84.3392690  63.3484560  21.1995000  83.4959810  64.4856960
  21.8300950  85.9044110  60.7035020  21.4229030  86.0458700  59.8488620
  22.7213960  85.6204270  60.5006230  37.7863090  86.3508020  69.0407260
  37.9126150  86.1119900  68.1224440  37.8284470  85.5192560  69.5129340
  37.6387100  78.4040480  70.0057000  37.0231370  78.9120150  69.4772460
  37.3183520  77.5038810  69.9482940  20.6412840  85.2458090  66.8323300
  20.8043880  84.7763450  66.0142670  21.1065290  84.7381650  67.4972140
  25.4131610  74.3763850  61.8683870  24.9699760  75.1573390  61.5368390
  25.9716600  74.6993740  62.5754810  29.7001420  77.2432370  67.4719190
  29.2380790  77.4515390  68.2839130  29.2979530  76.4291720  67.1689860
  34.7005930  78.4641320  68.6015850  33.8499520  78.1647070  68.9224920
  34.5407720  78.7083330  67.6899670  31.7955640  79.9643070  70.7014640
  32.1209050  79.1306820  70.3616870  32.5835970  80.4871590  70.8492970
  28.5290430  73.9974550  56.7489700  27.9044610  73.9934420  57.4743010
  28.4420550  73.1305510  56.3525670  27.4507510  74.9211180  63.7273470
  27.7479840  75.8274010  63.6465490  27.9993070  74.4329960  63.1133040
  25.2045830  79.4997420  59.5965120  24.9786750  79.2834590  60.5011740
  24.4238360  79.9325880  59.2511090  32.4343590  79.5060790  58.1955770
  31.8352480  80.2296590  58.0119390  32.9823200  79.4437570  57.4132220
  27.6445040  80.3983000  70.2625390  27.5488640  79.4577730  70.1125790
  28.4877020  80.6198070  69.8673460  31.0408460  78.1424330  60.2259050
  31.4338030  78.4596530  59.4127740  31.4025310  77.2636210  60.3403570
  22.7755580  76.8096670  68.4159170  22.3818970  77.6571880  68.6231950
  22.0873980  76.1723040  68.6067810  29.3500630  76.8931640  71.4855910
  28.6598950  76.7003840  72.1202000  30.0932930  77.1766280  72.0180210
  20.0772630  74.7325130  62.4489250  19.7885680  75.3027990  63.1614230
  20.8218390  74.2529580  62.8120480  20.2642860  78.6745250  53.6591970
  20.1817530  79.6176010  53.8006960  19.9125920  78.5320160  52.7804320
  31.6263600  80.7330080  64.3209830  30.8944720  81.2416890  64.6699930
  31.2287940  79.9160060  64.0198610  28.0640990  77.4084280  62.7262320
  28.0677050  76.9674230  61.8766860  28.9592110  77.7301610  62.8334140
  23.9143370  77.2910770  61.6856530  23.5743420  77.7686000  62.4423580
  23.1520690  76.8375890  61.3257630  28.1261140  78.4096360  55.7169080
  28.2473960  78.3682840  56.6654900  27.7409650  79.2720510  55.5615810
  32.0889510  76.1863760  63.7332770  32.1062250  76.6372410  64.5774620
  31.8405090  75.2869400  63.9466210  27.1382640  80.7197500  55.1152380
  26.5699540  80.2715750  54.4888290  27.8471640  81.0790280  54.5817530
  35.5160260  73.5995940  69.5719150  35.8406030  72.8685600  70.0977130
  35.5516770  73.2809580  68.6700140  22.2151820  84.6209520  68.9919110
  21.8306610  83.9803190  69.5902070  22.5264010  85.3245640  69.5613840
  28.3648960  81.4686060  64.4727730  28.7319090  80.9944630  65.2189070
  28.1754020  82.3427630  64.8136070  21.2289450  76.2129750  60.6021200
  20.9436370  75.8485420  61.4399820  21.1668310  75.4810210  59.9884340
  26.1548330  80.5094700  66.7911940  25.8505400  81.3886680  67.0162300
  27.1094790  80.5694490  66.8269380  24.6830120  84.7155690  57.3878790
  23.9092380  84.1753310  57.2277510  25.4124750  84.1962300  57.0496550
  35.4418100  83.7121050  63.1805180  36.1617220  84.2076340  62.7901290
  35.2399920  83.0338940  62.5359050  30.9028040  75.1059010  57.3234570
  30.0892650  74.6072180  57.2479880  30.7089990  75.9457260  56.9070920
  30.8236900  83.7830110  69.0674180  30.7574210  82.8625780  68.8131770
  30.1942040  83.8805550  69.7818820  33.6176430  79.4778660  55.6196730
  34.5056050  79.7895890  55.4448070  33.5881520  78.6050910  55.2277310
  24.7267520  84.3836070  61.0257600  25.2446190  83.5804330  60.9714490
  24.2751540  84.3215210  61.8674430  29.6137020  85.6502350  56.2984900
  29.9552720  86.3944580  55.8028220  28.7849730  85.9633470  56.6609730
  22.2112060  81.3497440  67.9383300  21.8527000  82.0151290  68.5256640
  21.9166620  80.5180990  68.3095920  25.4125180  81.8081680  70.8222850
  25.1125320  81.9538860  69.9250670  26.1836420  81.2486970  70.7296240
  30.7553630  86.6050680  68.8177980  30.7698170  85.6731640  68.5996890
  30.0478730  86.6910440  69.4567750  35.8890700  80.7890500  55.0876590
  35.8054420  81.2204720  54.2373030  36.6084890  81.2488850  55.5203410
  36.9664840  83.2458020  68.1646560  36.2413030  83.8386800  67.9675950
  37.4940300  83.2381560  67.3659930  32.4964430  84.9718190  61.6630410
  32.8488250  84.3746320  61.0031780  31.6126760  84.6462420  61.8338660
  28.5827710  85.7315880  59.0700820  29.2698840  86.2785090  59.4508410
  27.7960130  86.2756610  59.1050430  20.7220110  81.3488700  54.5617900
  21.5914960  81.6313500  54.8453820  20.2310430  82.1624570  54.4466710
  27.8854920  82.7361910  58.6826180  28.3417700  83.5467160  58.9086370
  27.5343130  82.4185050  59.5144670  23.7866700  73.0799560  59.1548700
  23.6581330  73.0717460  60.1033620  22.9628720  73.4182650  58.8039710
  31.4619610  86.2500600  64.6295930  32.1041840  85.5493760  64.7428100
  31.9868960  87.0299040  64.4492820  35.3075330  86.5349220  54.3535070
  35.0812910  85.8179660  54.9459710  34.9171530  86.2861660  53.5156820
  20.7860630  74.8390680  68.6155400  20.0719150  75.0387600  69.2208010
  21.2055670  74.0630250  68.9870200  34.8891580  84.4521160  56.0149230
  34.6013280  84.9133850  56.8027110  35.6843750  83.9918930  56.2833450
  22.7066620  83.1662170  56.6899960  22.0994570  83.9061070  56.6995260
  23.1815970  83.2561530  55.8638160  32.2799410  77.3312990  66.3656850
  32.6480230  76.5108200  66.6936420  31.4197610  77.3914880  66.7812500
  35.6461440  76.2869930  57.1744410  35.0174600  76.3915600  56.4602640
  35.1513360  76.5066710  57.9638290  27.6145470  78.5655880  58.5902290
  26.9061620  79.0342220  59.0315900  27.8989950  77.9077890  59.2247480
  29.2401400  79.9852580  66.5894820  29.7386650  80.4598400  67.2546670
  29.3824350  79.0616100  66.7964850  31.6460900  75.2906540  60.0298080
  31.5228680  75.3092670  59.0807590  32.5945460  75.3385480  60.1496480
  25.8180490  76.8740960  55.9653000  26.6671020  77.3111110  55.8993190
  25.4511760  77.1861220  56.7925060  36.4468260  76.2020540  67.4323210
  35.9441860  76.9425940  67.7717020  37.2624920  76.5904540  67.1160000
  34.7390270  81.4453720  60.8784570  33.7980410  81.4603950  61.0532260
  35.0534340  80.6589680  61.3244870  24.7171910  83.1273320  54.4388530
  25.4835180  83.0154680  55.0013960  24.7946600  82.4311290  53.7865300
  23.4118670  80.5598390  55.1221420  23.4922260  79.6125900  55.2338820
  24.3038420  80.8905270  55.2282080  32.0556290  86.0019720  71.3616950
  31.4494450  86.0251320  70.6212700  31.7510400  85.2702760  71.8984200
  20.9389470  82.3813310  70.3577590  21.4428490  81.8020590  70.9293820
  20.1996890  82.6653540  70.8953960  27.8413090  85.1027500  53.9123880
  27.7363730  84.4879850  54.6385260  27.6737310  84.5793390  53.1286890
  27.9927410  83.7884300  69.8913110  27.2273080  84.3569300  69.8067780
  28.1743370  83.4960510  68.9981340  31.0815820  84.1647530  54.5165870
  30.5325920  84.6116830  55.1608610  31.7035080  83.6596780  55.0403540
  35.1350760  85.5189630  70.4488130  35.8760230  85.8565390  69.9455590
  34.3723440  85.6881690  69.8957900  22.9712550  80.5242900  71.2527660
  23.0117890  80.2256770  72.1612890  23.8258050  80.9250510  71.0935180
  26.7490940  83.1238450  56.4131170  27.1707360  82.9578320  57.2562560
  26.8741780  82.3138680  55.9186310  24.9118360  79.1035000  69.2202150
  24.3814820  78.6125950  68.5925490  25.5806430  79.5319200  68.6860080
  29.2618580  82.1476060  53.6608270  29.7824240  81.4325080  53.2949420
  29.9086980  82.7861930  53.9608780  33.8096420  83.5704460  68.9843340
  34.2237440  83.7249540  69.8333760  32.8747420  83.6959680  69.1469120
  34.2818590  80.9100620  70.9882490  34.8639360  80.1552940  70.9002970
  34.4580360  81.4408060  70.2113970  25.3990660  76.0697370  69.2999440
  25.3047530  75.4518120  68.5750310  24.8188050  76.7963660  69.0729350
  28.1652100  74.6270610  66.3326830  27.7169400  74.6494870  65.4872380
  27.5317300  74.2289630  66.9297130  28.5711650  83.5224940  66.9539270
  28.9899760  84.3657670  66.7815510  27.6520280  83.6596980  66.7246050
  30.9075550  81.2541120  68.3377110  31.0271760  80.6582260  69.0771950
  31.7669550  81.2910810  67.9178410  33.2463450  81.8078310  66.9139620
  32.7198670  82.3320930  66.3104760  33.5894790  82.4405700  67.5449350
  25.6449840  79.1971680  53.3589330  25.4438900  78.3339040  53.7202670
  25.4741890  79.1105040  52.4210930  27.6744320  77.7962470  69.5952930
  28.2644010  77.4878320  70.2830750  26.8564560  77.3242220  69.7512830
  32.4937750  77.4128280  69.8285950  31.8053270  76.7509820  69.7635940
  33.2143770  76.9666550  70.2734410  33.1238150  74.0079910  55.8876210
  33.4040440  73.1647810  56.2435630  32.3503880  74.2403020  56.4014960
  24.4432640  76.2972300  53.3467210  24.7458540  76.3039730  52.4386360
  25.1827230  75.9470160  53.8434870  27.6617570  75.2406920  54.3323410
  27.3139570  74.5630910  53.7525860  27.8630340  74.7796430  55.1466800
  23.4662770  85.6014720  54.1797010  23.9037640  86.1444390  54.8354590
  23.9510500  84.7761670  54.1893350  25.2770490  86.7212760  59.2919240
  24.9766030  86.5977730  60.1923150  25.1707980  85.8621350  58.8834970
  37.5018870  83.2456640  56.4980120  38.2637780  83.8153290  56.6039810
  37.5173240  82.6783840  57.2688430  21.0023210  81.7694570  60.7287780
  20.3472050  81.5006210  60.0847480  21.8401160  81.6599050  60.2789760
  38.5078840  84.1006740  61.3422050  38.8787670  83.3174060  60.9358020
  39.1480770  84.7895840  61.1639350  35.4912600  85.4843320  66.7552370
  34.6772440  85.9140480  67.0178160  35.8986800  86.0961730  66.1421420
  37.5538040  83.5391010  53.6552640  37.8286880  84.4469890  53.5271860
  37.3648780  83.4753540  54.5914630  33.9513650  76.5635860  54.9506270
  34.3698530  76.3766840  54.1102930  33.6449710  75.7114910  55.2609200
  37.4503380  81.4760000  58.6482070  37.0746980  80.7087930  58.2163360
  36.7206500  81.8582700  59.1357000  22.0399140  82.1547140  65.2691120
  22.4072180  82.0674540  66.1487140  21.4709960  81.3913690  65.1697980
  36.8403000  80.6231520  68.2821590  36.6089090  80.3944270  67.3819540
  37.1007550  81.5431070  68.2366480  21.5915140  79.0656230  69.1749540
  20.6971190  79.0322990  69.5143250  22.1312690  79.2643020  69.9400790
  35.2791070  75.8487950  71.0601290  36.1561250  75.8571350  71.4435290
  35.2911910  75.1118790  70.4493640  20.2161290  78.9793500  56.6713110
  19.3125370  79.2423700  56.4964770  20.7001910  79.2504670  55.8913070
  36.7254340  79.7017490  61.9489310  37.2491820  79.2080140  61.3179480
  37.3113760  79.8367850  62.6936880  36.9044060  79.7857360  65.4708860
  35.9546770  79.7520900  65.5853850  37.0857070  80.6957470  65.2358630
  22.7588500  78.0359040  54.5807490  23.4680200  77.6142260  54.0954770
  22.0428440  78.1034270  53.9490840  22.4062660  74.0898370  53.6210140
  23.1290790  74.6307310  53.9391360  22.6787180  73.8161790  52.7451680
  36.2154310  78.9590840  57.8881720  36.7113430  78.7261710  58.6730600
  36.0170380  78.1202680  57.4719360  22.0954850  73.3404560  63.5232760
  22.7431040  72.7901940  63.0827920  22.5156690  73.5947710  64.3448570
  37.6441470  77.5951790  60.4219400  37.5340750  77.4407830  61.3601670
  38.4049060  77.0672730  60.1794810  35.9907190  73.5345920  66.8802400
  36.6279410  74.1480060  67.2461590  36.1382080  73.5706580  65.9351630
  38.5331740  75.4259710  53.6625540  39.4581050  75.2940890  53.4543830
  38.5107530  75.5052530  54.6161990  38.6070230  76.1970370  56.2882250
  37.8121730  76.1315490  56.8175160  38.8113510  77.1321010  56.2767600
  21.8486850  73.4960230  66.2658080  21.5001670  73.9524050  67.0316260
  21.5174550  72.6017360  66.3480510  29.3611670  74.6872110  69.7877500
  29.3000560  75.2793940  70.5372910  30.3012050  74.5798070  69.6427760
  31.9986230  74.3442170  69.4269790  32.6126640  74.6621460  68.7650870
  32.5435790  73.8590760  70.0465650  22.5207490  73.0236430  69.5408850
  23.0690480  72.8424480  68.7774960  22.5862800  72.2330540  70.0765160
  32.7394270  72.9074310  65.7539080  31.8654110  73.2409420  65.5512010
  32.6305020  72.4347490  66.5790950  33.6466250  75.1145180  67.1380800
  33.3179610  74.2996940  66.7582530  34.5948550  75.0714990  67.0146490
  30.4869090  73.8244150  64.6931990  29.7040880  74.2989650  64.9728750
  30.1932020  72.9198980  64.5845170  35.0390160  74.5267250  62.7381080
  35.4798250  74.4712350  61.8902680  34.7697750  75.4425260  62.8091260
  36.9028730  74.1582490  60.7489900  36.8417130  73.2143710  60.6020920
  37.6820760  74.2662580  61.2943360  21.8309500  74.1291630  57.2145710
  22.5888860  74.2420510  56.6409740  21.3686670  74.9660830  57.1689140
  28.3723310  76.2430900  60.2048020  27.5597820  75.8687790  59.8643900
  28.8764950  75.4875980  60.5069210  32.8748290  72.9073350  61.4431090
  33.4777660  73.4793560  61.9179610  32.1341280  73.4712790  61.2204990
  36.0182890  73.3094910  56.7171370  36.2133520  74.2078360  56.9838800
  35.2312760  73.0781990  57.2104320  24.2034650  74.6555680  55.7547680
  24.7327410  73.8685480  55.6255630  24.8362970  75.3346870  55.9883210
  26.3972490  74.3930820  58.8093070  25.7675230  73.6918130  58.9763200
  25.8577630  75.1534950  58.5926230  26.5228050  73.6714800  71.2445560
  26.2412320  74.1748400  70.4806380  26.9047750  72.8736550  70.8787690
  33.1243510  73.0868380  71.8226030  33.0108960  73.4062990  72.7177550
  33.9413250  73.4880890  71.5263310  32.0301660  81.1060850  42.1860770
  31.9495710  80.1915460  41.9152480  31.6166080  81.6027920  41.4800480
  30.1619700  82.8839870  44.0670040  29.3861800  82.4040310  44.3568610
  30.8132630  82.2045520  43.8926200  24.1785530  83.1959680  44.9445800
  23.3470410  82.9408390  45.3442310  24.7866510  83.2670450  45.6803720
  22.5877480  78.1561570  38.7288190  21.6994180  78.4977540  38.6268070
  22.8718670  77.9561890  37.8369020  20.5510490  80.7567220  44.6127890
  21.1226600  79.9889420  44.6131530  20.5512030  81.0555980  43.7034500
  29.6028690  85.5597060  44.0740200  29.5336970  84.6187000  43.9129330
  30.3648550  85.6498470  44.6462770  21.7935360  76.1651580  46.3996820
  21.6138200  75.2677330  46.6799580  21.3915440  76.7123450  47.0743770
  30.6333860  78.3667440  44.3009130  31.0098680  77.4939320  44.1882800
  30.5353370  78.7026140  43.4099570  24.7638870  76.7393070  39.7626570
  24.8705620  77.6396800  40.0695330  23.8531230  76.6911040  39.4721220
  34.4157980  75.8617880  41.2337470  35.2367600  75.3714450  41.2762950
  34.4492060  76.4515540  41.9869310  22.4122030  78.6612080  45.0079160
  23.0932140  78.9250450  45.6266560  22.0970080  77.8212950  45.3417170
  26.6046600  79.7079440  44.0951750  27.1124820  80.2060410  44.7356770
  27.1359840  78.9314640  43.9191110  38.7057530  77.8784630  47.7981100
  38.0009700  78.2666340  47.2796210  38.9715450  78.5734920  48.4002030
  24.8882700  74.3478000  48.3615170  24.8901140  74.8650390  47.5561070
  24.0587010  73.8708180  48.3385100  31.2753790  84.4597310  39.8605070
  30.6571060  84.9246760  39.2967790  31.7877040  85.1524790  40.2774580
  26.1385550  83.9873180  46.5388670  25.8054930  84.6142100  47.1809740
  26.3152230  84.5135060  45.7590340  34.6519460  77.8018260  44.0065010
  33.9475030  78.0903150  44.5868120  35.0131620  78.6118370  43.6464570
  24.5698030  76.0587960  46.3685620  24.9114840  76.9030010  46.0739490
  23.6313840  76.2071700  46.4850960  25.3504650  85.9553980  48.3537850
  25.9678650  86.6305060  48.0722300  24.4897770  86.3641960  48.2625350
  20.6436990  85.1453840  37.2344700  20.2664970  85.6340940  36.5029600
  20.9010060  85.8179120  37.8651230  37.7206380  77.2473050  44.3974220
  36.7731290  77.2812030  44.5289650  38.0456370  78.0612000  44.7823580
  28.2525920  73.5470230  42.6930210  28.5600900  72.9917120  41.9765710
  27.3226620  73.6814690  42.5103200  35.0986400  85.9853740  40.0727840
  34.9882730  85.0428070  40.1977260  35.0954650  86.3469380  40.9590600
  33.2026420  84.1667360  46.3120280  33.6195210  83.9527470  45.4773740
  33.9266240  84.4240150  46.8828900  30.6406680  81.6119060  39.4290330
  29.7135960  81.5456440  39.6578800  30.7931500  82.5499190  39.3145570
  30.6275760  77.8836060  36.4257490  29.6879430  78.0450020  36.5109950
  30.9459020  78.6021740  35.8793480  37.1488520  82.5654580  46.4036520
  36.3207150  82.6347670  45.9286650  37.7439000  83.1508890  45.9352350
  34.6703970  83.1739360  39.9325580  34.0516390  82.8358910  39.2851880
  34.6528420  82.5299120  40.6404770  34.1130530  79.3523900  47.3491390
  33.7001710  80.1777610  47.6031380  33.3806480  78.7668940  47.1567750
  26.2463320  82.1383800  42.2110060  25.8420320  81.4261050  41.7155960
  26.3326440  81.7937040  43.0998100  26.7145020  85.8251360  44.3749270
  26.4173310  85.2196830  43.6957050  27.6644840  85.8628670  44.2638630
  24.9591940  78.9127010  45.9909100  25.5106530  79.0222350  45.2162350
  25.4735450  79.2864610  46.7064330  25.8063450  85.5633050  51.0257070
  24.9091980  85.7873020  51.2730470  25.8316320  85.6867990  50.0768470
  32.8468670  82.4126170  36.9398330  33.2861950  81.5748600  36.7936150
  33.5597090  83.0455570  37.0262470  24.6334670  82.4346370  49.6014440
  24.4942440  83.3069170  49.9701840  23.7516030  82.0919180  49.4562380
  36.4285810  73.6668980  35.2539370  36.1158470  73.7595810  36.1538440
  37.1898280  74.2450010  35.2036800  22.9467950  81.0328780  39.7116710
  22.8265550  81.7590870  39.0997980  22.6368840  80.2631690  39.2344620
  20.5853320  84.2043920  45.5185350  20.6633740  84.3392690  44.5741070
  21.1995000  83.4959810  45.7113470  21.8300950  85.9044110  41.9291530
  21.4229030  86.0458700  41.0745130  22.7213960  85.6204270  41.7262740
  37.7863090  86.3508020  50.2663770  37.9126150  86.1119900  49.3480950
  37.8284470  85.5192560  50.7385850  37.6387100  78.4040480  51.2313510
  37.0231370  78.9120150  50.7028970  37.3183520  77.5038810  51.1739450
  20.6412840  85.2458090  48.0579810  20.8043880  84.7763450  47.2399180
  21.1065290  84.7381650  48.7228650  25.4131610  74.3763850  43.0940380
  24.9699760  75.1573390  42.7624900  25.9716600  74.6993740  43.8011320
  29.7001420  77.2432370  48.6975700  29.2380790  77.4515390  49.5095640
  29.2979530  76.4291720  48.3946370  34.7005930  78.4641320  49.8272360
  33.8499520  78.1647070  50.1481430  34.5407720  78.7083330  48.9156180
  31.7955640  79.9643070  51.9271150  32.1209050  79.1306820  51.5873380
  32.5835970  80.4871590  52.0749480  28.5290430  73.9974550  37.9746210
  27.9044610  73.9934420  38.6999520  28.4420550  73.1305510  37.5782180
  27.4507510  74.9211180  44.9529980  27.7479840  75.8274010  44.8722000
  27.9993070  74.4329960  44.3389550  25.2045830  79.4997420  40.8221630
  24.9786750  79.2834590  41.7268250  24.4238360  79.9325880  40.4767600
  32.4343590  79.5060790  39.4212280  31.8352480  80.2296590  39.2375900
  32.9823200  79.4437570  38.6388730  27.6445040  80.3983000  51.4881900
  27.5488640  79.4577730  51.3382300  28.4877020  80.6198070  51.0929970
  31.0408460  78.1424330  41.4515560  31.4338030  78.4596530  40.6384250
  31.4025310  77.2636210  41.5660080  22.7755580  76.8096670  49.6415680
  22.3818970  77.6571880  49.8488460  22.0873980  76.1723040  49.8324320
  29.3500630  76.8931640  52.7112420  28.6598950  76.7003840  53.3458510
  30.0932930  77.1766280  53.2436720  20.0772630  74.7325130  43.6745760
  19.7885680  75.3027990  44.3870740  20.8218390  74.2529580  44.0376990
  20.2642860  78.6745250  34.8848480  20.1817530  79.6176010  35.0263470
  19.9125920  78.5320160  34.0060830  31.6263600  80.7330080  45.5466340
  30.8944720  81.2416890  45.8956440  31.2287940  79.9160060  45.2455120
  28.0640990  77.4084280  43.9518830  28.0677050  76.9674230  43.1023370
  28.9592110  77.7301610  44.0590650  23.9143370  77.2910770  42.9113040
  23.5743420  77.7686000  43.6680090  23.1520690  76.8375890  42.5514140
  28.1261140  78.4096360  36.9425590  28.2473960  78.3682840  37.8911410
  27.7409650  79.2720510  36.7872320  32.0889510  76.1863760  44.9589280
  32.1062250  76.6372410  45.8031130  31.8405090  75.2869400  45.1722720
  27.1382640  80.7197500  36.3408890  26.5699540  80.2715750  35.7144800
  27.8471640  81.0790280  35.8074040  35.5160260  73.5995940  50.7975660
  35.8406030  72.8685600  51.3233640  35.5516770  73.2809580  49.8956650
  22.2151820  84.6209520  50.2175620  21.8306610  83.9803190  50.8158580
  22.5264010  85.3245640  50.7870350  28.3648960  81.4686060  45.6984240
  28.7319090  80.9944630  46.4445580  28.1754020  82.3427630  46.0392580
  21.2289450  76.2129750  41.8277710  20.9436370  75.8485420  42.6656330
  21.1668310  75.4810210  41.2140850  26.1548330  80.5094700  48.0168450
  25.8505400  81.3886680  48.2418810  27.1094790  80.5694490  48.0525890
  24.6830120  84.7155690  38.6135300  23.9092380  84.1753310  38.4534020
  25.4124750  84.1962300  38.2753060  35.4418100  83.7121050  44.4061690
  36.1617220  84.2076340  44.0157800  35.2399920  83.0338940  43.7615560
  30.9028040  75.1059010  38.5491080  30.0892650  74.6072180  38.4736390
  30.7089990  75.9457260  38.1327430  30.8236900  83.7830110  50.2930690
  30.7574210  82.8625780  50.0388280  30.1942040  83.8805550  51.0075330
  33.6176430  79.4778660  36.8453240  34.5056050  79.7895890  36.6704580
  33.5881520  78.6050910  36.4533820  24.7267520  84.3836070  42.2514110
  25.2446190  83.5804330  42.1971000  24.2751540  84.3215210  43.0930940
  29.6137020  85.6502350  37.5241410  29.9552720  86.3944580  37.0284730
  28.7849730  85.9633470  37.8866240  22.2112060  81.3497440  49.1639810
  21.8527000  82.0151290  49.7513150  21.9166620  80.5180990  49.5352430
  25.4125180  81.8081680  52.0479360  25.1125320  81.9538860  51.1507180
  26.1836420  81.2486970  51.9552750  30.7553630  86.6050680  50.0434490
  30.7698170  85.6731640  49.8253400  30.0478730  86.6910440  50.6824260
  35.8890700  80.7890500  36.3133100  35.8054420  81.2204720  35.4629540
  36.6084890  81.2488850  36.7459920  36.9664840  83.2458020  49.3903070
  36.2413030  83.8386800  49.1932460  37.4940300  83.2381560  48.5916440
  32.4964430  84.9718190  42.8886920  32.8488250  84.3746320  42.2288290
  31.6126760  84.6462420  43.0595170  28.5827710  85.7315880  40.2957330
  29.2698840  86.2785090  40.6764920  27.7960130  86.2756610  40.3306940
  20.7220110  81.3488700  35.7874410  21.5914960  81.6313500  36.0710330
  20.2310430  82.1624570  35.6723220  27.8854920  82.7361910  39.9082690
  28.3417700  83.5467160  40.1342880  27.5343130  82.4185050  40.7401180
  23.7866700  73.0799560  40.3805210  23.6581330  73.0717460  41.3290130
  22.9628720  73.4182650  40.0296220  31.4619610  86.2500600  45.8552440
  32.1041840  85.5493760  45.9684610  31.9868960  87.0299040  45.6749330
  35.3075330  86.5349220  35.5791580  35.0812910  85.8179660  36.1716220
  34.9171530  86.2861660  34.7413330  20.7860630  74.8390680  49.8411910
  20.0719150  75.0387600  50.4464520  21.2055670  74.0630250  50.2126710
  34.8891580  84.4521160  37.2405740  34.6013280  84.9133850  38.0283620
  35.6843750  83.9918930  37.5089960  22.7066620  83.1662170  37.9156470
  22.0994570  83.9061070  37.9251770  23.1815970  83.2561530  37.0894670
  32.2799410  77.3312990  47.5913360  32.6480230  76.5108200  47.9192930
  31.4197610  77.3914880  48.0069010  35.6461440  76.2869930  38.4000920
  35.0174600  76.3915600  37.6859150  35.1513360  76.5066710  39.1894800
  27.6145470  78.5655880  39.8158800  26.9061620  79.0342220  40.2572410
  27.8989950  77.9077890  40.4503990  29.2401400  79.9852580  47.8151330
  29.7386650  80.4598400  48.4803180  29.3824350  79.0616100  48.0221360
  31.6460900  75.2906540  41.2554590  31.5228680  75.3092670  40.3064100
  32.5945460  75.3385480  41.3752990  25.8180490  76.8740960  37.1909510
  26.6671020  77.3111110  37.1249700  25.4511760  77.1861220  38.0181570
  36.4468260  76.2020540  48.6579720  35.9441860  76.9425940  48.9973530
  37.2624920  76.5904540  48.3416510  34.7390270  81.4453720  42.1041080
  33.7980410  81.4603950  42.2788770  35.0534340  80.6589680  42.5501380
  24.7171910  83.1273320  35.6645040  25.4835180  83.0154680  36.2270470
  24.7946600  82.4311290  35.0121810  23.4118670  80.5598390  36.3477930
  23.4922260  79.6125900  36.4595330  24.3038420  80.8905270  36.4538590
  32.0556290  86.0019720  52.5873460  31.4494450  86.0251320  51.8469210
  31.7510400  85.2702760  53.1240710  20.9389470  82.3813310  51.5834100
  21.4428490  81.8020590  52.1550330  20.1996890  82.6653540  52.1210470
  27.8413090  85.1027500  35.1380390  27.7363730  84.4879850  35.8641770
  27.6737310  84.5793390  34.3543400  27.9927410  83.7884300  51.1169620
  27.2273080  84.3569300  51.0324290  28.1743370  83.4960510  50.2237850
  31.0815820  84.1647530  35.7422380  30.5325920  84.6116830  36.3865120
  31.7035080  83.6596780  36.2660050  35.1350760  85.5189630  51.6744640
  35.8760230  85.8565390  51.1712100  34.3723440  85.6881690  51.1214410
  22.9712550  80.5242900  52.4784170  23.0117890  80.2256770  53.3869400
  23.8258050  80.9250510  52.3191690  26.7490940  83.1238450  37.6387680
  27.1707360  82.9578320  38.4819070  26.8741780  82.3138680  37.1442820
  24.9118360  79.1035000  50.4458660  24.3814820  78.6125950  49.8182000
  25.5806430  79.5319200  49.9116590  29.2618580  82.1476060  34.8864780
  29.7824240  81.4325080  34.5205930  29.9086980  82.7861930  35.1865290
  33.8096420  83.5704460  50.2099850  34.2237440  83.7249540  51.0590270
  32.8747420  83.6959680  50.3725630  34.2818590  80.9100620  52.2139000
  34.8639360  80.1552940  52.1259480  34.4580360  81.4408060  51.4370480
  25.3990660  76.0697370  50.5255950  25.3047530  75.4518120  49.8006820
  24.8188050  76.7963660  50.2985860  28.1652100  74.6270610  47.5583340
  27.7169400  74.6494870  46.7128890  27.5317300  74.2289630  48.1553640
  28.5711650  83.5224940  48.1795780  28.9899760  84.3657670  48.0072020
  27.6520280  83.6596980  47.9502560  30.9075550  81.2541120  49.5633620
  31.0271760  80.6582260  50.3028460  31.7669550  81.2910810  49.1434920
  33.2463450  81.8078310  48.1396130  32.7198670  82.3320930  47.5361270
  33.5894790  82.4405700  48.7705860  25.6449840  79.1971680  34.5845840
  25.4438900  78.3339040  34.9459180  25.4741890  79.1105040  33.6467440
  27.6744320  77.7962470  50.8209440  28.2644010  77.4878320  51.5087260
  26.8564560  77.3242220  50.9769340  32.4937750  77.4128280  51.0542460
  31.8053270  76.7509820  50.9892450  33.2143770  76.9666550  51.4990920
  33.1238150  74.0079910  37.1132720  33.4040440  73.1647810  37.4692140
  32.3503880  74.2403020  37.6271470  24.4432640  76.2972300  34.5723720
  24.7458540  76.3039730  33.6642870  25.1827230  75.9470160  35.0691380
  27.6617570  75.2406920  35.5579920  27.3139570  74.5630910  34.9782370
  27.8630340  74.7796430  36.3723310  23.4662770  85.6014720  35.4053520
  23.9037640  86.1444390  36.0611100  23.9510500  84.7761670  35.4149860
  25.2770490  86.7212760  40.5175750  24.9766030  86.5977730  41.4179660
  25.1707980  85.8621350  40.1091480  37.5018870  83.2456640  37.7236630
  38.2637780  83.8153290  37.8296320  37.5173240  82.6783840  38.4944940
  21.0023210  81.7694570  41.9544290  20.3472050  81.5006210  41.3103990
  21.8401160  81.6599050  41.5046270  38.5078840  84.1006740  42.5678560
  38.8787670  83.3174060  42.1614530  39.1480770  84.7895840  42.3895860
  35.4912600  85.4843320  47.9808880  34.6772440  85.9140480  48.2434670
  35.8986800  86.0961730  47.3677930  37.5538040  83.5391010  34.8809150
  37.8286880  84.4469890  34.7528370  37.3648780  83.4753540  35.8171140
  33.9513650  76.5635860  36.1762780  34.3698530  76.3766840  35.3359440
  33.6449710  75.7114910  36.4865710  37.4503380  81.4760000  39.8738580
  37.0746980  80.7087930  39.4419870  36.7206500  81.8582700  40.3613510
  22.0399140  82.1547140  46.4947630  22.4072180  82.0674540  47.3743650
  21.4709960  81.3913690  46.3954490  36.8403000  80.6231520  49.5078100
  36.6089090  80.3944270  48.6076050  37.1007550  81.5431070  49.4622990
  21.5915140  79.0656230  50.4006050  20.6971190  79.0322990  50.7399760
  22.1312690  79.2643020  51.1657300  35.2791070  75.8487950  52.2857800
  36.1561250  75.8571350  52.6691800  35.2911910  75.1118790  51.6750150
  20.2161290  78.9793500  37.8969620  19.3125370  79.2423700  37.7221280
  20.7001910  79.2504670  37.1169580  36.7254340  79.7017490  43.1745820
  37.2491820  79.2080140  42.5435990  37.3113760  79.8367850  43.9193390
  36.9044060  79.7857360  46.6965370  35.9546770  79.7520900  46.8110360
  37.0857070  80.6957470  46.4615140  22.7588500  78.0359040  35.8064000
  23.4680200  77.6142260  35.3211280  22.0428440  78.1034270  35.1747350
  22.4062660  74.0898370  34.8466650  23.1290790  74.6307310  35.1647870
  22.6787180  73.8161790  33.9708190  36.2154310  78.9590840  39.1138230
  36.7113430  78.7261710  39.8987110  36.0170380  78.1202680  38.6975870
  22.0954850  73.3404560  44.7489270  22.7431040  72.7901940  44.3084430
  22.5156690  73.5947710  45.5705080  37.6441470  77.5951790  41.6475910
  37.5340750  77.4407830  42.5858180  38.4049060  77.0672730  41.4051320
  35.9907190  73.5345920  48.1058910  36.6279410  74.1480060  48.4718100
  36.1382080  73.5706580  47.1608140  38.5331740  75.4259710  34.8882050
  39.4581050  75.2940890  34.6800340  38.5107530  75.5052530  35.8418500
  38.6070230  76.1970370  37.5138760  37.8121730  76.1315490  38.0431670
  38.8113510  77.1321010  37.5024110  21.8486850  73.4960230  47.4914590
  21.5001670  73.9524050  48.2572770  21.5174550  72.6017360  47.5737020
  29.3611670  74.6872110  51.0134010  29.3000560  75.2793940  51.7629420
  30.3012050  74.5798070  50.8684270  31.9986230  74.3442170  50.6526300
  32.6126640  74.6621460  49.9907380  32.5435790  73.8590760  51.2722160
  22.5207490  73.0236430  50.7665360  23.0690480  72.8424480  50.0031470
  22.5862800  72.2330540  51.3021670  32.7394270  72.9074310  46.9795590
  31.8654110  73.2409420  46.7768520  32.6305020  72.4347490  47.8047460
  33.6466250  75.1145180  48.3637310  33.3179610  74.2996940  47.9839040
  34.5948550  75.0714990  48.2403000  30.4869090  73.8244150  45.9188500
  29.7040880  74.2989650  46.1985260  30.1932020  72.9198980  45.8101680
  35.0390160  74.5267250  43.9637590  35.4798250  74.4712350  43.1159190
  34.7697750  75.4425260  44.0347770  36.9028730  74.1582490  41.9746410
  36.8417130  73.2143710  41.8277430  37.6820760  74.2662580  42.5199870
  21.8309500  74.1291630  38.4402220  22.5888860  74.2420510  37.8666250
  21.3686670  74.9660830  38.3945650  28.3723310  76.2430900  41.4304530
  27.5597820  75.8687790  41.0900410  28.8764950  75.4875980  41.7325720
  32.8748290  72.9073350  42.6687600  33.4777660  73.4793560  43.1436120
  32.1341280  73.4712790  42.4461500  36.0182890  73.3094910  37.9427880
  36.2133520  74.2078360  38.2095310  35.2312760  73.0781990  38.4360830
  24.2034650  74.6555680  36.9804190  24.7327410  73.8685480  36.8512140
  24.8362970  75.3346870  37.2139720  26.3972490  74.3930820  40.0349580
  25.7675230  73.6918130  40.2019710  25.8577630  75.1534950  39.8182740
  26.5228050  73.6714800  52.4702070  26.2412320  74.1748400  51.7062890
  26.9047750  72.8736550  52.1044200  33.1243510  73.0868380  53.0482540
  33.0108960  73.4062990  53.9434060  33.9413250  73.4880890  52.7519820
  32.0301660  81.1060850  23.4117280  31.9495710  80.1915460  23.1408990
  31.6166080  81.6027920  22.7056990  30.1619700  82.8839870  25.2926550
  29.3861800  82.4040310  25.5825120  30.8132630  82.2045520  25.1182710
  24.1785530  83.1959680  26.1702310  23.3470410  82.9408390  26.5698820
  24.7866510  83.2670450  26.9060230  22.5877480  78.1561570  19.9544700
  21.6994180  78.4977540  19.8524580  22.8718670  77.9561890  19.0625530
  20.5510490  80.7567220  25.8384400  21.1226600  79.9889420  25.8388040
  20.5512030  81.0555980  24.9291010  29.6028690  85.5597060  25.2996710
  29.5336970  84.6187000  25.1385840  30.3648550  85.6498470  25.8719280
  21.7935360  76.1651580  27.6253330  21.6138200  75.2677330  27.9056090
  21.3915440  76.7123450  28.3000280  30.6333860  78.3667440  25.5265640
  31.0098680  77.4939320  25.4139310  30.5353370  78.7026140  24.6356080
  24.7638870  76.7393070  20.9883080  24.8705620  77.6396800  21.2951840
  23.8531230  76.6911040  20.6977730  34.4157980  75.8617880  22.4593980
  35.2367600  75.3714450  22.5019460  34.4492060  76.4515540  23.2125820
  22.4122030  78.6612080  26.2335670  23.0932140  78.9250450  26.8523070
  22.0970080  77.8212950  26.5673680  26.6046600  79.7079440  25.3208260
  27.1124820  80.2060410  25.9613280  27.1359840  78.9314640  25.1447620
  38.7057530  77.8784630  29.0237610  38.0009700  78.2666340  28.5052720
  38.9715450  78.5734920  29.6258540  24.8882700  74.3478000  29.5871680
  24.8901140  74.8650390  28.7817580  24.0587010  73.8708180  29.5641610
  31.2753790  84.4597310  21.0861580  30.6571060  84.9246760  20.5224300
  31.7877040  85.1524790  21.5031090  26.1385550  83.9873180  27.7645180
  25.8054930  84.6142100  28.4066250  26.3152230  84.5135060  26.9846850
  34.6519460  77.8018260  25.2321520  33.9475030  78.0903150  25.8124630
  35.0131620  78.6118370  24.8721080  24.5698030  76.0587960  27.5942130
  24.9114840  76.9030010  27.2996000  23.6313840  76.2071700  27.7107470
  25.3504650  85.9553980  29.5794360  25.9678650  86.6305060  29.2978810
  24.4897770  86.3641960  29.4881860  20.6436990  85.1453840  18.4601210
  20.2664970  85.6340940  17.7286110  20.9010060  85.8179120  19.0907740
  37.7206380  77.2473050  25.6230730  36.7731290  77.2812030  25.7546160
  38.0456370  78.0612000  26.0080090  28.2525920  73.5470230  23.9186720
  28.5600900  72.9917120  23.2022220  27.3226620  73.6814690  23.7359710
  35.0986400  85.9853740  21.2984350  34.9882730  85.0428070  21.4233770
  35.0954650  86.3469380  22.1847110  33.2026420  84.1667360  27.5376790
  33.6195210  83.9527470  26.7030250  33.9266240  84.4240150  28.1085410
  30.6406680  81.6119060  20.6546840  29.7135960  81.5456440  20.8835310
  30.7931500  82.5499190  20.5402080  30.6275760  77.8836060  17.6514000
  29.6879430  78.0450020  17.7366460  30.9459020  78.6021740  17.1049990
  37.1488520  82.5654580  27.6293030  36.3207150  82.6347670  27.1543160
  37.7439000  83.1508890  27.1608860  34.6703970  83.1739360  21.1582090
  34.0516390  82.8358910  20.5108390  34.6528420  82.5299120  21.8661280
  34.1130530  79.3523900  28.5747900  33.7001710  80.1777610  28.8287890
  33.3806480  78.7668940  28.3824260  26.2463320  82.1383800  23.4366570
  25.8420320  81.4261050  22.9412470  26.3326440  81.7937040  24.3254610
  26.7145020  85.8251360  25.6005780  26.4173310  85.2196830  24.9213560
  27.6644840  85.8628670  25.4895140  24.9591940  78.9127010  27.2165610
  25.5106530  79.0222350  26.4418860  25.4735450  79.2864610  27.9320840
  25.8063450  85.5633050  32.2513580  24.9091980  85.7873020  32.4986980
  25.8316320  85.6867990  31.3024980  32.8468670  82.4126170  18.1654840
  33.2861950  81.5748600  18.0192660  33.5597090  83.0455570  18.2518980
  24.6334670  82.4346370  30.8270950  24.4942440  83.3069170  31.1958350
  23.7516030  82.0919180  30.6818890  36.4285810  73.6668980  16.4795880
  36.1158470  73.7595810  17.3794950  37.1898280  74.2450010  16.4293310
  22.9467950  81.0328780  20.9373220  22.8265550  81.7590870  20.3254490
  22.6368840  80.2631690  20.4601130  20.5853320  84.2043920  26.7441860
  20.6633740  84.3392690  25.7997580  21.1995000  83.4959810  26.9369980
  21.8300950  85.9044110  23.1548040  21.4229030  86.0458700  22.3001640
  22.7213960  85.6204270  22.9519250  37.7863090  86.3508020  31.4920280
  37.9126150  86.1119900  30.5737460  37.8284470  85.5192560  31.9642360
  37.6387100  78.4040480  32.4570020  37.0231370  78.9120150  31.9285480
  37.3183520  77.5038810  32.3995960  20.6412840  85.2458090  29.2836320
  20.8043880  84.7763450  28.4655690  21.1065290  84.7381650  29.9485160
  25.4131610  74.3763850  24.3196890  24.9699760  75.1573390  23.9881410
  25.9716600  74.6993740  25.0267830  29.7001420  77.2432370  29.9232210
  29.2380790  77.4515390  30.7352150  29.2979530  76.4291720  29.6202880
  34.7005930  78.4641320  31.0528870  33.8499520  78.1647070  31.3737940
  34.5407720  78.7083330  30.1412690  31.7955640  79.9643070  33.1527660
  32.1209050  79.1306820  32.8129890  32.5835970  80.4871590  33.3005990
  28.5290430  73.9974550  19.2002720  27.9044610  73.9934420  19.9256030
  28.4420550  73.1305510  18.8038690  27.4507510  74.9211180  26.1786490
  27.7479840  75.8274010  26.0978510  27.9993070  74.4329960  25.5646060
  25.2045830  79.4997420  22.0478140  24.9786750  79.2834590  22.9524760
  24.4238360  79.9325880  21.7024110  32.4343590  79.5060790  20.6468790
  31.8352480  80.2296590  20.4632410  32.9823200  79.4437570  19.8645240
  27.6445040  80.3983000  32.7138410  27.5488640  79.4577730  32.5638810
  28.4877020  80.6198070  32.3186480  31.0408460  78.1424330  22.6772070
  31.4338030  78.4596530  21.8640760  31.4025310  77.2636210  22.7916590
  22.7755580  76.8096670  30.8672190  22.3818970  77.6571880  31.0744970
  22.0873980  76.1723040  31.0580830  29.3500630  76.8931640  33.9368930
  28.6598950  76.7003840  34.5715020  30.0932930  77.1766280  34.4693230
  20.0772630  74.7325130  24.9002270  19.7885680  75.3027990  25.6127250
  20.8218390  74.2529580  25.2633500  20.2642860  78.6745250  16.1104990
  20.1817530  79.6176010  16.2519980  19.9125920  78.5320160  15.2317340
  31.6263600  80.7330080  26.7722850  30.8944720  81.2416890  27.1212950
  31.2287940  79.9160060  26.4711630  28.0640990  77.4084280  25.1775340
  28.0677050  76.9674230  24.3279880  28.9592110  77.7301610  25.2847160
  23.9143370  77.2910770  24.1369550  23.5743420  77.7686000  24.8936600
  23.1520690  76.8375890  23.7770650  28.1261140  78.4096360  18.1682100
  28.2473960  78.3682840  19.1167920  27.7409650  79.2720510  18.0128830
  32.0889510  76.1863760  26.1845790  32.1062250  76.6372410  27.0287640
  31.8405090  75.2869400  26.3979230  27.1382640  80.7197500  17.5665400
  26.5699540  80.2715750  16.9401310  27.8471640  81.0790280  17.0330550
  35.5160260  73.5995940  32.0232170  35.8406030  72.8685600  32.5490150
  35.5516770  73.2809580  31.1213160  22.2151820  84.6209520  31.4432130
  21.8306610  83.9803190  32.0415090  22.5264010  85.3245640  32.0126860
  28.3648960  81.4686060  26.9240750  28.7319090  80.9944630  27.6702090
  28.1754020  82.3427630  27.2649090  21.2289450  76.2129750  23.0534220
  20.9436370  75.8485420  23.8912840  21.1668310  75.4810210  22.4397360
  26.1548330  80.5094700  29.2424960  25.8505400  81.3886680  29.4675320
  27.1094790  80.5694490  29.2782400  24.6830120  84.7155690  19.8391810
  23.9092380  84.1753310  19.6790530  25.4124750  84.1962300  19.5009570
  35.4418100  83.7121050  25.6318200  36.1617220  84.2076340  25.2414310
  35.2399920  83.0338940  24.9872070  30.9028040  75.1059010  19.7747590
  30.0892650  74.6072180  19.6992900  30.7089990  75.9457260  19.3583940
  30.8236900  83.7830110  31.5187200  30.7574210  82.8625780  31.2644790
  30.1942040  83.8805550  32.2331840  33.6176430  79.4778660  18.0709750
  34.5056050  79.7895890  17.8961090  33.5881520  78.6050910  17.6790330
  24.7267520  84.3836070  23.4770620  25.2446190  83.5804330  23.4227510
  24.2751540  84.3215210  24.3187450  29.6137020  85.6502350  18.7497920
  29.9552720  86.3944580  18.2541240  28.7849730  85.9633470  19.1122750
  22.2112060  81.3497440  30.3896320  21.8527000  82.0151290  30.9769660
  21.9166620  80.5180990  30.7608940  25.4125180  81.8081680  33.2735870
  25.1125320  81.9538860  32.3763690  26.1836420  81.2486970  33.1809260
  30.7553630  86.6050680  31.2691000  30.7698170  85.6731640  31.0509910
  30.0478730  86.6910440  31.9080770  35.8890700  80.7890500  17.5389610
  35.8054420  81.2204720  16.6886050  36.6084890  81.2488850  17.9716430
  36.9664840  83.2458020  30.6159580  36.2413030  83.8386800  30.4188970
  37.4940300  83.2381560  29.8172950  32.4964430  84.9718190  24.1143430
  32.8488250  84.3746320  23.4544800  31.6126760  84.6462420  24.2851680
  28.5827710  85.7315880  21.5213840  29.2698840  86.2785090  21.9021430
  27.7960130  86.2756610  21.5563450  20.7220110  81.3488700  17.0130920
  21.5914960  81.6313500  17.2966840  20.2310430  82.1624570  16.8979730
  27.8854920  82.7361910  21.1339200  28.3417700  83.5467160  21.3599390
  27.5343130  82.4185050  21.9657690  23.7866700  73.0799560  21.6061720
  23.6581330  73.0717460  22.5546640  22.9628720  73.4182650  21.2552730
  31.4619610  86.2500600  27.0808950  32.1041840  85.5493760  27.1941120
  31.9868960  87.0299040  26.9005840  35.3075330  86.5349220  16.8048090
  35.0812910  85.8179660  17.3972730  34.9171530  86.2861660  15.9669840
  20.7860630  74.8390680  31.0668420  20.0719150  75.0387600  31.6721030
  21.2055670  74.0630250  31.4383220  34.8891580  84.4521160  18.4662250
  34.6013280  84.9133850  19.2540130  35.6843750  83.9918930  18.7346470
  22.7066620  83.1662170  19.1412980  22.0994570  83.9061070  19.1508280
  23.1815970  83.2561530  18.3151180  32.2799410  77.3312990  28.8169870
  32.6480230  76.5108200  29.1449440  31.4197610  77.3914880  29.2325520
  35.6461440  76.2869930  19.6257430  35.0174600  76.3915600  18.9115660
  35.1513360  76.5066710  20.4151310  27.6145470  78.5655880  21.0415310
  26.9061620  79.0342220  21.4828920  27.8989950  77.9077890  21.6760500
  29.2401400  79.9852580  29.0407840  29.7386650  80.4598400  29.7059690
  29.3824350  79.0616100  29.2477870  31.6460900  75.2906540  22.4811100
  31.5228680  75.3092670  21.5320610  32.5945460  75.3385480  22.6009500
  25.8180490  76.8740960  18.4166020  26.6671020  77.3111110  18.3506210
  25.4511760  77.1861220  19.2438080  36.4468260  76.2020540  29.8836230
  35.9441860  76.9425940  30.2230040  37.2624920  76.5904540  29.5673020
  34.7390270  81.4453720  23.3297590  33.7980410  81.4603950  23.5045280
  35.0534340  80.6589680  23.7757890  24.7171910  83.1273320  16.8901550
  25.4835180  83.0154680  17.4526980  24.7946600  82.4311290  16.2378320
  23.4118670  80.5598390  17.5734440  23.4922260  79.6125900  17.6851840
  24.3038420  80.8905270  17.6795100  32.0556290  86.0019720  33.8129970
  31.4494450  86.0251320  33.0725720  31.7510400  85.2702760  34.3497220
  20.9389470  82.3813310  32.8090610  21.4428490  81.8020590  33.3806840
  20.1996890  82.6653540  33.3466980  27.8413090  85.1027500  16.3636900
  27.7363730  84.4879850  17.0898280  27.6737310  84.5793390  15.5799910
  27.9927410  83.7884300  32.3426130  27.2273080  84.3569300  32.2580800
  28.1743370  83.4960510  31.4494360  31.0815820  84.1647530  16.9678890
  30.5325920  84.6116830  17.6121630  31.7035080  83.6596780  17.4916560
  35.1350760  85.5189630  32.9001150  35.8760230  85.8565390  32.3968610
  34.3723440  85.6881690  32.3470920  22.9712550  80.5242900  33.7040680
  23.0117890  80.2256770  34.6125910  23.8258050  80.9250510  33.5448200
  26.7490940  83.1238450  18.8644190  27.1707360  82.9578320  19.7075580
  26.8741780  82.3138680  18.3699330  24.9118360  79.1035000  31.6715170
  24.3814820  78.6125950  31.0438510  25.5806430  79.5319200  31.1373100
  29.2618580  82.1476060  16.1121290  29.7824240  81.4325080  15.7462440
  29.9086980  82.7861930  16.4121800  33.8096420  83.5704460  31.4356360
  34.2237440  83.7249540  32.2846780  32.8747420  83.6959680  31.5982140
  34.2818590  80.9100620  33.4395510  34.8639360  80.1552940  33.3515990
  34.4580360  81.4408060  32.6626990  25.3990660  76.0697370  31.7512460
  25.3047530  75.4518120  31.0263330  24.8188050  76.7963660  31.5242370
  28.1652100  74.6270610  28.7839850  27.7169400  74.6494870  27.9385400
  27.5317300  74.2289630  29.3810150  28.5711650  83.5224940  29.4052290
  28.9899760  84.3657670  29.2328530  27.6520280  83.6596980  29.1759070
  30.9075550  81.2541120  30.7890130  31.0271760  80.6582260  31.5284970
  31.7669550  81.2910810  30.3691430  33.2463450  81.8078310  29.3652640
  32.7198670  82.3320930  28.7617780  33.5894790  82.4405700  29.9962370
  25.6449840  79.1971680  15.8102350  25.4438900  78.3339040  16.1715690
  25.4741890  79.1105040  14.8723950  27.6744320  77.7962470  32.0465950
  28.2644010  77.4878320  32.7343770  26.8564560  77.3242220  32.2025850
  32.4937750  77.4128280  32.2798970  31.8053270  76.7509820  32.2148960
  33.2143770  76.9666550  32.7247430  33.1238150  74.0079910  18.3389230
  33.4040440  73.1647810  18.6948650  32.3503880  74.2403020  18.8527980
  24.4432640  76.2972300  15.7980230  24.7458540  76.3039730  14.8899380
  25.1827230  75.9470160  16.2947890  27.6617570  75.2406920  16.7836430
  27.3139570  74.5630910  16.2038880  27.8630340  74.7796430  17.5979820
  23.4662770  85.6014720  16.6310030  23.9037640  86.1444390  17.2867610
  23.9510500  84.7761670  16.6406370  25.2770490  86.7212760  21.7432260
  24.9766030  86.5977730  22.6436170  25.1707980  85.8621350  21.3347990
  37.5018870  83.2456640  18.9493140  38.2637780  83.8153290  19.0552830
  37.5173240  82.6783840  19.7201450  21.0023210  81.7694570  23.1800800
  20.3472050  81.5006210  22.5360500  21.8401160  81.6599050  22.7302780
  38.5078840  84.1006740  23.7935070  38.8787670  83.3174060  23.3871040
  39.1480770  84.7895840  23.6152370  35.4912600  85.4843320  29.2065390
  34.6772440  85.9140480  29.4691180  35.8986800  86.0961730  28.5934440
  37.5538040  83.5391010  16.1065660  37.8286880  84.4469890  15.9784880
  37.3648780  83.4753540  17.0427650  33.9513650  76.5635860  17.4019290
  34.3698530  76.3766840  16.5615950  33.6449710  75.7114910  17.7122220
  37.4503380  81.4760000  21.0995090  37.0746980  80.7087930  20.6676380
  36.7206500  81.8582700  21.5870020  22.0399140  82.1547140  27.7204140
  22.4072180  82.0674540  28.6000160  21.4709960  81.3913690  27.6211000
  36.8403000  80.6231520  30.7334610  36.6089090  80.3944270  29.8332560
  37.1007550  81.5431070  30.6879500  21.5915140  79.0656230  31.6262560
  20.6971190  79.0322990  31.9656270  22.1312690  79.2643020  32.3913810
  35.2791070  75.8487950  33.5114310  36.1561250  75.8571350  33.8948310
  35.2911910  75.1118790  32.9006660  20.2161290  78.9793500  19.1226130
  19.3125370  79.2423700  18.9477790  20.7001910  79.2504670  18.3426090
  36.7254340  79.7017490  24.4002330  37.2491820  79.2080140  23.7692500
  37.3113760  79.8367850  25.1449900  36.9044060  79.7857360  27.9221880
  35.9546770  79.7520900  28.0366870  37.0857070  80.6957470  27.6871650
  22.7588500  78.0359040  17.0320510  23.4680200  77.6142260  16.5467790
  22.0428440  78.1034270  16.4003860  22.4062660  74.0898370  16.0723160
  23.1290790  74.6307310  16.3904380  22.6787180  73.8161790  15.1964700
  36.2154310  78.9590840  20.3394740  36.7113430  78.7261710  21.1243620
  36.0170380  78.1202680  19.9232380  22.0954850  73.3404560  25.9745780
  22.7431040  72.7901940  25.5340940  22.5156690  73.5947710  26.7961590
  37.6441470  77.5951790  22.8732420  37.5340750  77.4407830  23.8114690
  38.4049060  77.0672730  22.6307830  35.9907190  73.5345920  29.3315420
  36.6279410  74.1480060  29.6974610  36.1382080  73.5706580  28.3864650
  38.5331740  75.4259710  16.1138560  39.4581050  75.2940890  15.9056850
  38.5107530  75.5052530  17.0675010  38.6070230  76.1970370  18.7395270
  37.8121730  76.1315490  19.2688180  38.8113510  77.1321010  18.7280620
  21.8486850  73.4960230  28.7171100  21.5001670  73.9524050  29.4829280
  21.5174550  72.6017360  28.7993530  29.3611670  74.6872110  32.2390520
  29.3000560  75.2793940  32.9885930  30.3012050  74.5798070  32.0940780
  31.9986230  74.3442170  31.8782810  32.6126640  74.6621460  31.2163890
  32.5435790  73.8590760  32.4978670  22.5207490  73.0236430  31.9921870
  23.0690480  72.8424480  31.2287980  22.5862800  72.2330540  32.5278180
  32.7394270  72.9074310  28.2052100  31.8654110  73.2409420  28.0025030
  32.6305020  72.4347490  29.0303970  33.6466250  75.1145180  29.5893820
  33.3179610  74.2996940  29.2095550  34.5948550  75.0714990  29.4659510
  30.4869090  73.8244150  27.1445010  29.7040880  74.2989650  27.4241770
  30.1932020  72.9198980  27.0358190  35.0390160  74.5267250  25.1894100
  35.4798250  74.4712350  24.3415700  34.7697750  75.4425260  25.2604280
  36.9028730  74.1582490  23.2002920  36.8417130  73.2143710  23.0533940
  37.6820760  74.2662580  23.7456380  21.8309500  74.1291630  19.6658730
  22.5888860  74.2420510  19.0922760  21.3686670  74.9660830  19.6202160
  28.3723310  76.2430900  22.6561040  27.5597820  75.8687790  22.3156920
  28.8764950  75.4875980  22.9582230  32.8748290  72.9073350  23.8944110
  33.4777660  73.4793560  24.3692630  32.1341280  73.4712790  23.6718010
  36.0182890  73.3094910  19.1684390  36.2133520  74.2078360  19.4351820
  35.2312760  73.0781990  19.6617340  24.2034650  74.6555680  18.2060700
  24.7327410  73.8685480  18.0768650  24.8362970  75.3346870  18.4396230
  26.3972490  74.3930820  21.2606090  25.7675230  73.6918130  21.4276220
  25.8577630  75.1534950  21.0439250  26.5228050  73.6714800  33.6958580
  26.2412320  74.1748400  32.9319400  26.9047750  72.8736550  33.3300710
  33.1243510  73.0868380  34.2739050  33.0108960  73.4062990  35.1690570
  33.9413250  73.4880890  33.9776330  32.0301660  81.1060850   4.6373790
  31.9495710  80.1915460   4.3665500  31.6166080  81.6027920   3.9313500
  30.1619700  82.8839870   6.5183060  29.3861800  82.4040310   6.8081630
  30.8132630  82.2045520   6.3439220  24.1785530  83.1959680   7.3958820
  23.3470410  82.9408390   7.7955330  24.7866510  83.2670450   8.1316740
  20.5510490  80.7567220   7.0640910  21.1226600  79.9889420   7.0644550
  20.5512030  81.0555980   6.1547520  29.6028690  85.5597060   6.5253220
  29.5336970  84.6187000   6.3642350  30.3648550  85.6498470   7.0975790
  21.7935360  76.1651580   8.8509840  21.6138200  75.2677330   9.1312600
  21.3915440  76.7123450   9.5256790  30.6333860  78.3667440   6.7522150
  31.0098680  77.4939320   6.6395820  30.5353370  78.7026140   5.8612590
  24.7638870  76.7393070   2.2139590  24.8705620  77.6396800   2.5208350
  23.8531230  76.6911040   1.9234240  34.4157980  75.8617880   3.6850490
  35.2367600  75.3714450   3.7275970  34.4492060  76.4515540   4.4382330
  22.4122030  78.6612080   7.4592180  23.0932140  78.9250450   8.0779580
  22.0970080  77.8212950   7.7930190  26.6046600  79.7079440   6.5464770
  27.1124820  80.2060410   7.1869790  27.1359840  78.9314640   6.3704130
  38.7057530  77.8784630  10.2494120  38.0009700  78.2666340   9.7309230
  38.9715450  78.5734920  10.8515050  24.8882700  74.3478000  10.8128190
  24.8901140  74.8650390  10.0074090  24.0587010  73.8708180  10.7898120
  31.2753790  84.4597310   2.3118090  30.6571060  84.9246760   1.7480810
  31.7877040  85.1524790   2.7287600  26.1385550  83.9873180   8.9901690
  25.8054930  84.6142100   9.6322760  26.3152230  84.5135060   8.2103360
  34.6519460  77.8018260   6.4578030  33.9475030  78.0903150   7.0381140
  35.0131620  78.6118370   6.0977590  24.5698030  76.0587960   8.8198640
  24.9114840  76.9030010   8.5252510  23.6313840  76.2071700   8.9363980
  25.3504650  85.9553980  10.8050870  25.9678650  86.6305060  10.5235320
  24.4897770  86.3641960  10.7138370  37.7206380  77.2473050   6.8487240
  36.7731290  77.2812030   6.9802670  38.0456370  78.0612000   7.2336600
  28.2525920  73.5470230   5.1443230  28.5600900  72.9917120   4.4278730
  27.3226620  73.6814690   4.9616220  35.0986400  85.9853740   2.5240860
  34.9882730  85.0428070   2.6490280  35.0954650  86.3469380   3.4103620
  33.2026420  84.1667360   8.7633300  33.6195210  83.9527470   7.9286760
  33.9266240  84.4240150   9.3341920  30.6406680  81.6119060   1.8803350
  29.7135960  81.5456440   2.1091820  30.7931500  82.5499190   1.7658590
  37.1488520  82.5654580   8.8549540  36.3207150  82.6347670   8.3799670
  37.7439000  83.1508890   8.3865370  34.6703970  83.1739360   2.3838600
  34.0516390  82.8358910   1.7364900  34.6528420  82.5299120   3.0917790
  34.1130530  79.3523900   9.8004410  33.7001710  80.1777610  10.0544400
  33.3806480  78.7668940   9.6080770  26.2463320  82.1383800   4.6623080
  25.8420320  81.4261050   4.1668980  26.3326440  81.7937040   5.5511120
  26.7145020  85.8251360   6.8262290  26.4173310  85.2196830   6.1470070
  27.6644840  85.8628670   6.7151650  24.9591940  78.9127010   8.4422120
  25.5106530  79.0222350   7.6675370  25.4735450  79.2864610   9.1577350
  25.8063450  85.5633050  13.4770090  24.9091980  85.7873020  13.7243490
  25.8316320  85.6867990  12.5281490  24.6334670  82.4346370  12.0527460
  24.4942440  83.3069170  12.4214860  23.7516030  82.0919180  11.9075400
  20.5853320  84.2043920   7.9698370  20.6633740  84.3392690   7.0254090
  21.1995000  83.4959810   8.1626490  21.8300950  85.9044110   4.3804550
  21.4229030  86.0458700   3.5258150  22.7213960  85.6204270   4.1775760
  37.7863090  86.3508020  12.7176790  37.9126150  86.1119900  11.7993970
  37.8284470  85.5192560  13.1898870  37.6387100  78.4040480  13.6826530
  37.0231370  78.9120150  13.1541990  37.3183520  77.5038810  13.6252470
  20.6412840  85.2458090  10.5092830  20.8043880  84.7763450   9.6912200
  21.1065290  84.7381650  11.1741670  25.4131610  74.3763850   5.5453400
  24.9699760  75.1573390   5.2137920  25.9716600  74.6993740   6.2524340
  29.7001420  77.2432370  11.1488720  29.2380790  77.4515390  11.9608660
  29.2979530  76.4291720  10.8459390  34.7005930  78.4641320  12.2785380
  33.8499520  78.1647070  12.5994450  34.5407720  78.7083330  11.3669200
  31.7955640  79.9643070  14.3784170  32.1209050  79.1306820  14.0386400
  32.5835970  80.4871590  14.5262500  27.4507510  74.9211180   7.4043000
  27.7479840  75.8274010   7.3235020  27.9993070  74.4329960   6.7902570
  25.2045830  79.4997420   3.2734650  24.9786750  79.2834590   4.1781270
  24.4238360  79.9325880   2.9280620  27.6445040  80.3983000  13.9394920
  27.5488640  79.4577730  13.7895320  28.4877020  80.6198070  13.5442990
  31.0408460  78.1424330   3.9028580  31.4338030  78.4596530   3.0897270
  31.4025310  77.2636210   4.0173100  22.7755580  76.8096670  12.0928700
  22.3818970  77.6571880  12.3001480  22.0873980  76.1723040  12.2837340
  29.3500630  76.8931640  15.1625440  28.6598950  76.7003840  15.7971530
  30.0932930  77.1766280  15.6949740  20.0772630  74.7325130   6.1258780
  19.7885680  75.3027990   6.8383760  20.8218390  74.2529580   6.4890010
  31.6263600  80.7330080   7.9979360  30.8944720  81.2416890   8.3469460
  31.2287940  79.9160060   7.6968140  28.0640990  77.4084280   6.4031850
  28.0677050  76.9674230   5.5536390  28.9592110  77.7301610   6.5103670
  23.9143370  77.2910770   5.3626060  23.5743420  77.7686000   6.1193110
  23.1520690  76.8375890   5.0027160  32.0889510  76.1863760   7.4102300
  32.1062250  76.6372410   8.2544150  31.8405090  75.2869400   7.6235740
  35.5160260  73.5995940  13.2488680  35.8406030  72.8685600  13.7746660
  35.5516770  73.2809580  12.3469670  22.2151820  84.6209520  12.6688640
  21.8306610  83.9803190  13.2671600  22.5264010  85.3245640  13.2383370
  28.3648960  81.4686060   8.1497260  28.7319090  80.9944630   8.8958600
  28.1754020  82.3427630   8.4905600  21.2289450  76.2129750   4.2790730
  20.9436370  75.8485420   5.1169350  21.1668310  75.4810210   3.6653870
  26.1548330  80.5094700  10.4681470  25.8505400  81.3886680  10.6931830
  27.1094790  80.5694490  10.5038910  35.4418100  83.7121050   6.8574710
  36.1617220  84.2076340   6.4670820  35.2399920  83.0338940   6.2128580
  30.8236900  83.7830110  12.7443710  30.7574210  82.8625780  12.4901300
  30.1942040  83.8805550  13.4588350  24.7267520  84.3836070   4.7027130
  25.2446190  83.5804330   4.6484020  24.2751540  84.3215210   5.5443960
  22.2112060  81.3497440  11.6152830  21.8527000  82.0151290  12.2026170
  21.9166620  80.5180990  11.9865450  25.4125180  81.8081680  14.4992380
  25.1125320  81.9538860  13.6020200  26.1836420  81.2486970  14.4065770
  30.7553630  86.6050680  12.4947510  30.7698170  85.6731640  12.2766420
  30.0478730  86.6910440  13.1337280  36.9664840  83.2458020  11.8416090
  36.2413030  83.8386800  11.6445480  37.4940300  83.2381560  11.0429460
  32.4964430  84.9718190   5.3399940  32.8488250  84.3746320   4.6801310
  31.6126760  84.6462420   5.5108190  28.5827710  85.7315880   2.7470350
  29.2698840  86.2785090   3.1277940  27.7960130  86.2756610   2.7819960
  27.8854920  82.7361910   2.3595710  28.3417700  83.5467160   2.5855900
  27.5343130  82.4185050   3.1914200  23.7866700  73.0799560   2.8318230
  23.6581330  73.0717460   3.7803150  22.9628720  73.4182650   2.4809240
  31.4619610  86.2500600   8.3065460  32.1041840  85.5493760   8.4197630
  31.9868960  87.0299040   8.1262350  20.7860630  74.8390680  12.2924930
  20.0719150  75.0387600  12.8977540  21.2055670  74.0630250  12.6639730
  32.2799410  77.3312990  10.0426380  32.6480230  76.5108200  10.3705950
  31.4197610  77.3914880  10.4582030  27.6145470  78.5655880   2.2671820
  26.9061620  79.0342220   2.7085430  27.8989950  77.9077890   2.9017010
  29.2401400  79.9852580  10.2664350  29.7386650  80.4598400  10.9316200
  29.3824350  79.0616100  10.4734380  31.6460900  75.2906540   3.7067610
  31.5228680  75.3092670   2.7577120  32.5945460  75.3385480   3.8266010
  36.4468260  76.2020540  11.1092740  35.9441860  76.9425940  11.4486550
  37.2624920  76.5904540  10.7929530  34.7390270  81.4453720   4.5554100
  33.7980410  81.4603950   4.7301790  35.0534340  80.6589680   5.0014400
  32.0556290  86.0019720  15.0386480  31.4494450  86.0251320  14.2982230
  31.7510400  85.2702760  15.5753730  20.9389470  82.3813310  14.0347120
  21.4428490  81.8020590  14.6063350  20.1996890  82.6653540  14.5723490
  27.9927410  83.7884300  13.5682640  27.2273080  84.3569300  13.4837310
  28.1743370  83.4960510  12.6750870  35.1350760  85.5189630  14.1257660
  35.8760230  85.8565390  13.6225120  34.3723440  85.6881690  13.5727430
  22.9712550  80.5242900  14.9297190  23.0117890  80.2256770  15.8382420
  23.8258050  80.9250510  14.7704710  24.9118360  79.1035000  12.8971680
  24.3814820  78.6125950  12.2695020  25.5806430  79.5319200  12.3629610
  33.8096420  83.5704460  12.6612870  34.2237440  83.7249540  13.5103290
  32.8747420  83.6959680  12.8238650  34.2818590  80.9100620  14.6652020
  34.8639360  80.1552940  14.5772500  34.4580360  81.4408060  13.8883500
  25.3990660  76.0697370  12.9768970  25.3047530  75.4518120  12.2519840
  24.8188050  76.7963660  12.7498880  28.1652100  74.6270610  10.0096360
  27.7169400  74.6494870   9.1641910  27.5317300  74.2289630  10.6066660
  28.5711650  83.5224940  10.6308800  28.9899760  84.3657670  10.4585040
  27.6520280  83.6596980  10.4015580  30.9075550  81.2541120  12.0146640
  31.0271760  80.6582260  12.7541480  31.7669550  81.2910810  11.5947940
  33.2463450  81.8078310  10.5909150  32.7198670  82.3320930   9.9874290
  33.5894790  82.4405700  11.2218880  27.6744320  77.7962470  13.2722460
  28.2644010  77.4878320  13.9600280  26.8564560  77.3242220  13.4282360
  32.4937750  77.4128280  13.5055480  31.8053270  76.7509820  13.4405470
  33.2143770  76.9666550  13.9503940  25.2770490  86.7212760   2.9688770
  24.9766030  86.5977730   3.8692680  25.1707980  85.8621350   2.5604500
  21.0023210  81.7694570   4.4057310  20.3472050  81.5006210   3.7617010
  21.8401160  81.6599050   3.9559290  38.5078840  84.1006740   5.0191580
  38.8787670  83.3174060   4.6127550  39.1480770  84.7895840   4.8408880
  35.4912600  85.4843320  10.4321900  34.6772440  85.9140480  10.6947690
  35.8986800  86.0961730   9.8190950  37.4503380  81.4760000   2.3251600
  37.0746980  80.7087930   1.8932890  36.7206500  81.8582700   2.8126530
  22.0399140  82.1547140   8.9460650  22.4072180  82.0674540   9.8256670
  21.4709960  81.3913690   8.8467510  36.8403000  80.6231520  11.9591120
  36.6089090  80.3944270  11.0589070  37.1007550  81.5431070  11.9136010
  21.5915140  79.0656230  12.8519070  20.6971190  79.0322990  13.1912780
  22.1312690  79.2643020  13.6170320  35.2791070  75.8487950  14.7370820
  36.1561250  75.8571350  15.1204820  35.2911910  75.1118790  14.1263170
  36.7254340  79.7017490   5.6258840  37.2491820  79.2080140   4.9949010
  37.3113760  79.8367850   6.3706410  36.9044060  79.7857360   9.1478390
  35.9546770  79.7520900   9.2623380  37.0857070  80.6957470   8.9128160
  22.0954850  73.3404560   7.2002290  22.7431040  72.7901940   6.7597450
  22.5156690  73.5947710   8.0218100  37.6441470  77.5951790   4.0988930
  37.5340750  77.4407830   5.0371200  38.4049060  77.0672730   3.8564340
  35.9907190  73.5345920  10.5571930  36.6279410  74.1480060  10.9231120
  36.1382080  73.5706580   9.6121160  21.8486850  73.4960230   9.9427610
  21.5001670  73.9524050  10.7085790  21.5174550  72.6017360  10.0250040
  29.3611670  74.6872110  13.4647030  29.3000560  75.2793940  14.2142440
  30.3012050  74.5798070  13.3197290  31.9986230  74.3442170  13.1039320
  32.6126640  74.6621460  12.4420400  32.5435790  73.8590760  13.7235180
  22.5207490  73.0236430  13.2178380  23.0690480  72.8424480  12.4544490
  22.5862800  72.2330540  13.7534690  32.7394270  72.9074310   9.4308610
  31.8654110  73.2409420   9.2281540  32.6305020  72.4347490  10.2560480
  33.6466250  75.1145180  10.8150330  33.3179610  74.2996940  10.4352060
  34.5948550  75.0714990  10.6916020  30.4869090  73.8244150   8.3701520
  29.7040880  74.2989650   8.6498280  30.1932020  72.9198980   8.2614700
  35.0390160  74.5267250   6.4150610  35.4798250  74.4712350   5.5672210
  34.7697750  75.4425260   6.4860790  36.9028730  74.1582490   4.4259430
  36.8417130  73.2143710   4.2790450  37.6820760  74.2662580   4.9712890
  28.3723310  76.2430900   3.8817550  27.5597820  75.8687790   3.5413430
  28.8764950  75.4875980   4.1838740  32.8748290  72.9073350   5.1200620
  33.4777660  73.4793560   5.5949140  32.1341280  73.4712790   4.8974520
  26.3972490  74.3930820   2.4862600  25.7675230  73.6918130   2.6532730
  25.8577630  75.1534950   2.2695760  26.5228050  73.6714800  14.9215090
  26.2412320  74.1748400  14.1575910  26.9047750  72.8736550  14.5557220
  33.1243510  73.0868380  15.4995560  33.0108960  73.4062990  16.3947080
  33.9413250  73.4880890  15.2032840  32.0301660  62.3317360  79.7347750
  31.9495710  61.4171970  79.4639460  31.6166080  62.8284430  79.0287460
  30.1619700  64.1096380  81.6157020  29.3861800  63.6296820  81.9055590
  30.8132630  63.4302030  81.4413180  24.1785530  64.4216190  82.4932780
  23.3470410  64.1664900  82.8929290  24.7866510  64.4926960  83.2290700
  34.1827130  68.5156570  80.3956150  33.7208660  67.7443810  80.7243320
  34.9952680  68.5422640  80.9008600  24.1586790  68.4556280  82.6890800
  24.4614830  67.5654020  82.5101020  24.9030380  69.0126500  82.4613050
  22.5877480  59.3818080  76.2775170  21.6994180  59.7234050  76.1755050
  22.8718670  59.1818400  75.3856000  20.5510490  61.9823730  82.1614870
  21.1226600  61.2145930  82.1618510  20.5512030  62.2812490  81.2521480
  30.4090440  70.8014580  80.0160140  29.7901880  71.2572080  79.4454580
  31.2642220  70.9566040  79.6149840  29.6028690  66.7853570  81.6227180
  29.5336970  65.8443510  81.4616310  30.3648550  66.8754980  82.1949750
  21.7935360  57.3908090  83.9483800  21.6138200  56.4933840  84.2286560
  21.3915440  57.9379960  84.6230750  30.6333860  59.5923950  81.8496110
  31.0098680  58.7195830  81.7369780  30.5353370  59.9282650  80.9586550
  24.7638870  57.9649580  77.3113550  24.8705620  58.8653310  77.6182310
  23.8531230  57.9167550  77.0208200  34.4157980  57.0874390  78.7824450
  35.2367600  56.5970960  78.8249930  34.4492060  57.6772050  79.5356290
  22.4122030  59.8868590  82.5566140  23.0932140  60.1506960  83.1753540
  22.0970080  59.0469460  82.8904150  26.6046600  60.9335950  81.6438730
  27.1124820  61.4316920  82.2843750  27.1359840  60.1571150  81.4678090
  38.7057530  59.1041140  85.3468080  38.0009700  59.4922850  84.8283190
  38.9715450  59.7991430  85.9489010  24.8882700  55.5734510  85.9102150
  24.8901140  56.0906900  85.1048050  24.0587010  55.0964690  85.8872080
  31.2753790  65.6853820  77.4092050  30.6571060  66.1503270  76.8454770
  31.7877040  66.3781300  77.8261560  26.1385550  65.2129690  84.0875650
  25.8054930  65.8398610  84.7296720  26.3152230  65.7391570  83.3077320
  34.6519460  59.0274770  81.5551990  33.9475030  59.3159660  82.1355100
  35.0131620  59.8374880  81.1951550  24.5698030  57.2844470  83.9172600
  24.9114840  58.1286520  83.6226470  23.6313840  57.4328210  84.0337940
  25.3504650  67.1810490  85.9024830  25.9678650  67.8561570  85.6209280
  24.4897770  67.5898470  85.8112330  20.6436990  66.3710350  74.7831680
  20.2664970  66.8597450  74.0516580  20.9010060  67.0435630  75.4138210
  36.2682240  68.6449900  83.8179470  35.5845760  69.3149010  83.8096140
  36.8076530  68.8430550  83.0524330  37.7206380  58.4729560  81.9461200
  36.7731290  58.5068540  82.0776630  38.0456370  59.2868510  82.3310560
  28.2525920  54.7726740  80.2417190  28.5600900  54.2173630  79.5252690
  27.3226620  54.9071200  80.0590180  33.8040980  70.4894030  82.5324650
  33.8168140  70.0856320  81.6646910  33.2516200  71.2641320  82.4286080
  35.0986400  67.2110250  77.6214820  34.9882730  66.2684580  77.7464240
  35.0954650  67.5725890  78.5077580  33.2026420  65.3923870  83.8607260
  33.6195210  65.1783980  83.0260720  33.9266240  65.6496660  84.4315880
  30.6406680  62.8375570  76.9777310  29.7135960  62.7712950  77.2065780
  30.7931500  63.7755700  76.8632550  30.6275760  59.1092570  73.9744470
  29.6879430  59.2706530  74.0596930  30.9459020  59.8278250  73.4280460
  37.1488520  63.7911090  83.9523500  36.3207150  63.8604180  83.4773630
  37.7439000  64.3765400  83.4839330  34.6703970  64.3995870  77.4812560
  34.0516390  64.0615420  76.8338860  34.6528420  63.7555630  78.1891750
  34.1130530  60.5780410  84.8978370  33.7001710  61.4034120  85.1518360
  33.3806480  59.9925450  84.7054730  26.2463320  63.3640310  79.7597040
  25.8420320  62.6517560  79.2642940  26.3326440  63.0193550  80.6485080
  26.7145020  67.0507870  81.9236250  26.4173310  66.4453340  81.2444030
  27.6644840  67.0885180  81.8125610  24.9591940  60.1383520  83.5396080
  25.5106530  60.2478860  82.7649330  25.4735450  60.5121120  84.2551310
  34.8030630  70.6239740  85.5859350  34.3261190  71.4311930  85.3931960
  34.1192420  69.9718070  85.7385560  32.8468670  63.6382680  74.4885310
  33.2861950  62.8005110  74.3423130  33.5597090  64.2712080  74.5749450
  30.9564050  68.5778750  78.4566550  31.3959960  69.3203080  78.0421940
  30.8950940  68.8205320  79.3805510  36.4285810  54.8925490  72.8026350
  36.1158470  54.9852320  73.7025420  37.1898280  55.4706520  72.7523780
  22.9467950  62.2585290  77.2603690  22.8265550  62.9847380  76.6484960
  22.6368840  61.4888200  76.7831600  20.5853320  65.4300430  83.0672330
  20.6633740  65.5649200  82.1228050  21.1995000  64.7216320  83.2600450
  21.8300950  67.1300620  79.4778510  21.4229030  67.2715210  78.6232110
  22.7213960  66.8460780  79.2749720  33.6234230  71.5647870  75.8129560
  33.4635370  71.2750810  76.7111390  33.4580940  70.7888000  75.2774790
  26.1022610  71.3446400  77.5901180  25.9265090  70.4281940  77.3768980
  25.2478350  71.7033690  77.8298980  33.3260360  69.0735430  74.3727560
  32.6325520  69.0712720  73.7129840  34.0683220  68.6494750  73.9421730
  32.8910290  70.6998140  78.4476050  33.3467240  69.9187520  78.7614670
  33.2302810  71.4104960  78.9917230  25.4131610  55.6020360  80.6427360
  24.9699760  56.3829900  80.3111880  25.9716600  55.9250250  81.3498300
  28.5290430  55.2231060  75.5233190  27.9044610  55.2190930  76.2486500
  28.4420550  54.3562020  75.1269160  27.4507510  56.1467690  82.5016960
  27.7479840  57.0530520  82.4208980  27.9993070  55.6586470  81.8876530
  25.2045830  60.7253930  78.3708610  24.9786750  60.5091100  79.2755230
  24.4238360  61.1582390  78.0254580  32.4343590  60.7317300  76.9699260
  31.8352480  61.4553100  76.7862880  32.9823200  60.6694080  76.1875710
  31.0408460  59.3680840  79.0002540  31.4338030  59.6853040  78.1871230
  31.4025310  58.4892720  79.1147060  20.0772630  55.9581640  81.2232740
  19.7885680  56.5284500  81.9357720  20.8218390  55.4786090  81.5863970
  20.2642860  59.9001760  72.4335460  20.1817530  60.8432520  72.5750450
  19.9125920  59.7576670  71.5547810  31.6263600  61.9586590  83.0953320
  30.8944720  62.4673400  83.4443420  31.2287940  61.1416570  82.7942100
  28.0640990  58.6340790  81.5005810  28.0677050  58.1930740  80.6510350
  28.9592110  58.9558120  81.6077630  23.9143370  58.5167280  80.4600020
  23.5743420  58.9942510  81.2167070  23.1520690  58.0632400  80.1001120
  28.1261140  59.6352870  74.4912570  28.2473960  59.5939350  75.4398390
  27.7409650  60.4977020  74.3359300  32.0889510  57.4120270  82.5076260
  32.1062250  57.8628920  83.3518110  31.8405090  56.5125910  82.7209700
  27.1382640  61.9454010  73.8895870  26.5699540  61.4972260  73.2631780
  27.8471640  62.3046790  73.3561020  28.3648960  62.6942570  83.2471220
  28.7319090  62.2201140  83.9932560  28.1754020  63.5684140  83.5879560
  21.2289450  57.4386260  79.3764690  20.9436370  57.0741930  80.2143310
  21.1668310  56.7066720  78.7627830  26.1548330  61.7351210  85.5655430
  25.8505400  62.6143190  85.7905790  27.1094790  61.7951000  85.6012870
  24.6830120  65.9412200  76.1622280  23.9092380  65.4009820  76.0021000
  25.4124750  65.4218810  75.8240040  35.4418100  64.9377560  81.9548670
  36.1617220  65.4332850  81.5644780  35.2399920  64.2595450  81.3102540
  30.9028040  56.3315520  76.0978060  30.0892650  55.8328690  76.0223370
  30.7089990  57.1713770  75.6814410  33.6176430  60.7035170  74.3940220
  34.5056050  61.0152400  74.2191560  33.5881520  59.8307420  74.0020800
  24.7267520  65.6092580  79.8001090  25.2446190  64.8060840  79.7457980
  24.2751540  65.5471720  80.6417920  29.6137020  66.8758860  75.0728390
  29.9552720  67.6201090  74.5771710  28.7849730  67.1889980  75.4353220
  35.8890700  62.0147010  73.8620080  35.8054420  62.4461230  73.0116520
  36.6084890  62.4745360  74.2946900  36.9177950  68.8689270  76.5902210
  36.2754110  68.2144890  76.8645930  36.5308610  69.2744360  75.8142880
  32.4964430  66.1974700  80.4373900  32.8488250  65.6002830  79.7775270
  31.6126760  65.8718930  80.6082150  28.5827710  66.9572390  77.8444310
  29.2698840  67.5041600  78.2251900  27.7960130  67.5013120  77.8793920
  20.7220110  62.5745210  73.3361390  21.5914960  62.8570010  73.6197310
  20.2310430  63.3881080  73.2210200  27.8854920  63.9618420  77.4569670
  28.3417700  64.7723670  77.6829860  27.5343130  63.6441560  78.2888160
  30.1887530  69.4724760  84.6861970  30.8329750  69.6784140  85.3635390
  30.5516970  68.7113160  84.2332820  23.7866700  54.3056070  77.9292190
  23.6581330  54.2973970  78.8777110  22.9628720  54.6439160  77.5783200
  31.4619610  67.4757110  83.4039420  32.1041840  66.7750270  83.5171590
  31.9868960  68.2555550  83.2236310  35.3075330  67.7605730  73.1278560
  35.0812910  67.0436170  73.7203200  34.9171530  67.5118170  72.2900310
  21.0891360  71.7872590  73.9023020  21.4489000  72.3861930  73.2480290
  20.9483700  72.3332480  74.6758050  34.8891580  65.6777670  74.7892720
  34.6013280  66.1390360  75.5770600  35.6843750  65.2175440  75.0576940
  27.1059980  69.1703790  74.7196690  27.0970080  69.9033480  74.1041200
  26.1858340  68.9235370  74.8123650  22.7066620  64.3918680  75.4643450
  22.0994570  65.1317580  75.4738750  23.1815970  64.4818040  74.6381650
  32.2799410  58.5569500  85.1400340  32.6480230  57.7364710  85.4679910
  31.4197610  58.6171390  85.5555990  35.6461440  57.5126440  75.9487900
  35.0174600  57.6172110  75.2346130  35.1513360  57.7323220  76.7381780
  30.0919580  69.2332030  73.3821880  30.1931560  69.0296020  72.4523860
  29.1921320  68.9790310  73.5869660  27.6145470  59.7912390  77.3645780
  26.9061620  60.2598730  77.8059390  27.8989950  59.1334400  77.9990970
  31.6460900  56.5163050  78.8041570  31.5228680  56.5349180  77.8551080
  32.5945460  56.5641990  78.9239970  28.7337690  71.7518350  78.0769550
  28.9879190  71.7139740  77.1548920  27.7850170  71.6251680  78.0697800
  25.8180490  58.0997470  74.7396490  26.6671020  58.5367620  74.6736680
  25.4511760  58.4117730  75.5668550  34.7390270  62.6710230  79.6528060
  33.7980410  62.6860460  79.8275750  35.0534340  61.8846190  80.0988360
  24.7171910  64.3529830  73.2132020  25.4835180  64.2411190  73.7757450
  24.7946600  63.6567800  72.5608790  23.4118670  61.7854900  73.8964910
  23.4922260  60.8382410  74.0082310  24.3038420  62.1161780  74.0025570
  36.7415850  69.8419080  81.3282320  36.8663270  70.6650250  81.8006130
  37.6081410  69.6309810  80.9806470  24.2133380  71.9350290  80.9999450
  24.9495860  71.3865750  81.2708020  24.5974300  72.8006300  80.8605440
  21.0978860  68.0023860  76.8740960  20.1718640  68.2445000  76.8646370
  21.5635290  68.8298120  76.7525710  27.3235690  71.1080600  72.8225020
  28.1164300  71.3969430  72.3706810  26.8040040  70.6772770  72.1437500
  36.3765860  70.3350730  74.2461760  36.0907370  69.9215870  73.4315940
  36.1785410  71.2638440  74.1262280  27.8413090  66.3284010  72.6867370
  27.7363730  65.7136360  73.4128750  27.6737310  65.8049900  71.9030380
  31.0815820  65.3904040  73.2909360  30.5325920  65.8373340  73.9352100
  31.7035080  64.8853290  73.8147030  26.7490940  64.3494960  75.1874660
  27.1707360  64.1834830  76.0306050  26.8741780  63.5395190  74.6929800
  29.2618580  63.3732570  72.4351760  29.7824240  62.6581590  72.0692910
  29.9086980  64.0118440  72.7352270  28.1652100  55.8527120  85.1070320
  27.7169400  55.8751380  84.2615870  27.5317300  55.4546140  85.7040620
  28.5711650  64.7481450  85.7282760  28.9899760  65.5914180  85.5559000
  27.6520280  64.8853490  85.4989540  25.6449840  60.4228190  72.1332820
  25.4438900  59.5595550  72.4946160  25.4741890  60.3361550  71.1954420
  33.1238150  55.2336420  74.6619700  33.4040440  54.3904320  75.0179120
  32.3503880  55.4659530  75.1758450  24.4432640  57.5228810  72.1210700
  24.7458540  57.5296240  71.2129850  25.1827230  57.1726670  72.6178360
  27.6617570  56.4663430  73.1066900  27.3139570  55.7887420  72.5269350
  27.8630340  56.0052940  73.9210290  29.8266610  71.4544180  74.7253500
  30.7217400  71.7929150  74.7472260  29.8584240  70.7323590  74.0977780
  23.4662770  66.8271230  72.9540500  23.9037640  67.3700900  73.6098080
  23.9510500  66.0018180  72.9636840  20.6808570  69.6160260  80.4060760
  21.0111580  68.7481320  80.1739400  21.1099570  69.8218780  81.2365720
  25.2770490  67.9469270  78.0662730  24.9766030  67.8234240  78.9666640
  25.1707980  67.0877860  77.6578460  21.1698780  70.4830850  83.1442390
  20.7329770  70.6631650  83.9766540  21.7376460  71.2405470  83.0024110
  38.0462410  67.7265670  72.7689410  37.2155370  67.7942320  73.2396640
  38.2234240  68.6169790  72.4656270  37.5018870  64.4713150  75.2723610
  38.2637780  65.0409800  75.3783300  37.5173240  63.9040350  76.0431920
  21.0023210  62.9951080  79.5031270  20.3472050  62.7262720  78.8590970
  21.8401160  62.8855560  79.0533250  38.5078840  65.3263250  80.1165540
  38.8787670  64.5430570  79.7101510  39.1480770  66.0152350  79.9382840
  35.4912600  66.7099830  85.5295860  34.6772440  67.1396990  85.7921650
  35.8986800  67.3218240  84.9164910  37.5538040  64.7647520  72.4296130
  37.8286880  65.6726400  72.3015350  37.3648780  64.7010050  73.3658120
  33.9513650  57.7892370  73.7249760  34.3698530  57.6023350  72.8846420
  33.6449710  56.9371420  74.0352690  37.4503380  62.7016510  77.4225560
  37.0746980  61.9344440  76.9906850  36.7206500  63.0839210  77.9100490
  22.0399140  63.3803650  84.0434610  22.4072180  63.2931050  84.9230630
  21.4709960  62.6170200  83.9441470  20.2161290  60.2050010  75.4456600
  19.3125370  60.4680210  75.2708260  20.7001910  60.4761180  74.6656560
  36.7254340  60.9274000  80.7232800  37.2491820  60.4336650  80.0922970
  37.3113760  61.0624360  81.4680370  36.9044060  61.0113870  84.2452350
  35.9546770  60.9777410  84.3597340  37.0857070  61.9213980  84.0102120
  22.7588500  59.2615550  73.3550980  23.4680200  58.8398770  72.8698260
  22.0428440  59.3290780  72.7234330  22.4062660  55.3154880  72.3953630
  23.1290790  55.8563820  72.7134850  22.6787180  55.0418300  71.5195170
  36.2154310  60.1847350  76.6625210  36.7113430  59.9518220  77.4474090
  36.0170380  59.3459190  76.2462850  22.0954850  54.5661070  82.2976250
  22.7431040  54.0158450  81.8571410  22.5156690  54.8204220  83.1192060
  37.6441470  58.8208300  79.1962890  37.5340750  58.6664340  80.1345160
  38.4049060  58.2929240  78.9538300  38.5331740  56.6516220  72.4369030
  39.4581050  56.5197400  72.2287320  38.5107530  56.7309040  73.3905480
  38.6070230  57.4226880  75.0625740  37.8121730  57.3572000  75.5918650
  38.8113510  58.3577520  75.0511090  35.5488650  71.4618430  79.0564130
  36.1447720  71.1403000  78.3798550  35.8066800  70.9890250  79.8477400
  21.8486850  54.7216740  85.0401570  21.5001670  55.1780560  85.8059750
  21.5174550  53.8273870  85.1224000  27.1557250  69.4495930  84.8064480
  26.9148610  69.7170490  83.9195000  28.0959890  69.6201660  84.8615340
  32.7394270  54.1330820  84.5282570  31.8654110  54.4665930  84.3255500
  32.6305020  53.6604000  85.3534440  33.6466250  56.3401690  85.9124290
  33.3179610  55.5253450  85.5326020  34.5948550  56.2971500  85.7889980
  36.1000860  72.1113730  82.8861860  35.6403830  72.8629540  82.5119880
  35.4713320  71.3920200  82.8276660  22.9251480  68.2056970  85.2760580
  22.1985540  67.5862260  85.2086530  22.9860630  68.5997580  84.4058660
  26.5296580  70.4201970  82.0609990  27.0461600  69.8089330  81.5358250
  27.1793960  70.9230750  82.5521000  29.2692080  71.3110460  82.8878970
  29.5569890  71.0564760  82.0111980  29.7815300  70.7587820  83.4784540
  30.4869090  55.0500660  83.4675480  29.7040880  55.5246160  83.7472240
  30.1932020  54.1455490  83.3588660  35.0390160  55.7523760  81.5124570
  35.4798250  55.6968860  80.6646170  34.7697750  56.6681770  81.5834750
  36.9028730  55.3839000  79.5233390  36.8417130  54.4400220  79.3764410
  37.6820760  55.4919090  80.0686850  21.2081480  71.5231360  78.4857340
  21.0403520  70.8902040  79.1839230  20.3415990  71.7290760  78.1351530
  21.8309500  55.3548140  75.9889200  22.5888860  55.4677020  75.4153230
  21.3686670  56.1917340  75.9432630  28.3723310  57.4687410  78.9791510
  27.5597820  57.0944300  78.6387390  28.8764950  56.7132490  79.2812700
  32.8748290  54.1329860  80.2174580  33.4777660  54.7050070  80.6923100
  32.1341280  54.6969300  79.9948480  36.0182890  54.5351420  75.4914860
  36.2133520  55.4334870  75.7582290  35.2312760  54.3038500  75.9847810
  22.8144180  70.2164590  75.9307480  22.2891800  70.5972620  75.2269440
  22.7388760  70.8415360  76.6517190  24.2034650  55.8812190  74.5291170
  24.7327410  55.0941990  74.3999120  24.8362970  56.5603380  74.7626700
  26.3972490  55.6187330  77.5836560  25.7675230  54.9174640  77.7506690
  25.8577630  56.3791460  77.3669720  37.5709500  71.7752130  77.2521420
  37.7461690  71.0889870  76.6082340  36.8731070  72.2999180  76.8598090
  25.4137150  72.1646970  74.8056730  26.1455970  71.8806250  74.2580620
  25.6730820  71.9260250  75.6956110  24.5751940  68.2811700  74.8103060
  23.9460820  68.7496800  75.3588890  24.6899770  67.4360920  75.2449250
  32.0301660  62.3317360  60.9604260  31.9495710  61.4171970  60.6895970
  31.6166080  62.8284430  60.2543970  30.1619700  64.1096380  62.8413530
  29.3861800  63.6296820  63.1312100  30.8132630  63.4302030  62.6669690
  24.1785530  64.4216190  63.7189290  23.3470410  64.1664900  64.1185800
  24.7866510  64.4926960  64.4547210  34.1827130  68.5156570  61.6212660
  33.7208660  67.7443810  61.9499830  34.9952680  68.5422640  62.1265110
  24.1586790  68.4556280  63.9147310  24.4614830  67.5654020  63.7357530
  24.9030380  69.0126500  63.6869560  22.5877480  59.3818080  57.5031680
  21.6994180  59.7234050  57.4011560  22.8718670  59.1818400  56.6112510
  20.5510490  61.9823730  63.3871380  21.1226600  61.2145930  63.3875020
  20.5512030  62.2812490  62.4777990  30.4090440  70.8014580  61.2416650
  29.7901880  71.2572080  60.6711090  31.2642220  70.9566040  60.8406350
  29.6028690  66.7853570  62.8483690  29.5336970  65.8443510  62.6872820
  30.3648550  66.8754980  63.4206260  21.7935360  57.3908090  65.1740310
  21.6138200  56.4933840  65.4543070  21.3915440  57.9379960  65.8487260
  30.6333860  59.5923950  63.0752620  31.0098680  58.7195830  62.9626290
  30.5353370  59.9282650  62.1843060  24.7638870  57.9649580  58.5370060
  24.8705620  58.8653310  58.8438820  23.8531230  57.9167550  58.2464710
  34.4157980  57.0874390  60.0080960  35.2367600  56.5970960  60.0506440
  34.4492060  57.6772050  60.7612800  22.4122030  59.8868590  63.7822650
  23.0932140  60.1506960  64.4010050  22.0970080  59.0469460  64.1160660
  26.6046600  60.9335950  62.8695240  27.1124820  61.4316920  63.5100260
  27.1359840  60.1571150  62.6934600  38.7057530  59.1041140  66.5724590
  38.0009700  59.4922850  66.0539700  38.9715450  59.7991430  67.1745520
  24.8882700  55.5734510  67.1358660  24.8901140  56.0906900  66.3304560
  24.0587010  55.0964690  67.1128590  31.2753790  65.6853820  58.6348560
  30.6571060  66.1503270  58.0711280  31.7877040  66.3781300  59.0518070
  26.1385550  65.2129690  65.3132160  25.8054930  65.8398610  65.9553230
  26.3152230  65.7391570  64.5333830  34.6519460  59.0274770  62.7808500
  33.9475030  59.3159660  63.3611610  35.0131620  59.8374880  62.4208060
  24.5698030  57.2844470  65.1429110  24.9114840  58.1286520  64.8482980
  23.6313840  57.4328210  65.2594450  25.3504650  67.1810490  67.1281340
  25.9678650  67.8561570  66.8465790  24.4897770  67.5898470  67.0368840
  20.6436990  66.3710350  56.0088190  20.2664970  66.8597450  55.2773090
  20.9010060  67.0435630  56.6394720  36.2682240  68.6449900  65.0435980
  35.5845760  69.3149010  65.0352650  36.8076530  68.8430550  64.2780840
  37.7206380  58.4729560  63.1717710  36.7731290  58.5068540  63.3033140
  38.0456370  59.2868510  63.5567070  28.2525920  54.7726740  61.4673700
  28.5600900  54.2173630  60.7509200  27.3226620  54.9071200  61.2846690
  33.8040980  70.4894030  63.7581160  33.8168140  70.0856320  62.8903420
  33.2516200  71.2641320  63.6542590  35.0986400  67.2110250  58.8471330
  34.9882730  66.2684580  58.9720750  35.0954650  67.5725890  59.7334090
  33.2026420  65.3923870  65.0863770  33.6195210  65.1783980  64.2517230
  33.9266240  65.6496660  65.6572390  30.6406680  62.8375570  58.2033820
  29.7135960  62.7712950  58.4322290  30.7931500  63.7755700  58.0889060
  30.6275760  59.1092570  55.2000980  29.6879430  59.2706530  55.2853440
  30.9459020  59.8278250  54.6536970  37.1488520  63.7911090  65.1780010
  36.3207150  63.8604180  64.7030140  37.7439000  64.3765400  64.7095840
  34.6703970  64.3995870  58.7069070  34.0516390  64.0615420  58.0595370
  34.6528420  63.7555630  59.4148260  34.1130530  60.5780410  66.1234880
  33.7001710  61.4034120  66.3774870  33.3806480  59.9925450  65.9311240
  26.2463320  63.3640310  60.9853550  25.8420320  62.6517560  60.4899450
  26.3326440  63.0193550  61.8741590  26.7145020  67.0507870  63.1492760
  26.4173310  66.4453340  62.4700540  27.6644840  67.0885180  63.0382120
  24.9591940  60.1383520  64.7652590  25.5106530  60.2478860  63.9905840
  25.4735450  60.5121120  65.4807820  34.8030630  70.6239740  66.8115860
  34.3261190  71.4311930  66.6188470  34.1192420  69.9718070  66.9642070
  25.8063450  66.7889560  69.8000560  24.9091980  67.0129530  70.0473960
  25.8316320  66.9124500  68.8511960  32.8468670  63.6382680  55.7141820
  33.2861950  62.8005110  55.5679640  33.5597090  64.2712080  55.8005960
  24.6334670  63.6602880  68.3757930  24.4942440  64.5325680  68.7445330
  23.7516030  63.3175690  68.2305870  30.9564050  68.5778750  59.6823060
  31.3959960  69.3203080  59.2678450  30.8950940  68.8205320  60.6062020
  26.4315020  69.6024580  70.5843080  26.4030450  70.0067530  69.7171510
  26.2679990  68.6734940  70.4214680  36.4285810  54.8925490  54.0282860
  36.1158470  54.9852320  54.9281930  37.1898280  55.4706520  53.9780290
  22.9467950  62.2585290  58.4860200  22.8265550  62.9847380  57.8741470
  22.6368840  61.4888200  58.0088110  38.3829840  70.3851680  71.8807250
  38.8589560  70.8634570  72.5596330  39.0037000  70.3169170  71.1552750
  20.5853320  65.4300430  64.2928840  20.6633740  65.5649200  63.3484560
  21.1995000  64.7216320  64.4856960  21.8300950  67.1300620  60.7035020
  21.4229030  67.2715210  59.8488620  22.7213960  66.8460780  60.5006230
  37.7863090  67.5764530  69.0407260  37.9126150  67.3376410  68.1224440
  37.8284470  66.7449070  69.5129340  31.6479830  71.2792530  67.6102070
  32.1624500  71.1900540  68.4124500  30.8048910  71.6252230  67.9029980
  33.6234230  71.5647870  57.0386070  33.4635370  71.2750810  57.9367900
  33.4580940  70.7888000  56.5031300  26.1022610  71.3446400  58.8157690
  25.9265090  70.4281940  58.6025490  25.2478350  71.7033690  59.0555490
  33.3260360  69.0735430  55.5984070  32.6325520  69.0712720  54.9386350
  34.0683220  68.6494750  55.1678240  32.8910290  70.6998140  59.6732560
  33.3467240  69.9187520  59.9871180  33.2302810  71.4104960  60.2173740
  37.6387100  59.6296990  70.0057000  37.0231370  60.1376660  69.4772460
  37.3183520  58.7295320  69.9482940  20.6412840  66.4714600  66.8323300
  20.8043880  66.0019960  66.0142670  21.1065290  65.9638160  67.4972140
  25.4131610  55.6020360  61.8683870  24.9699760  56.3829900  61.5368390
  25.9716600  55.9250250  62.5754810  29.7001420  58.4688880  67.4719190
  29.2380790  58.6771900  68.2839130  29.2979530  57.6548230  67.1689860
  34.7005930  59.6897830  68.6015850  33.8499520  59.3903580  68.9224920
  34.5407720  59.9339840  67.6899670  31.7955640  61.1899580  70.7014640
  32.1209050  60.3563330  70.3616870  32.5835970  61.7128100  70.8492970
  28.5290430  55.2231060  56.7489700  27.9044610  55.2190930  57.4743010
  28.4420550  54.3562020  56.3525670  27.4507510  56.1467690  63.7273470
  27.7479840  57.0530520  63.6465490  27.9993070  55.6586470  63.1133040
  25.2045830  60.7253930  59.5965120  24.9786750  60.5091100  60.5011740
  24.4238360  61.1582390  59.2511090  32.4343590  60.7317300  58.1955770
  31.8352480  61.4553100  58.0119390  32.9823200  60.6694080  57.4132220
  27.6445040  61.6239510  70.2625390  27.5488640  60.6834240  70.1125790
  28.4877020  61.8454580  69.8673460  31.0408460  59.3680840  60.2259050
  31.4338030  59.6853040  59.4127740  31.4025310  58.4892720  60.3403570
  22.7755580  58.0353180  68.4159170  22.3818970  58.8828390  68.6231950
  22.0873980  57.3979550  68.6067810  29.3500630  58.1188150  71.4855910
  28.6598950  57.9260350  72.1202000  30.0932930  58.4022790  72.0180210
  20.0772630  55.9581640  62.4489250  19.7885680  56.5284500  63.1614230
  20.8218390  55.4786090  62.8120480  20.2642860  59.9001760  53.6591970
  20.1817530  60.8432520  53.8006960  19.9125920  59.7576670  52.7804320
  31.6263600  61.9586590  64.3209830  30.8944720  62.4673400  64.6699930
  31.2287940  61.1416570  64.0198610  28.0640990  58.6340790  62.7262320
  28.0677050  58.1930740  61.8766860  28.9592110  58.9558120  62.8334140
  23.9143370  58.5167280  61.6856530  23.5743420  58.9942510  62.4423580
  23.1520690  58.0632400  61.3257630  28.1261140  59.6352870  55.7169080
  28.2473960  59.5939350  56.6654900  27.7409650  60.4977020  55.5615810
  32.0889510  57.4120270  63.7332770  32.1062250  57.8628920  64.5774620
  31.8405090  56.5125910  63.9466210  27.1382640  61.9454010  55.1152380
  26.5699540  61.4972260  54.4888290  27.8471640  62.3046790  54.5817530
  35.5160260  54.8252450  69.5719150  35.8406030  54.0942110  70.0977130
  35.5516770  54.5066090  68.6700140  22.2151820  65.8466030  68.9919110
  21.8306610  65.2059700  69.5902070  22.5264010  66.5502150  69.5613840
  28.3648960  62.6942570  64.4727730  28.7319090  62.2201140  65.2189070
  28.1754020  63.5684140  64.8136070  21.2289450  57.4386260  60.6021200
  20.9436370  57.0741930  61.4399820  21.1668310  56.7066720  59.9884340
  26.1548330  61.7351210  66.7911940  25.8505400  62.6143190  67.0162300
  27.1094790  61.7951000  66.8269380  24.6830120  65.9412200  57.3878790
  23.9092380  65.4009820  57.2277510  25.4124750  65.4218810  57.0496550
  35.4418100  64.9377560  63.1805180  36.1617220  65.4332850  62.7901290
  35.2399920  64.2595450  62.5359050  30.9028040  56.3315520  57.3234570
  30.0892650  55.8328690  57.2479880  30.7089990  57.1713770  56.9070920
  30.8236900  65.0086620  69.0674180  30.7574210  64.0882290  68.8131770
  30.1942040  65.1062060  69.7818820  33.6176430  60.7035170  55.6196730
  34.5056050  61.0152400  55.4448070  33.5881520  59.8307420  55.2277310
  24.7267520  65.6092580  61.0257600  25.2446190  64.8060840  60.9714490
  24.2751540  65.5471720  61.8674430  29.6137020  66.8758860  56.2984900
  29.9552720  67.6201090  55.8028220  28.7849730  67.1889980  56.6609730
  22.2112060  62.5753950  67.9383300  21.8527000  63.2407800  68.5256640
  21.9166620  61.7437500  68.3095920  25.4125180  63.0338190  70.8222850
  25.1125320  63.1795370  69.9250670  26.1836420  62.4743480  70.7296240
  30.7553630  67.8307190  68.8177980  30.7698170  66.8988150  68.5996890
  30.0478730  67.9166950  69.4567750  35.8890700  62.0147010  55.0876590
  35.8054420  62.4461230  54.2373030  36.6084890  62.4745360  55.5203410
  36.9664840  64.4714530  68.1646560  36.2413030  65.0643310  67.9675950
  37.4940300  64.4638070  67.3659930  36.9177950  68.8689270  57.8158720
  36.2754110  68.2144890  58.0902440  36.5308610  69.2744360  57.0399390
  32.4964430  66.1974700  61.6630410  32.8488250  65.6002830  61.0031780
  31.6126760  65.8718930  61.8338660  28.5827710  66.9572390  59.0700820
  29.2698840  67.5041600  59.4508410  27.7960130  67.5013120  59.1050430
  20.7220110  62.5745210  54.5617900  21.5914960  62.8570010  54.8453820
  20.2310430  63.3881080  54.4466710  27.8854920  63.9618420  58.6826180
  28.3417700  64.7723670  58.9086370  27.5343130  63.6441560  59.5144670
  30.1887530  69.4724760  65.9118480  30.8329750  69.6784140  66.5891900
  30.5516970  68.7113160  65.4589330  23.7866700  54.3056070  59.1548700
  23.6581330  54.2973970  60.1033620  22.9628720  54.6439160  58.8039710
  31.4619610  67.4757110  64.6295930  32.1041840  66.7750270  64.7428100
  31.9868960  68.2555550  64.4492820  35.3075330  67.7605730  54.3535070
  35.0812910  67.0436170  54.9459710  34.9171530  67.5118170  53.5156820
  33.2357230  68.2752010  67.8331990  33.5713470  68.8618700  68.5109910
  32.3157570  68.1444720  68.0629780  21.0891360  71.7872590  55.1279530
  21.4489000  72.3861930  54.4736800  20.9483700  72.3332480  55.9014560
  20.7860630  56.0647190  68.6155400  20.0719150  56.2644110  69.2208010
  21.2055670  55.2886760  68.9870200  34.8891580  65.6777670  56.0149230
  34.6013280  66.1390360  56.8027110  35.6843750  65.2175440  56.2833450
  21.0733220  70.0527450  69.6021930  21.1824340  69.1122190  69.4617320
  20.4213780  70.3182200  68.9535660  29.0645810  68.3243340  71.0020050
  28.7442680  67.6052580  71.5465740  28.3904170  68.9998410  71.0756110
  27.1059980  69.1703790  55.9453200  27.0970080  69.9033480  55.3297710
  26.1858340  68.9235370  56.0380160  22.7066620  64.3918680  56.6899960
  22.0994570  65.1317580  56.6995260  23.1815970  64.4818040  55.8638160
  32.2799410  58.5569500  66.3656850  32.6480230  57.7364710  66.6936420
  31.4197610  58.6171390  66.7812500  35.6461440  57.5126440  57.1744410
  35.0174600  57.6172110  56.4602640  35.1513360  57.7323220  57.9638290
  30.0919580  69.2332030  54.6078390  30.1931560  69.0296020  53.6780370
  29.1921320  68.9790310  54.8126170  27.6145470  59.7912390  58.5902290
  26.9061620  60.2598730  59.0315900  27.8989950  59.1334400  59.2247480
  29.2401400  61.2109090  66.5894820  29.7386650  61.6854910  67.2546670
  29.3824350  60.2872610  66.7964850  31.6460900  56.5163050  60.0298080
  31.5228680  56.5349180  59.0807590  32.5945460  56.5641990  60.1496480
  28.7337690  71.7518350  59.3026060  28.9879190  71.7139740  58.3805430
  27.7850170  71.6251680  59.2954310  25.8180490  58.0997470  55.9653000
  26.6671020  58.5367620  55.8993190  25.4511760  58.4117730  56.7925060
  36.4468260  57.4277050  67.4323210  35.9441860  58.1682450  67.7717020
  37.2624920  57.8161050  67.1160000  34.7390270  62.6710230  60.8784570
  33.7980410  62.6860460  61.0532260  35.0534340  61.8846190  61.3244870
  24.7171910  64.3529830  54.4388530  25.4835180  64.2411190  55.0013960
  24.7946600  63.6567800  53.7865300  23.4118670  61.7854900  55.1221420
  23.4922260  60.8382410  55.2338820  24.3038420  62.1161780  55.2282080
  36.7415850  69.8419080  62.5538830  36.8663270  70.6650250  63.0262640
  37.6081410  69.6309810  62.2062980  24.2133380  71.9350290  62.2255960
  24.9495860  71.3865750  62.4964530  24.5974300  72.8006300  62.0861950
  21.0978860  68.0023860  58.0997470  20.1718640  68.2445000  58.0902880
  21.5635290  68.8298120  57.9782220  23.2191660  71.1196360  71.4141540
  24.0204390  71.4408410  71.8276940  22.7043480  70.7591940  72.1361450
  27.3235690  71.1080600  54.0481530  28.1164300  71.3969430  53.5963320
  26.8040040  70.6772770  53.3694010  32.0556290  67.2276230  71.3616950
  31.4494450  67.2507830  70.6212700  31.7510400  66.4959270  71.8984200
  33.4856660  70.9556520  69.9726360  34.4378410  70.8714540  69.9226600
  33.3384880  71.6198230  70.6460150  36.3765860  70.3350730  55.4718270
  36.0907370  69.9215870  54.6572450  36.1785410  71.2638440  55.3518790
  20.9389470  63.6069820  70.3577590  21.4428490  63.0277100  70.9293820
  20.1996890  63.8910050  70.8953960  27.8413090  66.3284010  53.9123880
  27.7363730  65.7136360  54.6385260  27.6737310  65.8049900  53.1286890
  27.9927410  65.0140810  69.8913110  27.2273080  65.5825810  69.8067780
  28.1743370  64.7217020  68.9981340  31.0815820  65.3904040  54.5165870
  30.5325920  65.8373340  55.1608610  31.7035080  64.8853290  55.0403540
  35.1350760  66.7446140  70.4488130  35.8760230  67.0821900  69.9455590
  34.3723440  66.9138200  69.8957900  22.9712550  61.7499410  71.2527660
  23.0117890  61.4513280  72.1612890  23.8258050  62.1507020  71.0935180
  26.7490940  64.3494960  56.4131170  27.1707360  64.1834830  57.2562560
  26.8741780  63.5395190  55.9186310  24.9118360  60.3291510  69.2202150
  24.3814820  59.8382460  68.5925490  25.5806430  60.7575710  68.6860080
  29.2618580  63.3732570  53.6608270  29.7824240  62.6581590  53.2949420
  29.9086980  64.0118440  53.9608780  33.8096420  64.7960970  68.9843340
  34.2237440  64.9506050  69.8333760  32.8747420  64.9216190  69.1469120
  34.2818590  62.1357130  70.9882490  34.8639360  61.3809450  70.9002970
  34.4580360  62.6664570  70.2113970  25.3990660  57.2953880  69.2999440
  25.3047530  56.6774630  68.5750310  24.8188050  58.0220170  69.0729350
  28.1652100  55.8527120  66.3326830  27.7169400  55.8751380  65.4872380
  27.5317300  55.4546140  66.9297130  28.5711650  64.7481450  66.9539270
  28.9899760  65.5914180  66.7815510  27.6520280  64.8853490  66.7246050
  30.9075550  62.4797630  68.3377110  31.0271760  61.8838770  69.0771950
  31.7669550  62.5167320  67.9178410  33.2463450  63.0334820  66.9139620
  32.7198670  63.5577440  66.3104760  33.5894790  63.6662210  67.5449350
  25.6449840  60.4228190  53.3589330  25.4438900  59.5595550  53.7202670
  25.4741890  60.3361550  52.4210930  26.4219070  71.0534460  68.0697000
  25.8840160  71.7780520  67.7505700  26.6753030  70.5764800  67.2794340
  27.6744320  59.0218980  69.5952930  28.2644010  58.7134830  70.2830750
  26.8564560  58.5498730  69.7512830  32.4937750  58.6384790  69.8285950
  31.8053270  57.9766330  69.7635940  33.2143770  58.1923060  70.2734410
  33.1238150  55.2336420  55.8876210  33.4040440  54.3904320  56.2435630
  32.3503880  55.4659530  56.4014960  24.4432640  57.5228810  53.3467210
  24.7458540  57.5296240  52.4386360  25.1827230  57.1726670  53.8434870
  29.2781280  72.2885670  68.3283650  29.2039980  73.1920810  68.6356020
  28.3760120  71.9697570  68.3005720  27.6617570  56.4663430  54.3323410
  27.3139570  55.7887420  53.7525860  27.8630340  56.0052940  55.1466800
  29.8266610  71.4544180  55.9510010  30.7217400  71.7929150  55.9728770
  29.8584240  70.7323590  55.3234290  23.4662770  66.8271230  54.1797010
  23.9037640  67.3700900  54.8354590  23.9510500  66.0018180  54.1893350
  20.6808570  69.6160260  61.6317270  21.0111580  68.7481320  61.3995910
  21.1099570  69.8218780  62.4622230  25.2770490  67.9469270  59.2919240
  24.9766030  67.8234240  60.1923150  25.1707980  67.0877860  58.8834970
  21.1698780  70.4830850  64.3698900  20.7329770  70.6631650  65.2023050
  21.7376460  71.2405470  64.2280620  36.8060960  69.9847850  68.6576210
  36.2062950  70.0440410  67.9140130  36.9354860  69.0452830  68.7873060
  38.0462410  67.7265670  53.9945920  37.2155370  67.7942320  54.4653150
  38.2234240  68.6169790  53.6912780  37.5018870  64.4713150  56.4980120
  38.2637780  65.0409800  56.6039810  37.5173240  63.9040350  57.2688430
  21.0023210  62.9951080  60.7287780  20.3472050  62.7262720  60.0847480
  21.8401160  62.8855560  60.2789760  38.5078840  65.3263250  61.3422050
  38.8787670  64.5430570  60.9358020  39.1480770  66.0152350  61.1639350
  35.4912600  66.7099830  66.7552370  34.6772440  67.1396990  67.0178160
  35.8986800  67.3218240  66.1421420  37.5538040  64.7647520  53.6552640
  37.8286880  65.6726400  53.5271860  37.3648780  64.7010050  54.5914630
  33.9513650  57.7892370  54.9506270  34.3698530  57.6023350  54.1102930
  33.6449710  56.9371420  55.2609200  37.4503380  62.7016510  58.6482070
  37.0746980  61.9344440  58.2163360  36.7206500  63.0839210  59.1357000
  22.0399140  63.3803650  65.2691120  22.4072180  63.2931050  66.1487140
  21.4709960  62.6170200  65.1697980  36.8403000  61.8488030  68.2821590
  36.6089090  61.6200780  67.3819540  37.1007550  62.7687580  68.2366480
  21.5915140  60.2912740  69.1749540  20.6971190  60.2579500  69.5143250
  22.1312690  60.4899530  69.9400790  35.2791070  57.0744460  71.0601290
  36.1561250  57.0827860  71.4435290  35.2911910  56.3375300  70.4493640
  20.2161290  60.2050010  56.6713110  19.3125370  60.4680210  56.4964770
  20.7001910  60.4761180  55.8913070  36.7254340  60.9274000  61.9489310
  37.2491820  60.4336650  61.3179480  37.3113760  61.0624360  62.6936880
  36.9044060  61.0113870  65.4708860  35.9546770  60.9777410  65.5853850
  37.0857070  61.9213980  65.2358630  22.7588500  59.2615550  54.5807490
  23.4680200  58.8398770  54.0954770  22.0428440  59.3290780  53.9490840
  22.4062660  55.3154880  53.6210140  23.1290790  55.8563820  53.9391360
  22.6787180  55.0418300  52.7451680  36.2154310  60.1847350  57.8881720
  36.7113430  59.9518220  58.6730600  36.0170380  59.3459190  57.4719360
  22.0954850  54.5661070  63.5232760  22.7431040  54.0158450  63.0827920
  22.5156690  54.8204220  64.3448570  37.6441470  58.8208300  60.4219400
  37.5340750  58.6664340  61.3601670  38.4049060  58.2929240  60.1794810
  35.9907190  54.7602430  66.8802400  36.6279410  55.3736570  67.2461590
  36.1382080  54.7963090  65.9351630  38.5331740  56.6516220  53.6625540
  39.4581050  56.5197400  53.4543830  38.5107530  56.7309040  54.6161990
  38.6070230  57.4226880  56.2882250  37.8121730  57.3572000  56.8175160
  38.8113510  58.3577520  56.2767600  35.5488650  71.4618430  60.2820640
  36.1447720  71.1403000  59.6055060  35.8066800  70.9890250  61.0733910
  21.8486850  54.7216740  66.2658080  21.5001670  55.1780560  67.0316260
  21.5174550  53.8273870  66.3480510  23.4551220  67.8936340  70.4311270
  23.4120850  67.5229250  71.3125730  23.5862230  68.8313910  70.5713090
  27.1557250  69.4495930  66.0320990  26.9148610  69.7170490  65.1451510
  28.0959890  69.6201660  66.0871850  29.3611670  55.9128620  69.7877500
  29.3000560  56.5050450  70.5372910  30.3012050  55.8054580  69.6427760
  31.9986230  55.5698680  69.4269790  32.6126640  55.8877970  68.7650870
  32.5435790  55.0847270  70.0465650  38.4161410  71.4690310  66.8331630
  37.9219690  71.8659180  66.1158760  37.8074700  70.8439520  67.2268910
  22.5207490  54.2492940  69.5408850  23.0690480  54.0680990  68.7774960
  22.5862800  53.4587050  70.0765160  23.2939250  70.8398590  67.5509050
  22.6999570  70.7083290  68.2899090  23.2863090  70.0036730  67.0851150
  32.7394270  54.1330820  65.7539080  31.8654110  54.4665930  65.5512010
  32.6305020  53.6604000  66.5790950  33.6466250  56.3401690  67.1380800
  33.3179610  55.5253450  66.7582530  34.5948550  56.2971500  67.0146490
  36.1000860  72.1113730  64.1118370  35.6403830  72.8629540  63.7376390
  35.4713320  71.3920200  64.0533170  22.9251480  68.2056970  66.5017090
  22.1985540  67.5862260  66.4343040  22.9860630  68.5997580  65.6315170
  26.5296580  70.4201970  63.2866500  27.0461600  69.8089330  62.7614760
  27.1793960  70.9230750  63.7777510  29.2692080  71.3110460  64.1135480
  29.5569890  71.0564760  63.2368490  29.7815300  70.7587820  64.7041050
  30.4869090  55.0500660  64.6931990  29.7040880  55.5246160  64.9728750
  30.1932020  54.1455490  64.5845170  35.0390160  55.7523760  62.7381080
  35.4798250  55.6968860  61.8902680  34.7697750  56.6681770  62.8091260
  36.9028730  55.3839000  60.7489900  36.8417130  54.4400220  60.6020920
  37.6820760  55.4919090  61.2943360  21.2081480  71.5231360  59.7113850
  21.0403520  70.8902040  60.4095740  20.3415990  71.7290760  59.3608040
  21.8309500  55.3548140  57.2145710  22.5888860  55.4677020  56.6409740
  21.3686670  56.1917340  57.1689140  28.3723310  57.4687410  60.2048020
  27.5597820  57.0944300  59.8643900  28.8764950  56.7132490  60.5069210
  32.8748290  54.1329860  61.4431090  33.4777660  54.7050070  61.9179610
  32.1341280  54.6969300  61.2204990  36.0182890  54.5351420  56.7171370
  36.2133520  55.4334870  56.9838800  35.2312760  54.3038500  57.2104320
  22.8144180  70.2164590  57.1563990  22.2891800  70.5972620  56.4525950
  22.7388760  70.8415360  57.8773700  24.2034650  55.8812190  55.7547680
  24.7327410  55.0941990  55.6255630  24.8362970  56.5603380  55.9883210
  26.3972490  55.6187330  58.8093070  25.7675230  54.9174640  58.9763200
  25.8577630  56.3791460  58.5926230  29.3364440  72.2326560  71.4803680
  30.2631750  71.9970830  71.5239640  29.3214870  73.0598560  70.9989710
  37.5709500  71.7752130  58.4777930  37.7461690  71.0889870  57.8338850
  36.8731070  72.2999180  58.0854600  26.5228050  54.8971310  71.2445560
  26.2412320  55.4004910  70.4806380  26.9047750  54.0993060  70.8787690
  25.4137150  72.1646970  56.0313240  26.1455970  71.8806250  55.4837130
  25.6730820  71.9260250  56.9212620  24.5751940  68.2811700  56.0359570
  23.9460820  68.7496800  56.5845400  24.6899770  67.4360920  56.4705760
  33.1243510  54.3124890  71.8226030  33.0108960  54.6319500  72.7177550
  33.9413250  54.7137400  71.5263310  35.9042000  71.4596420  71.3044720
  36.6967320  70.9645650  71.0970680  36.1975150  72.1386560  71.9120330
  32.0301660  62.3317360  42.1860770  31.9495710  61.4171970  41.9152480
  31.6166080  62.8284430  41.4800480  30.1619700  64.1096380  44.0670040
  29.3861800  63.6296820  44.3568610  30.8132630  63.4302030  43.8926200
  24.1785530  64.4216190  44.9445800  23.3470410  64.1664900  45.3442310
  24.7866510  64.4926960  45.6803720  34.1827130  68.5156570  42.8469170
  33.7208660  67.7443810  43.1756340  34.9952680  68.5422640  43.3521620
  24.1586790  68.4556280  45.1403820  24.4614830  67.5654020  44.9614040
  24.9030380  69.0126500  44.9126070  22.5877480  59.3818080  38.7288190
  21.6994180  59.7234050  38.6268070  22.8718670  59.1818400  37.8369020
  20.5510490  61.9823730  44.6127890  21.1226600  61.2145930  44.6131530
  20.5512030  62.2812490  43.7034500  30.4090440  70.8014580  42.4673160
  29.7901880  71.2572080  41.8967600  31.2642220  70.9566040  42.0662860
  29.6028690  66.7853570  44.0740200  29.5336970  65.8443510  43.9129330
  30.3648550  66.8754980  44.6462770  21.7935360  57.3908090  46.3996820
  21.6138200  56.4933840  46.6799580  21.3915440  57.9379960  47.0743770
  30.6333860  59.5923950  44.3009130  31.0098680  58.7195830  44.1882800
  30.5353370  59.9282650  43.4099570  24.7638870  57.9649580  39.7626570
  24.8705620  58.8653310  40.0695330  23.8531230  57.9167550  39.4721220
  34.4157980  57.0874390  41.2337470  35.2367600  56.5970960  41.2762950
  34.4492060  57.6772050  41.9869310  22.4122030  59.8868590  45.0079160
  23.0932140  60.1506960  45.6266560  22.0970080  59.0469460  45.3417170
  26.6046600  60.9335950  44.0951750  27.1124820  61.4316920  44.7356770
  27.1359840  60.1571150  43.9191110  38.7057530  59.1041140  47.7981100
  38.0009700  59.4922850  47.2796210  38.9715450  59.7991430  48.4002030
  24.8882700  55.5734510  48.3615170  24.8901140  56.0906900  47.5561070
  24.0587010  55.0964690  48.3385100  31.2753790  65.6853820  39.8605070
  30.6571060  66.1503270  39.2967790  31.7877040  66.3781300  40.2774580
  26.1385550  65.2129690  46.5388670  25.8054930  65.8398610  47.1809740
  26.3152230  65.7391570  45.7590340  34.6519460  59.0274770  44.0065010
  33.9475030  59.3159660  44.5868120  35.0131620  59.8374880  43.6464570
  24.5698030  57.2844470  46.3685620  24.9114840  58.1286520  46.0739490
  23.6313840  57.4328210  46.4850960  25.3504650  67.1810490  48.3537850
  25.9678650  67.8561570  48.0722300  24.4897770  67.5898470  48.2625350
  20.6436990  66.3710350  37.2344700  20.2664970  66.8597450  36.5029600
  20.9010060  67.0435630  37.8651230  36.2682240  68.6449900  46.2692490
  35.5845760  69.3149010  46.2609160  36.8076530  68.8430550  45.5037350
  37.7206380  58.4729560  44.3974220  36.7731290  58.5068540  44.5289650
  38.0456370  59.2868510  44.7823580  28.2525920  54.7726740  42.6930210
  28.5600900  54.2173630  41.9765710  27.3226620  54.9071200  42.5103200
  33.8040980  70.4894030  44.9837670  33.8168140  70.0856320  44.1159930
  33.2516200  71.2641320  44.8799100  35.0986400  67.2110250  40.0727840
  34.9882730  66.2684580  40.1977260  35.0954650  67.5725890  40.9590600
  33.2026420  65.3923870  46.3120280  33.6195210  65.1783980  45.4773740
  33.9266240  65.6496660  46.8828900  30.6406680  62.8375570  39.4290330
  29.7135960  62.7712950  39.6578800  30.7931500  63.7755700  39.3145570
  30.6275760  59.1092570  36.4257490  29.6879430  59.2706530  36.5109950
  30.9459020  59.8278250  35.8793480  37.1488520  63.7911090  46.4036520
  36.3207150  63.8604180  45.9286650  37.7439000  64.3765400  45.9352350
  34.6703970  64.3995870  39.9325580  34.0516390  64.0615420  39.2851880
  34.6528420  63.7555630  40.6404770  34.1130530  60.5780410  47.3491390
  33.7001710  61.4034120  47.6031380  33.3806480  59.9925450  47.1567750
  26.2463320  63.3640310  42.2110060  25.8420320  62.6517560  41.7155960
  26.3326440  63.0193550  43.0998100  26.7145020  67.0507870  44.3749270
  26.4173310  66.4453340  43.6957050  27.6644840  67.0885180  44.2638630
  24.9591940  60.1383520  45.9909100  25.5106530  60.2478860  45.2162350
  25.4735450  60.5121120  46.7064330  34.8030630  70.6239740  48.0372370
  34.3261190  71.4311930  47.8444980  34.1192420  69.9718070  48.1898580
  25.8063450  66.7889560  51.0257070  24.9091980  67.0129530  51.2730470
  25.8316320  66.9124500  50.0768470  32.8468670  63.6382680  36.9398330
  33.2861950  62.8005110  36.7936150  33.5597090  64.2712080  37.0262470
  24.6334670  63.6602880  49.6014440  24.4942440  64.5325680  49.9701840
  23.7516030  63.3175690  49.4562380  30.9564050  68.5778750  40.9079570
  31.3959960  69.3203080  40.4934960  30.8950940  68.8205320  41.8318530
  26.4315020  69.6024580  51.8099590  26.4030450  70.0067530  50.9428020
  26.2679990  68.6734940  51.6471190  36.4285810  54.8925490  35.2539370
  36.1158470  54.9852320  36.1538440  37.1898280  55.4706520  35.2036800
  22.9467950  62.2585290  39.7116710  22.8265550  62.9847380  39.0997980
  22.6368840  61.4888200  39.2344620  38.3829840  70.3851680  53.1063760
  38.8589560  70.8634570  53.7852840  39.0037000  70.3169170  52.3809260
  20.5853320  65.4300430  45.5185350  20.6633740  65.5649200  44.5741070
  21.1995000  64.7216320  45.7113470  21.8300950  67.1300620  41.9291530
  21.4229030  67.2715210  41.0745130  22.7213960  66.8460780  41.7262740
  37.7863090  67.5764530  50.2663770  37.9126150  67.3376410  49.3480950
  37.8284470  66.7449070  50.7385850  31.6479830  71.2792530  48.8358580
  32.1624500  71.1900540  49.6381010  30.8048910  71.6252230  49.1286490
  33.6234230  71.5647870  38.2642580  33.4635370  71.2750810  39.1624410
  33.4580940  70.7888000  37.7287810  26.1022610  71.3446400  40.0414200
  25.9265090  70.4281940  39.8282000  25.2478350  71.7033690  40.2812000
  33.3260360  69.0735430  36.8240580  32.6325520  69.0712720  36.1642860
  34.0683220  68.6494750  36.3934750  32.8910290  70.6998140  40.8989070
  33.3467240  69.9187520  41.2127690  33.2302810  71.4104960  41.4430250
  37.6387100  59.6296990  51.2313510  37.0231370  60.1376660  50.7028970
  37.3183520  58.7295320  51.1739450  20.6412840  66.4714600  48.0579810
  20.8043880  66.0019960  47.2399180  21.1065290  65.9638160  48.7228650
  25.4131610  55.6020360  43.0940380  24.9699760  56.3829900  42.7624900
  25.9716600  55.9250250  43.8011320  29.7001420  58.4688880  48.6975700
  29.2380790  58.6771900  49.5095640  29.2979530  57.6548230  48.3946370
  34.7005930  59.6897830  49.8272360  33.8499520  59.3903580  50.1481430
  34.5407720  59.9339840  48.9156180  31.7955640  61.1899580  51.9271150
  32.1209050  60.3563330  51.5873380  32.5835970  61.7128100  52.0749480
  28.5290430  55.2231060  37.9746210  27.9044610  55.2190930  38.6999520
  28.4420550  54.3562020  37.5782180  27.4507510  56.1467690  44.9529980
  27.7479840  57.0530520  44.8722000  27.9993070  55.6586470  44.3389550
  25.2045830  60.7253930  40.8221630  24.9786750  60.5091100  41.7268250
  24.4238360  61.1582390  40.4767600  32.4343590  60.7317300  39.4212280
  31.8352480  61.4553100  39.2375900  32.9823200  60.6694080  38.6388730
  27.6445040  61.6239510  51.4881900  27.5488640  60.6834240  51.3382300
  28.4877020  61.8454580  51.0929970  31.0408460  59.3680840  41.4515560
  31.4338030  59.6853040  40.6384250  31.4025310  58.4892720  41.5660080
  22.7755580  58.0353180  49.6415680  22.3818970  58.8828390  49.8488460
  22.0873980  57.3979550  49.8324320  29.3500630  58.1188150  52.7112420
  28.6598950  57.9260350  53.3458510  30.0932930  58.4022790  53.2436720
  20.0772630  55.9581640  43.6745760  19.7885680  56.5284500  44.3870740
  20.8218390  55.4786090  44.0376990  20.2642860  59.9001760  34.8848480
  20.1817530  60.8432520  35.0263470  19.9125920  59.7576670  34.0060830
  31.6263600  61.9586590  45.5466340  30.8944720  62.4673400  45.8956440
  31.2287940  61.1416570  45.2455120  28.0640990  58.6340790  43.9518830
  28.0677050  58.1930740  43.1023370  28.9592110  58.9558120  44.0590650
  23.9143370  58.5167280  42.9113040  23.5743420  58.9942510  43.6680090
  23.1520690  58.0632400  42.5514140  28.1261140  59.6352870  36.9425590
  28.2473960  59.5939350  37.8911410  27.7409650  60.4977020  36.7872320
  32.0889510  57.4120270  44.9589280  32.1062250  57.8628920  45.8031130
  31.8405090  56.5125910  45.1722720  27.1382640  61.9454010  36.3408890
  26.5699540  61.4972260  35.7144800  27.8471640  62.3046790  35.8074040
  35.5160260  54.8252450  50.7975660  35.8406030  54.0942110  51.3233640
  35.5516770  54.5066090  49.8956650  22.2151820  65.8466030  50.2175620
  21.8306610  65.2059700  50.8158580  22.5264010  66.5502150  50.7870350
  28.3648960  62.6942570  45.6984240  28.7319090  62.2201140  46.4445580
  28.1754020  63.5684140  46.0392580  21.2289450  57.4386260  41.8277710
  20.9436370  57.0741930  42.6656330  21.1668310  56.7066720  41.2140850
  26.1548330  61.7351210  48.0168450  25.8505400  62.6143190  48.2418810
  27.1094790  61.7951000  48.0525890  24.6830120  65.9412200  38.6135300
  23.9092380  65.4009820  38.4534020  25.4124750  65.4218810  38.2753060
  35.4418100  64.9377560  44.4061690  36.1617220  65.4332850  44.0157800
  35.2399920  64.2595450  43.7615560  30.9028040  56.3315520  38.5491080
  30.0892650  55.8328690  38.4736390  30.7089990  57.1713770  38.1327430
  30.8236900  65.0086620  50.2930690  30.7574210  64.0882290  50.0388280
  30.1942040  65.1062060  51.0075330  33.6176430  60.7035170  36.8453240
  34.5056050  61.0152400  36.6704580  33.5881520  59.8307420  36.4533820
  24.7267520  65.6092580  42.2514110  25.2446190  64.8060840  42.1971000
  24.2751540  65.5471720  43.0930940  29.6137020  66.8758860  37.5241410
  29.9552720  67.6201090  37.0284730  28.7849730  67.1889980  37.8866240
  22.2112060  62.5753950  49.1639810  21.8527000  63.2407800  49.7513150
  21.9166620  61.7437500  49.5352430  25.4125180  63.0338190  52.0479360
  25.1125320  63.1795370  51.1507180  26.1836420  62.4743480  51.9552750
  30.7553630  67.8307190  50.0434490  30.7698170  66.8988150  49.8253400
  30.0478730  67.9166950  50.6824260  35.8890700  62.0147010  36.3133100
  35.8054420  62.4461230  35.4629540  36.6084890  62.4745360  36.7459920
  36.9664840  64.4714530  49.3903070  36.2413030  65.0643310  49.1932460
  37.4940300  64.4638070  48.5916440  36.9177950  68.8689270  39.0415230
  36.2754110  68.2144890  39.3158950  36.5308610  69.2744360  38.2655900
  32.4964430  66.1974700  42.8886920  32.8488250  65.6002830  42.2288290
  31.6126760  65.8718930  43.0595170  28.5827710  66.9572390  40.2957330
  29.2698840  67.5041600  40.6764920  27.7960130  67.5013120  40.3306940
  20.7220110  62.5745210  35.7874410  21.5914960  62.8570010  36.0710330
  20.2310430  63.3881080  35.6723220  27.8854920  63.9618420  39.9082690
  28.3417700  64.7723670  40.1342880  27.5343130  63.6441560  40.7401180
  30.1887530  69.4724760  47.1374990  30.8329750  69.6784140  47.8148410
  30.5516970  68.7113160  46.6845840  23.7866700  54.3056070  40.3805210
  23.6581330  54.2973970  41.3290130  22.9628720  54.6439160  40.0296220
  31.4619610  67.4757110  45.8552440  32.1041840  66.7750270  45.9684610
  31.9868960  68.2555550  45.6749330  35.3075330  67.7605730  35.5791580
  35.0812910  67.0436170  36.1716220  34.9171530  67.5118170  34.7413330
  33.2357230  68.2752010  49.0588500  33.5713470  68.8618700  49.7366420
  32.3157570  68.1444720  49.2886290  21.0891360  71.7872590  36.3536040
  21.4489000  72.3861930  35.6993310  20.9483700  72.3332480  37.1271070
  20.7860630  56.0647190  49.8411910  20.0719150  56.2644110  50.4464520
  21.2055670  55.2886760  50.2126710  34.8891580  65.6777670  37.2405740
  34.6013280  66.1390360  38.0283620  35.6843750  65.2175440  37.5089960
  21.0733220  70.0527450  50.8278440  21.1824340  69.1122190  50.6873830
  20.4213780  70.3182200  50.1792170  29.0645810  68.3243340  52.2276560
  28.7442680  67.6052580  52.7722250  28.3904170  68.9998410  52.3012620
  27.1059980  69.1703790  37.1709710  27.0970080  69.9033480  36.5554220
  26.1858340  68.9235370  37.2636670  22.7066620  64.3918680  37.9156470
  22.0994570  65.1317580  37.9251770  23.1815970  64.4818040  37.0894670
  32.2799410  58.5569500  47.5913360  32.6480230  57.7364710  47.9192930
  31.4197610  58.6171390  48.0069010  35.6461440  57.5126440  38.4000920
  35.0174600  57.6172110  37.6859150  35.1513360  57.7323220  39.1894800
  30.0919580  69.2332030  35.8334900  30.1931560  69.0296020  34.9036880
  29.1921320  68.9790310  36.0382680  27.6145470  59.7912390  39.8158800
  26.9061620  60.2598730  40.2572410  27.8989950  59.1334400  40.4503990
  29.2401400  61.2109090  47.8151330  29.7386650  61.6854910  48.4803180
  29.3824350  60.2872610  48.0221360  31.6460900  56.5163050  41.2554590
  31.5228680  56.5349180  40.3064100  32.5945460  56.5641990  41.3752990
  28.7337690  71.7518350  40.5282570  28.9879190  71.7139740  39.6061940
  27.7850170  71.6251680  40.5210820  25.8180490  58.0997470  37.1909510
  26.6671020  58.5367620  37.1249700  25.4511760  58.4117730  38.0181570
  36.4468260  57.4277050  48.6579720  35.9441860  58.1682450  48.9973530
  37.2624920  57.8161050  48.3416510  34.7390270  62.6710230  42.1041080
  33.7980410  62.6860460  42.2788770  35.0534340  61.8846190  42.5501380
  24.7171910  64.3529830  35.6645040  25.4835180  64.2411190  36.2270470
  24.7946600  63.6567800  35.0121810  23.4118670  61.7854900  36.3477930
  23.4922260  60.8382410  36.4595330  24.3038420  62.1161780  36.4538590
  36.7415850  69.8419080  43.7795340  36.8663270  70.6650250  44.2519150
  37.6081410  69.6309810  43.4319490  24.2133380  71.9350290  43.4512470
  24.9495860  71.3865750  43.7221040  24.5974300  72.8006300  43.3118460
  21.0978860  68.0023860  39.3253980  20.1718640  68.2445000  39.3159390
  21.5635290  68.8298120  39.2038730  23.2191660  71.1196360  52.6398050
  24.0204390  71.4408410  53.0533450  22.7043480  70.7591940  53.3617960
  27.3235690  71.1080600  35.2738040  28.1164300  71.3969430  34.8219830
  26.8040040  70.6772770  34.5950520  32.0556290  67.2276230  52.5873460
  31.4494450  67.2507830  51.8469210  31.7510400  66.4959270  53.1240710
  33.4856660  70.9556520  51.1982870  34.4378410  70.8714540  51.1483110
  33.3384880  71.6198230  51.8716660  36.3765860  70.3350730  36.6974780
  36.0907370  69.9215870  35.8828960  36.1785410  71.2638440  36.5775300
  20.9389470  63.6069820  51.5834100  21.4428490  63.0277100  52.1550330
  20.1996890  63.8910050  52.1210470  27.8413090  66.3284010  35.1380390
  27.7363730  65.7136360  35.8641770  27.6737310  65.8049900  34.3543400
  27.9927410  65.0140810  51.1169620  27.2273080  65.5825810  51.0324290
  28.1743370  64.7217020  50.2237850  31.0815820  65.3904040  35.7422380
  30.5325920  65.8373340  36.3865120  31.7035080  64.8853290  36.2660050
  35.1350760  66.7446140  51.6744640  35.8760230  67.0821900  51.1712100
  34.3723440  66.9138200  51.1214410  22.9712550  61.7499410  52.4784170
  23.0117890  61.4513280  53.3869400  23.8258050  62.1507020  52.3191690
  26.7490940  64.3494960  37.6387680  27.1707360  64.1834830  38.4819070
  26.8741780  63.5395190  37.1442820  24.9118360  60.3291510  50.4458660
  24.3814820  59.8382460  49.8182000  25.5806430  60.7575710  49.9116590
  29.2618580  63.3732570  34.8864780  29.7824240  62.6581590  34.5205930
  29.9086980  64.0118440  35.1865290  33.8096420  64.7960970  50.2099850
  34.2237440  64.9506050  51.0590270  32.8747420  64.9216190  50.3725630
  34.2818590  62.1357130  52.2139000  34.8639360  61.3809450  52.1259480
  34.4580360  62.6664570  51.4370480  25.3990660  57.2953880  50.5255950
  25.3047530  56.6774630  49.8006820  24.8188050  58.0220170  50.2985860
  28.1652100  55.8527120  47.5583340  27.7169400  55.8751380  46.7128890
  27.5317300  55.4546140  48.1553640  28.5711650  64.7481450  48.1795780
  28.9899760  65.5914180  48.0072020  27.6520280  64.8853490  47.9502560
  30.9075550  62.4797630  49.5633620  31.0271760  61.8838770  50.3028460
  31.7669550  62.5167320  49.1434920  33.2463450  63.0334820  48.1396130
  32.7198670  63.5577440  47.5361270  33.5894790  63.6662210  48.7705860
  25.6449840  60.4228190  34.5845840  25.4438900  59.5595550  34.9459180
  25.4741890  60.3361550  33.6467440  26.4219070  71.0534460  49.2953510
  25.8840160  71.7780520  48.9762210  26.6753030  70.5764800  48.5050850
  27.6744320  59.0218980  50.8209440  28.2644010  58.7134830  51.5087260
  26.8564560  58.5498730  50.9769340  32.4937750  58.6384790  51.0542460
  31.8053270  57.9766330  50.9892450  33.2143770  58.1923060  51.4990920
  33.1238150  55.2336420  37.1132720  33.4040440  54.3904320  37.4692140
  32.3503880  55.4659530  37.6271470  24.4432640  57.5228810  34.5723720
  24.7458540  57.5296240  33.6642870  25.1827230  57.1726670  35.0691380
  29.2781280  72.2885670  49.5540160  29.2039980  73.1920810  49.8612530
  28.3760120  71.9697570  49.5262230  27.6617570  56.4663430  35.5579920
  27.3139570  55.7887420  34.9782370  27.8630340  56.0052940  36.3723310
  29.8266610  71.4544180  37.1766520  30.7217400  71.7929150  37.1985280
  29.8584240  70.7323590  36.5490800  23.4662770  66.8271230  35.4053520
  23.9037640  67.3700900  36.0611100  23.9510500  66.0018180  35.4149860
  20.6808570  69.6160260  42.8573780  21.0111580  68.7481320  42.6252420
  21.1099570  69.8218780  43.6878740  25.2770490  67.9469270  40.5175750
  24.9766030  67.8234240  41.4179660  25.1707980  67.0877860  40.1091480
  21.1698780  70.4830850  45.5955410  20.7329770  70.6631650  46.4279560
  21.7376460  71.2405470  45.4537130  36.8060960  69.9847850  49.8832720
  36.2062950  70.0440410  49.1396640  36.9354860  69.0452830  50.0129570
  38.0462410  67.7265670  35.2202430  37.2155370  67.7942320  35.6909660
  38.2234240  68.6169790  34.9169290  37.5018870  64.4713150  37.7236630
  38.2637780  65.0409800  37.8296320  37.5173240  63.9040350  38.4944940
  21.0023210  62.9951080  41.9544290  20.3472050  62.7262720  41.3103990
  21.8401160  62.8855560  41.5046270  38.5078840  65.3263250  42.5678560
  38.8787670  64.5430570  42.1614530  39.1480770  66.0152350  42.3895860
  35.4912600  66.7099830  47.9808880  34.6772440  67.1396990  48.2434670
  35.8986800  67.3218240  47.3677930  37.5538040  64.7647520  34.8809150
  37.8286880  65.6726400  34.7528370  37.3648780  64.7010050  35.8171140
  33.9513650  57.7892370  36.1762780  34.3698530  57.6023350  35.3359440
  33.6449710  56.9371420  36.4865710  37.4503380  62.7016510  39.8738580
  37.0746980  61.9344440  39.4419870  36.7206500  63.0839210  40.3613510
  22.0399140  63.3803650  46.4947630  22.4072180  63.2931050  47.3743650
  21.4709960  62.6170200  46.3954490  36.8403000  61.8488030  49.5078100
  36.6089090  61.6200780  48.6076050  37.1007550  62.7687580  49.4622990
  21.5915140  60.2912740  50.4006050  20.6971190  60.2579500  50.7399760
  22.1312690  60.4899530  51.1657300  35.2791070  57.0744460  52.2857800
  36.1561250  57.0827860  52.6691800  35.2911910  56.3375300  51.6750150
  20.2161290  60.2050010  37.8969620  19.3125370  60.4680210  37.7221280
  20.7001910  60.4761180  37.1169580  36.7254340  60.9274000  43.1745820
  37.2491820  60.4336650  42.5435990  37.3113760  61.0624360  43.9193390
  36.9044060  61.0113870  46.6965370  35.9546770  60.9777410  46.8110360
  37.0857070  61.9213980  46.4615140  22.7588500  59.2615550  35.8064000
  23.4680200  58.8398770  35.3211280  22.0428440  59.3290780  35.1747350
  22.4062660  55.3154880  34.8466650  23.1290790  55.8563820  35.1647870
  22.6787180  55.0418300  33.9708190  36.2154310  60.1847350  39.1138230
  36.7113430  59.9518220  39.8987110  36.0170380  59.3459190  38.6975870
  22.0954850  54.5661070  44.7489270  22.7431040  54.0158450  44.3084430
  22.5156690  54.8204220  45.5705080  37.6441470  58.8208300  41.6475910
  37.5340750  58.6664340  42.5858180  38.4049060  58.2929240  41.4051320
  35.9907190  54.7602430  48.1058910  36.6279410  55.3736570  48.4718100
  36.1382080  54.7963090  47.1608140  38.5331740  56.6516220  34.8882050
  39.4581050  56.5197400  34.6800340  38.5107530  56.7309040  35.8418500
  38.6070230  57.4226880  37.5138760  37.8121730  57.3572000  38.0431670
  38.8113510  58.3577520  37.5024110  35.5488650  71.4618430  41.5077150
  36.1447720  71.1403000  40.8311570  35.8066800  70.9890250  42.2990420
  21.8486850  54.7216740  47.4914590  21.5001670  55.1780560  48.2572770
  21.5174550  53.8273870  47.5737020  23.4551220  67.8936340  51.6567780
  23.4120850  67.5229250  52.5382240  23.5862230  68.8313910  51.7969600
  27.1557250  69.4495930  47.2577500  26.9148610  69.7170490  46.3708020
  28.0959890  69.6201660  47.3128360  29.3611670  55.9128620  51.0134010
  29.3000560  56.5050450  51.7629420  30.3012050  55.8054580  50.8684270
  31.9986230  55.5698680  50.6526300  32.6126640  55.8877970  49.9907380
  32.5435790  55.0847270  51.2722160  38.4161410  71.4690310  48.0588140
  37.9219690  71.8659180  47.3415270  37.8074700  70.8439520  48.4525420
  22.5207490  54.2492940  50.7665360  23.0690480  54.0680990  50.0031470
  22.5862800  53.4587050  51.3021670  23.2939250  70.8398590  48.7765560
  22.6999570  70.7083290  49.5155600  23.2863090  70.0036730  48.3107660
  32.7394270  54.1330820  46.9795590  31.8654110  54.4665930  46.7768520
  32.6305020  53.6604000  47.8047460  33.6466250  56.3401690  48.3637310
  33.3179610  55.5253450  47.9839040  34.5948550  56.2971500  48.2403000
  36.1000860  72.1113730  45.3374880  35.6403830  72.8629540  44.9632900
  35.4713320  71.3920200  45.2789680  22.9251480  68.2056970  47.7273600
  22.1985540  67.5862260  47.6599550  22.9860630  68.5997580  46.8571680
  26.5296580  70.4201970  44.5123010  27.0461600  69.8089330  43.9871270
  27.1793960  70.9230750  45.0034020  29.2692080  71.3110460  45.3391990
  29.5569890  71.0564760  44.4625000  29.7815300  70.7587820  45.9297560
  30.4869090  55.0500660  45.9188500  29.7040880  55.5246160  46.1985260
  30.1932020  54.1455490  45.8101680  35.0390160  55.7523760  43.9637590
  35.4798250  55.6968860  43.1159190  34.7697750  56.6681770  44.0347770
  36.9028730  55.3839000  41.9746410  36.8417130  54.4400220  41.8277430
  37.6820760  55.4919090  42.5199870  21.2081480  71.5231360  40.9370360
  21.0403520  70.8902040  41.6352250  20.3415990  71.7290760  40.5864550
  21.8309500  55.3548140  38.4402220  22.5888860  55.4677020  37.8666250
  21.3686670  56.1917340  38.3945650  28.3723310  57.4687410  41.4304530
  27.5597820  57.0944300  41.0900410  28.8764950  56.7132490  41.7325720
  32.8748290  54.1329860  42.6687600  33.4777660  54.7050070  43.1436120
  32.1341280  54.6969300  42.4461500  36.0182890  54.5351420  37.9427880
  36.2133520  55.4334870  38.2095310  35.2312760  54.3038500  38.4360830
  22.8144180  70.2164590  38.3820500  22.2891800  70.5972620  37.6782460
  22.7388760  70.8415360  39.1030210  24.2034650  55.8812190  36.9804190
  24.7327410  55.0941990  36.8512140  24.8362970  56.5603380  37.2139720
  26.3972490  55.6187330  40.0349580  25.7675230  54.9174640  40.2019710
  25.8577630  56.3791460  39.8182740  29.3364440  72.2326560  52.7060190
  30.2631750  71.9970830  52.7496150  29.3214870  73.0598560  52.2246220
  37.5709500  71.7752130  39.7034440  37.7461690  71.0889870  39.0595360
  36.8731070  72.2999180  39.3111110  26.5228050  54.8971310  52.4702070
  26.2412320  55.4004910  51.7062890  26.9047750  54.0993060  52.1044200
  25.4137150  72.1646970  37.2569750  26.1455970  71.8806250  36.7093640
  25.6730820  71.9260250  38.1469130  24.5751940  68.2811700  37.2616080
  23.9460820  68.7496800  37.8101910  24.6899770  67.4360920  37.6962270
  33.1243510  54.3124890  53.0482540  33.0108960  54.6319500  53.9434060
  33.9413250  54.7137400  52.7519820  35.9042000  71.4596420  52.5301230
  36.6967320  70.9645650  52.3227190  36.1975150  72.1386560  53.1376840
  32.0301660  62.3317360  23.4117280  31.9495710  61.4171970  23.1408990
  31.6166080  62.8284430  22.7056990  30.1619700  64.1096380  25.2926550
  29.3861800  63.6296820  25.5825120  30.8132630  63.4302030  25.1182710
  24.1785530  64.4216190  26.1702310  23.3470410  64.1664900  26.5698820
  24.7866510  64.4926960  26.9060230  34.1827130  68.5156570  24.0725680
  33.7208660  67.7443810  24.4012850  34.9952680  68.5422640  24.5778130
  24.1586790  68.4556280  26.3660330  24.4614830  67.5654020  26.1870550
  24.9030380  69.0126500  26.1382580  22.5877480  59.3818080  19.9544700
  21.6994180  59.7234050  19.8524580  22.8718670  59.1818400  19.0625530
  20.5510490  61.9823730  25.8384400  21.1226600  61.2145930  25.8388040
  20.5512030  62.2812490  24.9291010  30.4090440  70.8014580  23.6929670
  29.7901880  71.2572080  23.1224110  31.2642220  70.9566040  23.2919370
  29.6028690  66.7853570  25.2996710  29.5336970  65.8443510  25.1385840
  30.3648550  66.8754980  25.8719280  21.7935360  57.3908090  27.6253330
  21.6138200  56.4933840  27.9056090  21.3915440  57.9379960  28.3000280
  30.6333860  59.5923950  25.5265640  31.0098680  58.7195830  25.4139310
  30.5353370  59.9282650  24.6356080  24.7638870  57.9649580  20.9883080
  24.8705620  58.8653310  21.2951840  23.8531230  57.9167550  20.6977730
  34.4157980  57.0874390  22.4593980  35.2367600  56.5970960  22.5019460
  34.4492060  57.6772050  23.2125820  22.4122030  59.8868590  26.2335670
  23.0932140  60.1506960  26.8523070  22.0970080  59.0469460  26.5673680
  26.6046600  60.9335950  25.3208260  27.1124820  61.4316920  25.9613280
  27.1359840  60.1571150  25.1447620  38.7057530  59.1041140  29.0237610
  38.0009700  59.4922850  28.5052720  38.9715450  59.7991430  29.6258540
  24.8882700  55.5734510  29.5871680  24.8901140  56.0906900  28.7817580
  24.0587010  55.0964690  29.5641610  31.2753790  65.6853820  21.0861580
  30.6571060  66.1503270  20.5224300  31.7877040  66.3781300  21.5031090
  26.1385550  65.2129690  27.7645180  25.8054930  65.8398610  28.4066250
  26.3152230  65.7391570  26.9846850  34.6519460  59.0274770  25.2321520
  33.9475030  59.3159660  25.8124630  35.0131620  59.8374880  24.8721080
  24.5698030  57.2844470  27.5942130  24.9114840  58.1286520  27.2996000
  23.6313840  57.4328210  27.7107470  25.3504650  67.1810490  29.5794360
  25.9678650  67.8561570  29.2978810  24.4897770  67.5898470  29.4881860
  20.6436990  66.3710350  18.4601210  20.2664970  66.8597450  17.7286110
  20.9010060  67.0435630  19.0907740  36.2682240  68.6449900  27.4949000
  35.5845760  69.3149010  27.4865670  36.8076530  68.8430550  26.7293860
  37.7206380  58.4729560  25.6230730  36.7731290  58.5068540  25.7546160
  38.0456370  59.2868510  26.0080090  28.2525920  54.7726740  23.9186720
  28.5600900  54.2173630  23.2022220  27.3226620  54.9071200  23.7359710
  33.8040980  70.4894030  26.2094180  33.8168140  70.0856320  25.3416440
  33.2516200  71.2641320  26.1055610  35.0986400  67.2110250  21.2984350
  34.9882730  66.2684580  21.4233770  35.0954650  67.5725890  22.1847110
  33.2026420  65.3923870  27.5376790  33.6195210  65.1783980  26.7030250
  33.9266240  65.6496660  28.1085410  30.6406680  62.8375570  20.6546840
  29.7135960  62.7712950  20.8835310  30.7931500  63.7755700  20.5402080
  30.6275760  59.1092570  17.6514000  29.6879430  59.2706530  17.7366460
  30.9459020  59.8278250  17.1049990  37.1488520  63.7911090  27.6293030
  36.3207150  63.8604180  27.1543160  37.7439000  64.3765400  27.1608860
  34.6703970  64.3995870  21.1582090  34.0516390  64.0615420  20.5108390
  34.6528420  63.7555630  21.8661280  34.1130530  60.5780410  28.5747900
  33.7001710  61.4034120  28.8287890  33.3806480  59.9925450  28.3824260
  26.2463320  63.3640310  23.4366570  25.8420320  62.6517560  22.9412470
  26.3326440  63.0193550  24.3254610  26.7145020  67.0507870  25.6005780
  26.4173310  66.4453340  24.9213560  27.6644840  67.0885180  25.4895140
  24.9591940  60.1383520  27.2165610  25.5106530  60.2478860  26.4418860
  25.4735450  60.5121120  27.9320840  34.8030630  70.6239740  29.2628880
  34.3261190  71.4311930  29.0701490  34.1192420  69.9718070  29.4155090
  25.8063450  66.7889560  32.2513580  24.9091980  67.0129530  32.4986980
  25.8316320  66.9124500  31.3024980  32.8468670  63.6382680  18.1654840
  33.2861950  62.8005110  18.0192660  33.5597090  64.2712080  18.2518980
  24.6334670  63.6602880  30.8270950  24.4942440  64.5325680  31.1958350
  23.7516030  63.3175690  30.6818890  30.9564050  68.5778750  22.1336080
  31.3959960  69.3203080  21.7191470  30.8950940  68.8205320  23.0575040
  26.4315020  69.6024580  33.0356100  26.4030450  70.0067530  32.1684530
  26.2679990  68.6734940  32.8727700  36.4285810  54.8925490  16.4795880
  36.1158470  54.9852320  17.3794950  37.1898280  55.4706520  16.4293310
  22.9467950  62.2585290  20.9373220  22.8265550  62.9847380  20.3254490
  22.6368840  61.4888200  20.4601130  38.3829840  70.3851680  34.3320270
  38.8589560  70.8634570  35.0109350  39.0037000  70.3169170  33.6065770
  20.5853320  65.4300430  26.7441860  20.6633740  65.5649200  25.7997580
  21.1995000  64.7216320  26.9369980  21.8300950  67.1300620  23.1548040
  21.4229030  67.2715210  22.3001640  22.7213960  66.8460780  22.9519250
  37.7863090  67.5764530  31.4920280  37.9126150  67.3376410  30.5737460
  37.8284470  66.7449070  31.9642360  31.6479830  71.2792530  30.0615090
  32.1624500  71.1900540  30.8637520  30.8048910  71.6252230  30.3543000
  33.6234230  71.5647870  19.4899090  33.4635370  71.2750810  20.3880920
  33.4580940  70.7888000  18.9544320  26.1022610  71.3446400  21.2670710
  25.9265090  70.4281940  21.0538510  25.2478350  71.7033690  21.5068510
  33.3260360  69.0735430  18.0497090  32.6325520  69.0712720  17.3899370
  34.0683220  68.6494750  17.6191260  32.8910290  70.6998140  22.1245580
  33.3467240  69.9187520  22.4384200  33.2302810  71.4104960  22.6686760
  37.6387100  59.6296990  32.4570020  37.0231370  60.1376660  31.9285480
  37.3183520  58.7295320  32.3995960  20.6412840  66.4714600  29.2836320
  20.8043880  66.0019960  28.4655690  21.1065290  65.9638160  29.9485160
  25.4131610  55.6020360  24.3196890  24.9699760  56.3829900  23.9881410
  25.9716600  55.9250250  25.0267830  29.7001420  58.4688880  29.9232210
  29.2380790  58.6771900  30.7352150  29.2979530  57.6548230  29.6202880
  34.7005930  59.6897830  31.0528870  33.8499520  59.3903580  31.3737940
  34.5407720  59.9339840  30.1412690  31.7955640  61.1899580  33.1527660
  32.1209050  60.3563330  32.8129890  32.5835970  61.7128100  33.3005990
  28.5290430  55.2231060  19.2002720  27.9044610  55.2190930  19.9256030
  28.4420550  54.3562020  18.8038690  27.4507510  56.1467690  26.1786490
  27.7479840  57.0530520  26.0978510  27.9993070  55.6586470  25.5646060
  25.2045830  60.7253930  22.0478140  24.9786750  60.5091100  22.9524760
  24.4238360  61.1582390  21.7024110  32.4343590  60.7317300  20.6468790
  31.8352480  61.4553100  20.4632410  32.9823200  60.6694080  19.8645240
  27.6445040  61.6239510  32.7138410  27.5488640  60.6834240  32.5638810
  28.4877020  61.8454580  32.3186480  31.0408460  59.3680840  22.6772070
  31.4338030  59.6853040  21.8640760  31.4025310  58.4892720  22.7916590
  22.7755580  58.0353180  30.8672190  22.3818970  58.8828390  31.0744970
  22.0873980  57.3979550  31.0580830  29.3500630  58.1188150  33.9368930
  28.6598950  57.9260350  34.5715020  30.0932930  58.4022790  34.4693230
  20.0772630  55.9581640  24.9002270  19.7885680  56.5284500  25.6127250
  20.8218390  55.4786090  25.2633500  20.2642860  59.9001760  16.1104990
  20.1817530  60.8432520  16.2519980  19.9125920  59.7576670  15.2317340
  31.6263600  61.9586590  26.7722850  30.8944720  62.4673400  27.1212950
  31.2287940  61.1416570  26.4711630  28.0640990  58.6340790  25.1775340
  28.0677050  58.1930740  24.3279880  28.9592110  58.9558120  25.2847160
  23.9143370  58.5167280  24.1369550  23.5743420  58.9942510  24.8936600
  23.1520690  58.0632400  23.7770650  28.1261140  59.6352870  18.1682100
  28.2473960  59.5939350  19.1167920  27.7409650  60.4977020  18.0128830
  32.0889510  57.4120270  26.1845790  32.1062250  57.8628920  27.0287640
  31.8405090  56.5125910  26.3979230  27.1382640  61.9454010  17.5665400
  26.5699540  61.4972260  16.9401310  27.8471640  62.3046790  17.0330550
  35.5160260  54.8252450  32.0232170  35.8406030  54.0942110  32.5490150
  35.5516770  54.5066090  31.1213160  22.2151820  65.8466030  31.4432130
  21.8306610  65.2059700  32.0415090  22.5264010  66.5502150  32.0126860
  28.3648960  62.6942570  26.9240750  28.7319090  62.2201140  27.6702090
  28.1754020  63.5684140  27.2649090  21.2289450  57.4386260  23.0534220
  20.9436370  57.0741930  23.8912840  21.1668310  56.7066720  22.4397360
  26.1548330  61.7351210  29.2424960  25.8505400  62.6143190  29.4675320
  27.1094790  61.7951000  29.2782400  24.6830120  65.9412200  19.8391810
  23.9092380  65.4009820  19.6790530  25.4124750  65.4218810  19.5009570
  35.4418100  64.9377560  25.6318200  36.1617220  65.4332850  25.2414310
  35.2399920  64.2595450  24.9872070  30.9028040  56.3315520  19.7747590
  30.0892650  55.8328690  19.6992900  30.7089990  57.1713770  19.3583940
  30.8236900  65.0086620  31.5187200  30.7574210  64.0882290  31.2644790
  30.1942040  65.1062060  32.2331840  33.6176430  60.7035170  18.0709750
  34.5056050  61.0152400  17.8961090  33.5881520  59.8307420  17.6790330
  24.7267520  65.6092580  23.4770620  25.2446190  64.8060840  23.4227510
  24.2751540  65.5471720  24.3187450  29.6137020  66.8758860  18.7497920
  29.9552720  67.6201090  18.2541240  28.7849730  67.1889980  19.1122750
  22.2112060  62.5753950  30.3896320  21.8527000  63.2407800  30.9769660
  21.9166620  61.7437500  30.7608940  25.4125180  63.0338190  33.2735870
  25.1125320  63.1795370  32.3763690  26.1836420  62.4743480  33.1809260
  30.7553630  67.8307190  31.2691000  30.7698170  66.8988150  31.0509910
  30.0478730  67.9166950  31.9080770  35.8890700  62.0147010  17.5389610
  35.8054420  62.4461230  16.6886050  36.6084890  62.4745360  17.9716430
  36.9664840  64.4714530  30.6159580  36.2413030  65.0643310  30.4188970
  37.4940300  64.4638070  29.8172950  36.9177950  68.8689270  20.2671740
  36.2754110  68.2144890  20.5415460  36.5308610  69.2744360  19.4912410
  32.4964430  66.1974700  24.1143430  32.8488250  65.6002830  23.4544800
  31.6126760  65.8718930  24.2851680  28.5827710  66.9572390  21.5213840
  29.2698840  67.5041600  21.9021430  27.7960130  67.5013120  21.5563450
  20.7220110  62.5745210  17.0130920  21.5914960  62.8570010  17.2966840
  20.2310430  63.3881080  16.8979730  27.8854920  63.9618420  21.1339200
  28.3417700  64.7723670  21.3599390  27.5343130  63.6441560  21.9657690
  30.1887530  69.4724760  28.3631500  30.8329750  69.6784140  29.0404920
  30.5516970  68.7113160  27.9102350  23.7866700  54.3056070  21.6061720
  23.6581330  54.2973970  22.5546640  22.9628720  54.6439160  21.2552730
  31.4619610  67.4757110  27.0808950  32.1041840  66.7750270  27.1941120
  31.9868960  68.2555550  26.9005840  35.3075330  67.7605730  16.8048090
  35.0812910  67.0436170  17.3972730  34.9171530  67.5118170  15.9669840
  33.2357230  68.2752010  30.2845010  33.5713470  68.8618700  30.9622930
  32.3157570  68.1444720  30.5142800  21.0891360  71.7872590  17.5792550
  21.4489000  72.3861930  16.9249820  20.9483700  72.3332480  18.3527580
  20.7860630  56.0647190  31.0668420  20.0719150  56.2644110  31.6721030
  21.2055670  55.2886760  31.4383220  34.8891580  65.6777670  18.4662250
  34.6013280  66.1390360  19.2540130  35.6843750  65.2175440  18.7346470
  21.0733220  70.0527450  32.0534950  21.1824340  69.1122190  31.9130340
  20.4213780  70.3182200  31.4048680  29.0645810  68.3243340  33.4533070
  28.7442680  67.6052580  33.9978760  28.3904170  68.9998410  33.5269130
  27.1059980  69.1703790  18.3966220  27.0970080  69.9033480  17.7810730
  26.1858340  68.9235370  18.4893180  22.7066620  64.3918680  19.1412980
  22.0994570  65.1317580  19.1508280  23.1815970  64.4818040  18.3151180
  32.2799410  58.5569500  28.8169870  32.6480230  57.7364710  29.1449440
  31.4197610  58.6171390  29.2325520  35.6461440  57.5126440  19.6257430
  35.0174600  57.6172110  18.9115660  35.1513360  57.7323220  20.4151310
  30.0919580  69.2332030  17.0591410  30.1931560  69.0296020  16.1293390
  29.1921320  68.9790310  17.2639190  27.6145470  59.7912390  21.0415310
  26.9061620  60.2598730  21.4828920  27.8989950  59.1334400  21.6760500
  29.2401400  61.2109090  29.0407840  29.7386650  61.6854910  29.7059690
  29.3824350  60.2872610  29.2477870  31.6460900  56.5163050  22.4811100
  31.5228680  56.5349180  21.5320610  32.5945460  56.5641990  22.6009500
  28.7337690  71.7518350  21.7539080  28.9879190  71.7139740  20.8318450
  27.7850170  71.6251680  21.7467330  25.8180490  58.0997470  18.4166020
  26.6671020  58.5367620  18.3506210  25.4511760  58.4117730  19.2438080
  36.4468260  57.4277050  29.8836230  35.9441860  58.1682450  30.2230040
  37.2624920  57.8161050  29.5673020  34.7390270  62.6710230  23.3297590
  33.7980410  62.6860460  23.5045280  35.0534340  61.8846190  23.7757890
  24.7171910  64.3529830  16.8901550  25.4835180  64.2411190  17.4526980
  24.7946600  63.6567800  16.2378320  23.4118670  61.7854900  17.5734440
  23.4922260  60.8382410  17.6851840  24.3038420  62.1161780  17.6795100
  36.7415850  69.8419080  25.0051850  36.8663270  70.6650250  25.4775660
  37.6081410  69.6309810  24.6576000  24.2133380  71.9350290  24.6768980
  24.9495860  71.3865750  24.9477550  24.5974300  72.8006300  24.5374970
  21.0978860  68.0023860  20.5510490  20.1718640  68.2445000  20.5415900
  21.5635290  68.8298120  20.4295240  23.2191660  71.1196360  33.8654560
  24.0204390  71.4408410  34.2789960  22.7043480  70.7591940  34.5874470
  27.3235690  71.1080600  16.4994550  28.1164300  71.3969430  16.0476340
  26.8040040  70.6772770  15.8207030  32.0556290  67.2276230  33.8129970
  31.4494450  67.2507830  33.0725720  31.7510400  66.4959270  34.3497220
  33.4856660  70.9556520  32.4239380  34.4378410  70.8714540  32.3739620
  33.3384880  71.6198230  33.0973170  36.3765860  70.3350730  17.9231290
  36.0907370  69.9215870  17.1085470  36.1785410  71.2638440  17.8031810
  20.9389470  63.6069820  32.8090610  21.4428490  63.0277100  33.3806840
  20.1996890  63.8910050  33.3466980  27.8413090  66.3284010  16.3636900
  27.7363730  65.7136360  17.0898280  27.6737310  65.8049900  15.5799910
  27.9927410  65.0140810  32.3426130  27.2273080  65.5825810  32.2580800
  28.1743370  64.7217020  31.4494360  31.0815820  65.3904040  16.9678890
  30.5325920  65.8373340  17.6121630  31.7035080  64.8853290  17.4916560
  35.1350760  66.7446140  32.9001150  35.8760230  67.0821900  32.3968610
  34.3723440  66.9138200  32.3470920  22.9712550  61.7499410  33.7040680
  23.0117890  61.4513280  34.6125910  23.8258050  62.1507020  33.5448200
  26.7490940  64.3494960  18.8644190  27.1707360  64.1834830  19.7075580
  26.8741780  63.5395190  18.3699330  24.9118360  60.3291510  31.6715170
  24.3814820  59.8382460  31.0438510  25.5806430  60.7575710  31.1373100
  29.2618580  63.3732570  16.1121290  29.7824240  62.6581590  15.7462440
  29.9086980  64.0118440  16.4121800  33.8096420  64.7960970  31.4356360
  34.2237440  64.9506050  32.2846780  32.8747420  64.9216190  31.5982140
  34.2818590  62.1357130  33.4395510  34.8639360  61.3809450  33.3515990
  34.4580360  62.6664570  32.6626990  25.3990660  57.2953880  31.7512460
  25.3047530  56.6774630  31.0263330  24.8188050  58.0220170  31.5242370
  28.1652100  55.8527120  28.7839850  27.7169400  55.8751380  27.9385400
  27.5317300  55.4546140  29.3810150  28.5711650  64.7481450  29.4052290
  28.9899760  65.5914180  29.2328530  27.6520280  64.8853490  29.1759070
  30.9075550  62.4797630  30.7890130  31.0271760  61.8838770  31.5284970
  31.7669550  62.5167320  30.3691430  33.2463450  63.0334820  29.3652640
  32.7198670  63.5577440  28.7617780  33.5894790  63.6662210  29.9962370
  25.6449840  60.4228190  15.8102350  25.4438900  59.5595550  16.1715690
  25.4741890  60.3361550  14.8723950  26.4219070  71.0534460  30.5210020
  25.8840160  71.7780520  30.2018720  26.6753030  70.5764800  29.7307360
  27.6744320  59.0218980  32.0465950  28.2644010  58.7134830  32.7343770
  26.8564560  58.5498730  32.2025850  32.4937750  58.6384790  32.2798970
  31.8053270  57.9766330  32.2148960  33.2143770  58.1923060  32.7247430
  33.1238150  55.2336420  18.3389230  33.4040440  54.3904320  18.6948650
  32.3503880  55.4659530  18.8527980  24.4432640  57.5228810  15.7980230
  24.7458540  57.5296240  14.8899380  25.1827230  57.1726670  16.2947890
  29.2781280  72.2885670  30.7796670  29.2039980  73.1920810  31.0869040
  28.3760120  71.9697570  30.7518740  27.6617570  56.4663430  16.7836430
  27.3139570  55.7887420  16.2038880  27.8630340  56.0052940  17.5979820
  29.8266610  71.4544180  18.4023030  30.7217400  71.7929150  18.4241790
  29.8584240  70.7323590  17.7747310  23.4662770  66.8271230  16.6310030
  23.9037640  67.3700900  17.2867610  23.9510500  66.0018180  16.6406370
  20.6808570  69.6160260  24.0830290  21.0111580  68.7481320  23.8508930
  21.1099570  69.8218780  24.9135250  25.2770490  67.9469270  21.7432260
  24.9766030  67.8234240  22.6436170  25.1707980  67.0877860  21.3347990
  21.1698780  70.4830850  26.8211920  20.7329770  70.6631650  27.6536070
  21.7376460  71.2405470  26.6793640  36.8060960  69.9847850  31.1089230
  36.2062950  70.0440410  30.3653150  36.9354860  69.0452830  31.2386080
  38.0462410  67.7265670  16.4458940  37.2155370  67.7942320  16.9166170
  38.2234240  68.6169790  16.1425800  37.5018870  64.4713150  18.9493140
  38.2637780  65.0409800  19.0552830  37.5173240  63.9040350  19.7201450
  21.0023210  62.9951080  23.1800800  20.3472050  62.7262720  22.5360500
  21.8401160  62.8855560  22.7302780  38.5078840  65.3263250  23.7935070
  38.8787670  64.5430570  23.3871040  39.1480770  66.0152350  23.6152370
  35.4912600  66.7099830  29.2065390  34.6772440  67.1396990  29.4691180
  35.8986800  67.3218240  28.5934440  37.5538040  64.7647520  16.1065660
  37.8286880  65.6726400  15.9784880  37.3648780  64.7010050  17.0427650
  33.9513650  57.7892370  17.4019290  34.3698530  57.6023350  16.5615950
  33.6449710  56.9371420  17.7122220  37.4503380  62.7016510  21.0995090
  37.0746980  61.9344440  20.6676380  36.7206500  63.0839210  21.5870020
  22.0399140  63.3803650  27.7204140  22.4072180  63.2931050  28.6000160
  21.4709960  62.6170200  27.6211000  36.8403000  61.8488030  30.7334610
  36.6089090  61.6200780  29.8332560  37.1007550  62.7687580  30.6879500
  21.5915140  60.2912740  31.6262560  20.6971190  60.2579500  31.9656270
  22.1312690  60.4899530  32.3913810  35.2791070  57.0744460  33.5114310
  36.1561250  57.0827860  33.8948310  35.2911910  56.3375300  32.9006660
  20.2161290  60.2050010  19.1226130  19.3125370  60.4680210  18.9477790
  20.7001910  60.4761180  18.3426090  36.7254340  60.9274000  24.4002330
  37.2491820  60.4336650  23.7692500  37.3113760  61.0624360  25.1449900
  36.9044060  61.0113870  27.9221880  35.9546770  60.9777410  28.0366870
  37.0857070  61.9213980  27.6871650  22.7588500  59.2615550  17.0320510
  23.4680200  58.8398770  16.5467790  22.0428440  59.3290780  16.4003860
  22.4062660  55.3154880  16.0723160  23.1290790  55.8563820  16.3904380
  22.6787180  55.0418300  15.1964700  36.2154310  60.1847350  20.3394740
  36.7113430  59.9518220  21.1243620  36.0170380  59.3459190  19.9232380
  22.0954850  54.5661070  25.9745780  22.7431040  54.0158450  25.5340940
  22.5156690  54.8204220  26.7961590  37.6441470  58.8208300  22.8732420
  37.5340750  58.6664340  23.8114690  38.4049060  58.2929240  22.6307830
  35.9907190  54.7602430  29.3315420  36.6279410  55.3736570  29.6974610
  36.1382080  54.7963090  28.3864650  38.5331740  56.6516220  16.1138560
  39.4581050  56.5197400  15.9056850  38.5107530  56.7309040  17.0675010
  38.6070230  57.4226880  18.7395270  37.8121730  57.3572000  19.2688180
  38.8113510  58.3577520  18.7280620  35.5488650  71.4618430  22.7333660
  36.1447720  71.1403000  22.0568080  35.8066800  70.9890250  23.5246930
  21.8486850  54.7216740  28.7171100  21.5001670  55.1780560  29.4829280
  21.5174550  53.8273870  28.7993530  23.4551220  67.8936340  32.8824290
  23.4120850  67.5229250  33.7638750  23.5862230  68.8313910  33.0226110
  27.1557250  69.4495930  28.4834010  26.9148610  69.7170490  27.5964530
  28.0959890  69.6201660  28.5384870  29.3611670  55.9128620  32.2390520
  29.3000560  56.5050450  32.9885930  30.3012050  55.8054580  32.0940780
  31.9986230  55.5698680  31.8782810  32.6126640  55.8877970  31.2163890
  32.5435790  55.0847270  32.4978670  38.4161410  71.4690310  29.2844650
  37.9219690  71.8659180  28.5671780  37.8074700  70.8439520  29.6781930
  22.5207490  54.2492940  31.9921870  23.0690480  54.0680990  31.2287980
  22.5862800  53.4587050  32.5278180  23.2939250  70.8398590  30.0022070
  22.6999570  70.7083290  30.7412110  23.2863090  70.0036730  29.5364170
  32.7394270  54.1330820  28.2052100  31.8654110  54.4665930  28.0025030
  32.6305020  53.6604000  29.0303970  33.6466250  56.3401690  29.5893820
  33.3179610  55.5253450  29.2095550  34.5948550  56.2971500  29.4659510
  36.1000860  72.1113730  26.5631390  35.6403830  72.8629540  26.1889410
  35.4713320  71.3920200  26.5046190  22.9251480  68.2056970  28.9530110
  22.1985540  67.5862260  28.8856060  22.9860630  68.5997580  28.0828190
  26.5296580  70.4201970  25.7379520  27.0461600  69.8089330  25.2127780
  27.1793960  70.9230750  26.2290530  29.2692080  71.3110460  26.5648500
  29.5569890  71.0564760  25.6881510  29.7815300  70.7587820  27.1554070
  30.4869090  55.0500660  27.1445010  29.7040880  55.5246160  27.4241770
  30.1932020  54.1455490  27.0358190  35.0390160  55.7523760  25.1894100
  35.4798250  55.6968860  24.3415700  34.7697750  56.6681770  25.2604280
  36.9028730  55.3839000  23.2002920  36.8417130  54.4400220  23.0533940
  37.6820760  55.4919090  23.7456380  21.2081480  71.5231360  22.1626870
  21.0403520  70.8902040  22.8608760  20.3415990  71.7290760  21.8121060
  21.8309500  55.3548140  19.6658730  22.5888860  55.4677020  19.0922760
  21.3686670  56.1917340  19.6202160  28.3723310  57.4687410  22.6561040
  27.5597820  57.0944300  22.3156920  28.8764950  56.7132490  22.9582230
  32.8748290  54.1329860  23.8944110  33.4777660  54.7050070  24.3692630
  32.1341280  54.6969300  23.6718010  36.0182890  54.5351420  19.1684390
  36.2133520  55.4334870  19.4351820  35.2312760  54.3038500  19.6617340
  22.8144180  70.2164590  19.6077010  22.2891800  70.5972620  18.9038970
  22.7388760  70.8415360  20.3286720  24.2034650  55.8812190  18.2060700
  24.7327410  55.0941990  18.0768650  24.8362970  56.5603380  18.4396230
  26.3972490  55.6187330  21.2606090  25.7675230  54.9174640  21.4276220
  25.8577630  56.3791460  21.0439250  29.3364440  72.2326560  33.9316700
  30.2631750  71.9970830  33.9752660  29.3214870  73.0598560  33.4502730
  37.5709500  71.7752130  20.9290950  37.7461690  71.0889870  20.2851870
  36.8731070  72.2999180  20.5367620  26.5228050  54.8971310  33.6958580
  26.2412320  55.4004910  32.9319400  26.9047750  54.0993060  33.3300710
  25.4137150  72.1646970  18.4826260  26.1455970  71.8806250  17.9350150
  25.6730820  71.9260250  19.3725640  24.5751940  68.2811700  18.4872590
  23.9460820  68.7496800  19.0358420  24.6899770  67.4360920  18.9218780
  33.1243510  54.3124890  34.2739050  33.0108960  54.6319500  35.1690570
  33.9413250  54.7137400  33.9776330  35.9042000  71.4596420  33.7557740
  36.6967320  70.9645650  33.5483700  36.1975150  72.1386560  34.3633350
  32.0301660  62.3317360   4.6373790  31.9495710  61.4171970   4.3665500
  31.6166080  62.8284430   3.9313500  30.1619700  64.1096380   6.5183060
  29.3861800  63.6296820   6.8081630  30.8132630  63.4302030   6.3439220
  24.1785530  64.4216190   7.3958820  23.3470410  64.1664900   7.7955330
  24.7866510  64.4926960   8.1316740  34.1827130  68.5156570   5.2982190
  33.7208660  67.7443810   5.6269360  34.9952680  68.5422640   5.8034640
  24.1586790  68.4556280   7.5916840  24.4614830  67.5654020   7.4127060
  24.9030380  69.0126500   7.3639090  20.5510490  61.9823730   7.0640910
  21.1226600  61.2145930   7.0644550  20.5512030  62.2812490   6.1547520
  30.4090440  70.8014580   4.9186180  29.7901880  71.2572080   4.3480620
  31.2642220  70.9566040   4.5175880  29.6028690  66.7853570   6.5253220
  29.5336970  65.8443510   6.3642350  30.3648550  66.8754980   7.0975790
  21.7935360  57.3908090   8.8509840  21.6138200  56.4933840   9.1312600
  21.3915440  57.9379960   9.5256790  30.6333860  59.5923950   6.7522150
  31.0098680  58.7195830   6.6395820  30.5353370  59.9282650   5.8612590
  24.7638870  57.9649580   2.2139590  24.8705620  58.8653310   2.5208350
  23.8531230  57.9167550   1.9234240  34.4157980  57.0874390   3.6850490
  35.2367600  56.5970960   3.7275970  34.4492060  57.6772050   4.4382330
  22.4122030  59.8868590   7.4592180  23.0932140  60.1506960   8.0779580
  22.0970080  59.0469460   7.7930190  26.6046600  60.9335950   6.5464770
  27.1124820  61.4316920   7.1869790  27.1359840  60.1571150   6.3704130
  38.7057530  59.1041140  10.2494120  38.0009700  59.4922850   9.7309230
  38.9715450  59.7991430  10.8515050  24.8882700  55.5734510  10.8128190
  24.8901140  56.0906900  10.0074090  24.0587010  55.0964690  10.7898120
  31.2753790  65.6853820   2.3118090  30.6571060  66.1503270   1.7480810
  31.7877040  66.3781300   2.7287600  26.1385550  65.2129690   8.9901690
  25.8054930  65.8398610   9.6322760  26.3152230  65.7391570   8.2103360
  34.6519460  59.0274770   6.4578030  33.9475030  59.3159660   7.0381140
  35.0131620  59.8374880   6.0977590  24.5698030  57.2844470   8.8198640
  24.9114840  58.1286520   8.5252510  23.6313840  57.4328210   8.9363980
  25.3504650  67.1810490  10.8050870  25.9678650  67.8561570  10.5235320
  24.4897770  67.5898470  10.7138370  36.2682240  68.6449900   8.7205510
  35.5845760  69.3149010   8.7122180  36.8076530  68.8430550   7.9550370
  37.7206380  58.4729560   6.8487240  36.7731290  58.5068540   6.9802670
  38.0456370  59.2868510   7.2336600  28.2525920  54.7726740   5.1443230
  28.5600900  54.2173630   4.4278730  27.3226620  54.9071200   4.9616220
  33.8040980  70.4894030   7.4350690  33.8168140  70.0856320   6.5672950
  33.2516200  71.2641320   7.3312120  35.0986400  67.2110250   2.5240860
  34.9882730  66.2684580   2.6490280  35.0954650  67.5725890   3.4103620
  33.2026420  65.3923870   8.7633300  33.6195210  65.1783980   7.9286760
  33.9266240  65.6496660   9.3341920  30.6406680  62.8375570   1.8803350
  29.7135960  62.7712950   2.1091820  30.7931500  63.7755700   1.7658590
  37.1488520  63.7911090   8.8549540  36.3207150  63.8604180   8.3799670
  37.7439000  64.3765400   8.3865370  34.6703970  64.3995870   2.3838600
  34.0516390  64.0615420   1.7364900  34.6528420  63.7555630   3.0917790
  34.1130530  60.5780410   9.8004410  33.7001710  61.4034120  10.0544400
  33.3806480  59.9925450   9.6080770  26.2463320  63.3640310   4.6623080
  25.8420320  62.6517560   4.1668980  26.3326440  63.0193550   5.5511120
  26.7145020  67.0507870   6.8262290  26.4173310  66.4453340   6.1470070
  27.6644840  67.0885180   6.7151650  24.9591940  60.1383520   8.4422120
  25.5106530  60.2478860   7.6675370  25.4735450  60.5121120   9.1577350
  34.8030630  70.6239740  10.4885390  34.3261190  71.4311930  10.2958000
  34.1192420  69.9718070  10.6411600  25.8063450  66.7889560  13.4770090
  24.9091980  67.0129530  13.7243490  25.8316320  66.9124500  12.5281490
  24.6334670  63.6602880  12.0527460  24.4942440  64.5325680  12.4214860
  23.7516030  63.3175690  11.9075400  30.9564050  68.5778750   3.3592590
  31.3959960  69.3203080   2.9447980  30.8950940  68.8205320   4.2831550
  26.4315020  69.6024580  14.2612610  26.4030450  70.0067530  13.3941040
  26.2679990  68.6734940  14.0984210  38.3829840  70.3851680  15.5576780
  38.8589560  70.8634570  16.2365860  39.0037000  70.3169170  14.8322280
  20.5853320  65.4300430   7.9698370  20.6633740  65.5649200   7.0254090
  21.1995000  64.7216320   8.1626490  21.8300950  67.1300620   4.3804550
  21.4229030  67.2715210   3.5258150  22.7213960  66.8460780   4.1775760
  37.7863090  67.5764530  12.7176790  37.9126150  67.3376410  11.7993970
  37.8284470  66.7449070  13.1898870  31.6479830  71.2792530  11.2871600
  32.1624500  71.1900540  12.0894030  30.8048910  71.6252230  11.5799510
  26.1022610  71.3446400   2.4927220  25.9265090  70.4281940   2.2795020
  25.2478350  71.7033690   2.7325020  32.8910290  70.6998140   3.3502090
  33.3467240  69.9187520   3.6640710  33.2302810  71.4104960   3.8943270
  37.6387100  59.6296990  13.6826530  37.0231370  60.1376660  13.1541990
  37.3183520  58.7295320  13.6252470  20.6412840  66.4714600  10.5092830
  20.8043880  66.0019960   9.6912200  21.1065290  65.9638160  11.1741670
  25.4131610  55.6020360   5.5453400  24.9699760  56.3829900   5.2137920
  25.9716600  55.9250250   6.2524340  29.7001420  58.4688880  11.1488720
  29.2380790  58.6771900  11.9608660  29.2979530  57.6548230  10.8459390
  34.7005930  59.6897830  12.2785380  33.8499520  59.3903580  12.5994450
  34.5407720  59.9339840  11.3669200  31.7955640  61.1899580  14.3784170
  32.1209050  60.3563330  14.0386400  32.5835970  61.7128100  14.5262500
  27.4507510  56.1467690   7.4043000  27.7479840  57.0530520   7.3235020
  27.9993070  55.6586470   6.7902570  25.2045830  60.7253930   3.2734650
  24.9786750  60.5091100   4.1781270  24.4238360  61.1582390   2.9280620
  27.6445040  61.6239510  13.9394920  27.5488640  60.6834240  13.7895320
  28.4877020  61.8454580  13.5442990  31.0408460  59.3680840   3.9028580
  31.4338030  59.6853040   3.0897270  31.4025310  58.4892720   4.0173100
  22.7755580  58.0353180  12.0928700  22.3818970  58.8828390  12.3001480
  22.0873980  57.3979550  12.2837340  29.3500630  58.1188150  15.1625440
  28.6598950  57.9260350  15.7971530  30.0932930  58.4022790  15.6949740
  20.0772630  55.9581640   6.1258780  19.7885680  56.5284500   6.8383760
  20.8218390  55.4786090   6.4890010  31.6263600  61.9586590   7.9979360
  30.8944720  62.4673400   8.3469460  31.2287940  61.1416570   7.6968140
  28.0640990  58.6340790   6.4031850  28.0677050  58.1930740   5.5536390
  28.9592110  58.9558120   6.5103670  23.9143370  58.5167280   5.3626060
  23.5743420  58.9942510   6.1193110  23.1520690  58.0632400   5.0027160
  32.0889510  57.4120270   7.4102300  32.1062250  57.8628920   8.2544150
  31.8405090  56.5125910   7.6235740  35.5160260  54.8252450  13.2488680
  35.8406030  54.0942110  13.7746660  35.5516770  54.5066090  12.3469670
  22.2151820  65.8466030  12.6688640  21.8306610  65.2059700  13.2671600
  22.5264010  66.5502150  13.2383370  28.3648960  62.6942570   8.1497260
  28.7319090  62.2201140   8.8958600  28.1754020  63.5684140   8.4905600
  21.2289450  57.4386260   4.2790730  20.9436370  57.0741930   5.1169350
  21.1668310  56.7066720   3.6653870  26.1548330  61.7351210  10.4681470
  25.8505400  62.6143190  10.6931830  27.1094790  61.7951000  10.5038910
  35.4418100  64.9377560   6.8574710  36.1617220  65.4332850   6.4670820
  35.2399920  64.2595450   6.2128580  30.8236900  65.0086620  12.7443710
  30.7574210  64.0882290  12.4901300  30.1942040  65.1062060  13.4588350
  24.7267520  65.6092580   4.7027130  25.2446190  64.8060840   4.6484020
  24.2751540  65.5471720   5.5443960  22.2112060  62.5753950  11.6152830
  21.8527000  63.2407800  12.2026170  21.9166620  61.7437500  11.9865450
  25.4125180  63.0338190  14.4992380  25.1125320  63.1795370  13.6020200
  26.1836420  62.4743480  14.4065770  30.7553630  67.8307190  12.4947510
  30.7698170  66.8988150  12.2766420  30.0478730  67.9166950  13.1337280
  36.9664840  64.4714530  11.8416090  36.2413030  65.0643310  11.6445480
  37.4940300  64.4638070  11.0429460  32.4964430  66.1974700   5.3399940
  32.8488250  65.6002830   4.6801310  31.6126760  65.8718930   5.5108190
  28.5827710  66.9572390   2.7470350  29.2698840  67.5041600   3.1277940
  27.7960130  67.5013120   2.7819960  27.8854920  63.9618420   2.3595710
  28.3417700  64.7723670   2.5855900  27.5343130  63.6441560   3.1914200
  30.1887530  69.4724760   9.5888010  30.8329750  69.6784140  10.2661430
  30.5516970  68.7113160   9.1358860  23.7866700  54.3056070   2.8318230
  23.6581330  54.2973970   3.7803150  22.9628720  54.6439160   2.4809240
  31.4619610  67.4757110   8.3065460  32.1041840  66.7750270   8.4197630
  31.9868960  68.2555550   8.1262350  33.2357230  68.2752010  11.5101520
  33.5713470  68.8618700  12.1879440  32.3157570  68.1444720  11.7399310
  20.7860630  56.0647190  12.2924930  20.0719150  56.2644110  12.8977540
  21.2055670  55.2886760  12.6639730  21.0733220  70.0527450  13.2791460
  21.1824340  69.1122190  13.1386850  20.4213780  70.3182200  12.6305190
  29.0645810  68.3243340  14.6789580  28.7442680  67.6052580  15.2235270
  28.3904170  68.9998410  14.7525640  32.2799410  58.5569500  10.0426380
  32.6480230  57.7364710  10.3705950  31.4197610  58.6171390  10.4582030
  27.6145470  59.7912390   2.2671820  26.9061620  60.2598730   2.7085430
  27.8989950  59.1334400   2.9017010  29.2401400  61.2109090  10.2664350
  29.7386650  61.6854910  10.9316200  29.3824350  60.2872610  10.4734380
  31.6460900  56.5163050   3.7067610  31.5228680  56.5349180   2.7577120
  32.5945460  56.5641990   3.8266010  28.7337690  71.7518350   2.9795590
  28.9879190  71.7139740   2.0574960  27.7850170  71.6251680   2.9723840
  36.4468260  57.4277050  11.1092740  35.9441860  58.1682450  11.4486550
  37.2624920  57.8161050  10.7929530  34.7390270  62.6710230   4.5554100
  33.7980410  62.6860460   4.7301790  35.0534340  61.8846190   5.0014400
  36.7415850  69.8419080   6.2308360  36.8663270  70.6650250   6.7032170
  37.6081410  69.6309810   5.8832510  24.2133380  71.9350290   5.9025490
  24.9495860  71.3865750   6.1734060  24.5974300  72.8006300   5.7631480
  21.0978860  68.0023860   1.7767000  20.1718640  68.2445000   1.7672410
  21.5635290  68.8298120   1.6551750  23.2191660  71.1196360  15.0911070
  24.0204390  71.4408410  15.5046470  22.7043480  70.7591940  15.8130980
  32.0556290  67.2276230  15.0386480  31.4494450  67.2507830  14.2982230
  31.7510400  66.4959270  15.5753730  33.4856660  70.9556520  13.6495890
  34.4378410  70.8714540  13.5996130  33.3384880  71.6198230  14.3229680
  20.9389470  63.6069820  14.0347120  21.4428490  63.0277100  14.6063350
  20.1996890  63.8910050  14.5723490  27.9927410  65.0140810  13.5682640
  27.2273080  65.5825810  13.4837310  28.1743370  64.7217020  12.6750870
  35.1350760  66.7446140  14.1257660  35.8760230  67.0821900  13.6225120
  34.3723440  66.9138200  13.5727430  22.9712550  61.7499410  14.9297190
  23.0117890  61.4513280  15.8382420  23.8258050  62.1507020  14.7704710
  24.9118360  60.3291510  12.8971680  24.3814820  59.8382460  12.2695020
  25.5806430  60.7575710  12.3629610  33.8096420  64.7960970  12.6612870
  34.2237440  64.9506050  13.5103290  32.8747420  64.9216190  12.8238650
  34.2818590  62.1357130  14.6652020  34.8639360  61.3809450  14.5772500
  34.4580360  62.6664570  13.8883500  25.3990660  57.2953880  12.9768970
  25.3047530  56.6774630  12.2519840  24.8188050  58.0220170  12.7498880
  28.1652100  55.8527120  10.0096360  27.7169400  55.8751380   9.1641910
  27.5317300  55.4546140  10.6066660  28.5711650  64.7481450  10.6308800
  28.9899760  65.5914180  10.4585040  27.6520280  64.8853490  10.4015580
  30.9075550  62.4797630  12.0146640  31.0271760  61.8838770  12.7541480
  31.7669550  62.5167320  11.5947940  33.2463450  63.0334820  10.5909150
  32.7198670  63.5577440   9.9874290  33.5894790  63.6662210  11.2218880
  26.4219070  71.0534460  11.7466530  25.8840160  71.7780520  11.4275230
  26.6753030  70.5764800  10.9563870  27.6744320  59.0218980  13.2722460
  28.2644010  58.7134830  13.9600280  26.8564560  58.5498730  13.4282360
  32.4937750  58.6384790  13.5055480  31.8053270  57.9766330  13.4405470
  33.2143770  58.1923060  13.9503940  29.2781280  72.2885670  12.0053180
  29.2039980  73.1920810  12.3125550  28.3760120  71.9697570  11.9775250
  20.6808570  69.6160260   5.3086800  21.0111580  68.7481320   5.0765440
  21.1099570  69.8218780   6.1391760  25.2770490  67.9469270   2.9688770
  24.9766030  67.8234240   3.8692680  25.1707980  67.0877860   2.5604500
  21.1698780  70.4830850   8.0468430  20.7329770  70.6631650   8.8792580
  21.7376460  71.2405470   7.9050150  36.8060960  69.9847850  12.3345740
  36.2062950  70.0440410  11.5909660  36.9354860  69.0452830  12.4642590
  21.0023210  62.9951080   4.4057310  20.3472050  62.7262720   3.7617010
  21.8401160  62.8855560   3.9559290  38.5078840  65.3263250   5.0191580
  38.8787670  64.5430570   4.6127550  39.1480770  66.0152350   4.8408880
  35.4912600  66.7099830  10.4321900  34.6772440  67.1396990  10.6947690
  35.8986800  67.3218240   9.8190950  37.4503380  62.7016510   2.3251600
  37.0746980  61.9344440   1.8932890  36.7206500  63.0839210   2.8126530
  22.0399140  63.3803650   8.9460650  22.4072180  63.2931050   9.8256670
  21.4709960  62.6170200   8.8467510  36.8403000  61.8488030  11.9591120
  36.6089090  61.6200780  11.0589070  37.1007550  62.7687580  11.9136010
  21.5915140  60.2912740  12.8519070  20.6971190  60.2579500  13.1912780
  22.1312690  60.4899530  13.6170320  35.2791070  57.0744460  14.7370820
  36.1561250  57.0827860  15.1204820  35.2911910  56.3375300  14.1263170
  36.7254340  60.9274000   5.6258840  37.2491820  60.4336650   4.9949010
  37.3113760  61.0624360   6.3706410  36.9044060  61.0113870   9.1478390
  35.9546770  60.9777410   9.2623380  37.0857070  61.9213980   8.9128160
  22.0954850  54.5661070   7.2002290  22.7431040  54.0158450   6.7597450
  22.5156690  54.8204220   8.0218100  37.6441470  58.8208300   4.0988930
  37.5340750  58.6664340   5.0371200  38.4049060  58.2929240   3.8564340
  35.9907190  54.7602430  10.5571930  36.6279410  55.3736570  10.9231120
  36.1382080  54.7963090   9.6121160  35.5488650  71.4618430   3.9590170
  36.1447720  71.1403000   3.2824590  35.8066800  70.9890250   4.7503440
  21.8486850  54.7216740   9.9427610  21.5001670  55.1780560  10.7085790
  21.5174550  53.8273870  10.0250040  23.4551220  67.8936340  14.1080800
  23.4120850  67.5229250  14.9895260  23.5862230  68.8313910  14.2482620
  27.1557250  69.4495930   9.7090520  26.9148610  69.7170490   8.8221040
  28.0959890  69.6201660   9.7641380  29.3611670  55.9128620  13.4647030
  29.3000560  56.5050450  14.2142440  30.3012050  55.8054580  13.3197290
  31.9986230  55.5698680  13.1039320  32.6126640  55.8877970  12.4420400
  32.5435790  55.0847270  13.7235180  38.4161410  71.4690310  10.5101160
  37.9219690  71.8659180   9.7928290  37.8074700  70.8439520  10.9038440
  22.5207490  54.2492940  13.2178380  23.0690480  54.0680990  12.4544490
  22.5862800  53.4587050  13.7534690  23.2939250  70.8398590  11.2278580
  22.6999570  70.7083290  11.9668620  23.2863090  70.0036730  10.7620680
  32.7394270  54.1330820   9.4308610  31.8654110  54.4665930   9.2281540
  32.6305020  53.6604000  10.2560480  33.6466250  56.3401690  10.8150330
  33.3179610  55.5253450  10.4352060  34.5948550  56.2971500  10.6916020
  36.1000860  72.1113730   7.7887900  35.6403830  72.8629540   7.4145920
  35.4713320  71.3920200   7.7302700  22.9251480  68.2056970  10.1786620
  22.1985540  67.5862260  10.1112570  22.9860630  68.5997580   9.3084700
  26.5296580  70.4201970   6.9636030  27.0461600  69.8089330   6.4384290
  27.1793960  70.9230750   7.4547040  29.2692080  71.3110460   7.7905010
  29.5569890  71.0564760   6.9138020  29.7815300  70.7587820   8.3810580
  30.4869090  55.0500660   8.3701520  29.7040880  55.5246160   8.6498280
  30.1932020  54.1455490   8.2614700  35.0390160  55.7523760   6.4150610
  35.4798250  55.6968860   5.5672210  34.7697750  56.6681770   6.4860790
  36.9028730  55.3839000   4.4259430  36.8417130  54.4400220   4.2790450
  37.6820760  55.4919090   4.9712890  21.2081480  71.5231360   3.3883380
  21.0403520  70.8902040   4.0865270  20.3415990  71.7290760   3.0377570
  28.3723310  57.4687410   3.8817550  27.5597820  57.0944300   3.5413430
  28.8764950  56.7132490   4.1838740  32.8748290  54.1329860   5.1200620
  33.4777660  54.7050070   5.5949140  32.1341280  54.6969300   4.8974520
  26.3972490  55.6187330   2.4862600  25.7675230  54.9174640   2.6532730
  25.8577630  56.3791460   2.2695760  29.3364440  72.2326560  15.1573210
  30.2631750  71.9970830  15.2009170  29.3214870  73.0598560  14.6759240
  26.5228050  54.8971310  14.9215090  26.2412320  55.4004910  14.1575910
  26.9047750  54.0993060  14.5557220  33.1243510  54.3124890  15.4995560
  33.0108960  54.6319500  16.3947080  33.9413250  54.7137400  15.2032840
  35.9042000  71.4596420  14.9814250  36.6967320  70.9645650  14.7740210
  36.1975150  72.1386560  15.5889860  32.0301660  43.5573870  79.7347750
  31.9495710  42.6428480  79.4639460  31.6166080  44.0540940  79.0287460
  30.1619700  45.3352890  81.6157020  29.3861800  44.8553330  81.9055590
  30.8132630  44.6558540  81.4413180  24.1785530  45.6472700  82.4932780
  23.3470410  45.3921410  82.8929290  24.7866510  45.7183470  83.2290700
  34.1827130  49.7413080  80.3956150  33.7208660  48.9700320  80.7243320
  34.9952680  49.7679150  80.9008600  24.1586790  49.6812790  82.6890800
  24.4614830  48.7910530  82.5101020  24.9030380  50.2383010  82.4613050
  22.5877480  40.6074590  76.2775170  21.6994180  40.9490560  76.1755050
  22.8718670  40.4074910  75.3856000  20.5510490  43.2080240  82.1614870
  21.1226600  42.4402440  82.1618510  20.5512030  43.5069000  81.2521480
  30.4090440  52.0271090  80.0160140  29.7901880  52.4828590  79.4454580
  31.2642220  52.1822550  79.6149840  29.6028690  48.0110080  81.6227180
  29.5336970  47.0700020  81.4616310  30.3648550  48.1011490  82.1949750
  21.7935360  38.6164600  83.9483800  21.6138200  37.7190350  84.2286560
  21.3915440  39.1636470  84.6230750  30.6333860  40.8180460  81.8496110
  31.0098680  39.9452340  81.7369780  30.5353370  41.1539160  80.9586550
  24.7638870  39.1906090  77.3113550  24.8705620  40.0909820  77.6182310
  23.8531230  39.1424060  77.0208200  34.4157980  38.3130900  78.7824450
  35.2367600  37.8227470  78.8249930  34.4492060  38.9028560  79.5356290
  22.4122030  41.1125100  82.5566140  23.0932140  41.3763470  83.1753540
  22.0970080  40.2725970  82.8904150  26.6046600  42.1592460  81.6438730
  27.1124820  42.6573430  82.2843750  27.1359840  41.3827660  81.4678090
  38.7057530  40.3297650  85.3468080  38.0009700  40.7179360  84.8283190
  38.9715450  41.0247940  85.9489010  24.8882700  36.7991020  85.9102150
  24.8901140  37.3163410  85.1048050  24.0587010  36.3221200  85.8872080
  31.2753790  46.9110330  77.4092050  30.6571060  47.3759780  76.8454770
  31.7877040  47.6037810  77.8261560  26.1385550  46.4386200  84.0875650
  25.8054930  47.0655120  84.7296720  26.3152230  46.9648080  83.3077320
  34.6519460  40.2531280  81.5551990  33.9475030  40.5416170  82.1355100
  35.0131620  41.0631390  81.1951550  24.5698030  38.5100980  83.9172600
  24.9114840  39.3543030  83.6226470  23.6313840  38.6584720  84.0337940
  25.3504650  48.4067000  85.9024830  25.9678650  49.0818080  85.6209280
  24.4897770  48.8154980  85.8112330  20.6436990  47.5966860  74.7831680
  20.2664970  48.0853960  74.0516580  20.9010060  48.2692140  75.4138210
  36.2682240  49.8706410  83.8179470  35.5845760  50.5405520  83.8096140
  36.8076530  50.0687060  83.0524330  37.7206380  39.6986070  81.9461200
  36.7731290  39.7325050  82.0776630  38.0456370  40.5125020  82.3310560
  28.2525920  35.9983250  80.2417190  28.5600900  35.4430140  79.5252690
  27.3226620  36.1327710  80.0590180  33.8040980  51.7150540  82.5324650
  33.8168140  51.3112830  81.6646910  33.2516200  52.4897830  82.4286080
  35.0986400  48.4366760  77.6214820  34.9882730  47.4941090  77.7464240
  35.0954650  48.7982400  78.5077580  33.2026420  46.6180380  83.8607260
  33.6195210  46.4040490  83.0260720  33.9266240  46.8753170  84.4315880
  30.6406680  44.0632080  76.9777310  29.7135960  43.9969460  77.2065780
  30.7931500  45.0012210  76.8632550  30.6275760  40.3349080  73.9744470
  29.6879430  40.4963040  74.0596930  30.9459020  41.0534760  73.4280460
  37.1488520  45.0167600  83.9523500  36.3207150  45.0860690  83.4773630
  37.7439000  45.6021910  83.4839330  34.6703970  45.6252380  77.4812560
  34.0516390  45.2871930  76.8338860  34.6528420  44.9812140  78.1891750
  34.1130530  41.8036920  84.8978370  33.7001710  42.6290630  85.1518360
  33.3806480  41.2181960  84.7054730  26.2463320  44.5896820  79.7597040
  25.8420320  43.8774070  79.2642940  26.3326440  44.2450060  80.6485080
  26.7145020  48.2764380  81.9236250  26.4173310  47.6709850  81.2444030
  27.6644840  48.3141690  81.8125610  24.9591940  41.3640030  83.5396080
  25.5106530  41.4735370  82.7649330  25.4735450  41.7377630  84.2551310
  34.8030630  51.8496250  85.5859350  34.3261190  52.6568440  85.3931960
  34.1192420  51.1974580  85.7385560  32.8468670  44.8639190  74.4885310
  33.2861950  44.0261620  74.3423130  33.5597090  45.4968590  74.5749450
  30.9564050  49.8035260  78.4566550  31.3959960  50.5459590  78.0421940
  30.8950940  50.0461830  79.3805510  36.4285810  36.1182000  72.8026350
  36.1158470  36.2108830  73.7025420  37.1898280  36.6963030  72.7523780
  22.9467950  43.4841800  77.2603690  22.8265550  44.2103890  76.6484960
  22.6368840  42.7144710  76.7831600  20.5853320  46.6556940  83.0672330
  20.6633740  46.7905710  82.1228050  21.1995000  45.9472830  83.2600450
  21.8300950  48.3557130  79.4778510  21.4229030  48.4971720  78.6232110
  22.7213960  48.0717290  79.2749720  33.6234230  52.7904380  75.8129560
  33.4635370  52.5007320  76.7111390  33.4580940  52.0144510  75.2774790
  26.1022610  52.5702910  77.5901180  25.9265090  51.6538450  77.3768980
  25.2478350  52.9290200  77.8298980  33.3260360  50.2991940  74.3727560
  32.6325520  50.2969230  73.7129840  34.0683220  49.8751260  73.9421730
  32.8910290  51.9254650  78.4476050  33.3467240  51.1444030  78.7614670
  33.2302810  52.6361470  78.9917230  25.4131610  36.8276870  80.6427360
  24.9699760  37.6086410  80.3111880  25.9716600  37.1506760  81.3498300
  28.5290430  36.4487570  75.5233190  27.9044610  36.4447440  76.2486500
  28.4420550  35.5818530  75.1269160  27.4507510  37.3724200  82.5016960
  27.7479840  38.2787030  82.4208980  27.9993070  36.8842980  81.8876530
  25.2045830  41.9510440  78.3708610  24.9786750  41.7347610  79.2755230
  24.4238360  42.3838900  78.0254580  32.4343590  41.9573810  76.9699260
  31.8352480  42.6809610  76.7862880  32.9823200  41.8950590  76.1875710
  31.0408460  40.5937350  79.0002540  31.4338030  40.9109550  78.1871230
  31.4025310  39.7149230  79.1147060  20.0772630  37.1838150  81.2232740
  19.7885680  37.7541010  81.9357720  20.8218390  36.7042600  81.5863970
  20.2642860  41.1258270  72.4335460  20.1817530  42.0689030  72.5750450
  19.9125920  40.9833180  71.5547810  31.6263600  43.1843100  83.0953320
  30.8944720  43.6929910  83.4443420  31.2287940  42.3673080  82.7942100
  28.0640990  39.8597300  81.5005810  28.0677050  39.4187250  80.6510350
  28.9592110  40.1814630  81.6077630  23.9143370  39.7423790  80.4600020
  23.5743420  40.2199020  81.2167070  23.1520690  39.2888910  80.1001120
  28.1261140  40.8609380  74.4912570  28.2473960  40.8195860  75.4398390
  27.7409650  41.7233530  74.3359300  32.0889510  38.6376780  82.5076260
  32.1062250  39.0885430  83.3518110  31.8405090  37.7382420  82.7209700
  27.1382640  43.1710520  73.8895870  26.5699540  42.7228770  73.2631780
  27.8471640  43.5303300  73.3561020  28.3648960  43.9199080  83.2471220
  28.7319090  43.4457650  83.9932560  28.1754020  44.7940650  83.5879560
  21.2289450  38.6642770  79.3764690  20.9436370  38.2998440  80.2143310
  21.1668310  37.9323230  78.7627830  26.1548330  42.9607720  85.5655430
  25.8505400  43.8399700  85.7905790  27.1094790  43.0207510  85.6012870
  24.6830120  47.1668710  76.1622280  23.9092380  46.6266330  76.0021000
  25.4124750  46.6475320  75.8240040  35.4418100  46.1634070  81.9548670
  36.1617220  46.6589360  81.5644780  35.2399920  45.4851960  81.3102540
  30.9028040  37.5572030  76.0978060  30.0892650  37.0585200  76.0223370
  30.7089990  38.3970280  75.6814410  33.6176430  41.9291680  74.3940220
  34.5056050  42.2408910  74.2191560  33.5881520  41.0563930  74.0020800
  24.7267520  46.8349090  79.8001090  25.2446190  46.0317350  79.7457980
  24.2751540  46.7728230  80.6417920  29.6137020  48.1015370  75.0728390
  29.9552720  48.8457600  74.5771710  28.7849730  48.4146490  75.4353220
  35.8890700  43.2403520  73.8620080  35.8054420  43.6717740  73.0116520
  36.6084890  43.7001870  74.2946900  36.9177950  50.0945780  76.5902210
  36.2754110  49.4401400  76.8645930  36.5308610  50.5000870  75.8142880
  32.4964430  47.4231210  80.4373900  32.8488250  46.8259340  79.7775270
  31.6126760  47.0975440  80.6082150  28.5827710  48.1828900  77.8444310
  29.2698840  48.7298110  78.2251900  27.7960130  48.7269630  77.8793920
  20.7220110  43.8001720  73.3361390  21.5914960  44.0826520  73.6197310
  20.2310430  44.6137590  73.2210200  27.8854920  45.1874930  77.4569670
  28.3417700  45.9980180  77.6829860  27.5343130  44.8698070  78.2888160
  30.1887530  50.6981270  84.6861970  30.8329750  50.9040650  85.3635390
  30.5516970  49.9369670  84.2332820  23.7866700  35.5312580  77.9292190
  23.6581330  35.5230480  78.8777110  22.9628720  35.8695670  77.5783200
  31.4619610  48.7013620  83.4039420  32.1041840  48.0006780  83.5171590
  31.9868960  49.4812060  83.2236310  35.3075330  48.9862240  73.1278560
  35.0812910  48.2692680  73.7203200  34.9171530  48.7374680  72.2900310
  21.0891360  53.0129100  73.9023020  21.4489000  53.6118440  73.2480290
  20.9483700  53.5588990  74.6758050  34.8891580  46.9034180  74.7892720
  34.6013280  47.3646870  75.5770600  35.6843750  46.4431950  75.0576940
  27.1059980  50.3960300  74.7196690  27.0970080  51.1289990  74.1041200
  26.1858340  50.1491880  74.8123650  22.7066620  45.6175190  75.4643450
  22.0994570  46.3574090  75.4738750  23.1815970  45.7074550  74.6381650
  32.2799410  39.7826010  85.1400340  32.6480230  38.9621220  85.4679910
  31.4197610  39.8427900  85.5555990  35.6461440  38.7382950  75.9487900
  35.0174600  38.8428620  75.2346130  35.1513360  38.9579730  76.7381780
  30.0919580  50.4588540  73.3821880  30.1931560  50.2552530  72.4523860
  29.1921320  50.2046820  73.5869660  27.6145470  41.0168900  77.3645780
  26.9061620  41.4855240  77.8059390  27.8989950  40.3590910  77.9990970
  31.6460900  37.7419560  78.8041570  31.5228680  37.7605690  77.8551080
  32.5945460  37.7898500  78.9239970  28.7337690  52.9774860  78.0769550
  28.9879190  52.9396250  77.1548920  27.7850170  52.8508190  78.0697800
  25.8180490  39.3253980  74.7396490  26.6671020  39.7624130  74.6736680
  25.4511760  39.6374240  75.5668550  34.7390270  43.8966740  79.6528060
  33.7980410  43.9116970  79.8275750  35.0534340  43.1102700  80.0988360
  24.7171910  45.5786340  73.2132020  25.4835180  45.4667700  73.7757450
  24.7946600  44.8824310  72.5608790  23.4118670  43.0111410  73.8964910
  23.4922260  42.0638920  74.0082310  24.3038420  43.3418290  74.0025570
  36.7415850  51.0675590  81.3282320  36.8663270  51.8906760  81.8006130
  37.6081410  50.8566320  80.9806470  24.2133380  53.1606800  80.9999450
  24.9495860  52.6122260  81.2708020  24.5974300  54.0262810  80.8605440
  21.0978860  49.2280370  76.8740960  20.1718640  49.4701510  76.8646370
  21.5635290  50.0554630  76.7525710  27.3235690  52.3337110  72.8225020
  28.1164300  52.6225940  72.3706810  26.8040040  51.9029280  72.1437500
  36.3765860  51.5607240  74.2461760  36.0907370  51.1472380  73.4315940
  36.1785410  52.4894950  74.1262280  27.8413090  47.5540520  72.6867370
  27.7363730  46.9392870  73.4128750  27.6737310  47.0306410  71.9030380
  31.0815820  46.6160550  73.2909360  30.5325920  47.0629850  73.9352100
  31.7035080  46.1109800  73.8147030  26.7490940  45.5751470  75.1874660
  27.1707360  45.4091340  76.0306050  26.8741780  44.7651700  74.6929800
  29.2618580  44.5989080  72.4351760  29.7824240  43.8838100  72.0692910
  29.9086980  45.2374950  72.7352270  28.1652100  37.0783630  85.1070320
  27.7169400  37.1007890  84.2615870  27.5317300  36.6802650  85.7040620
  28.5711650  45.9737960  85.7282760  28.9899760  46.8170690  85.5559000
  27.6520280  46.1110000  85.4989540  25.6449840  41.6484700  72.1332820
  25.4438900  40.7852060  72.4946160  25.4741890  41.5618060  71.1954420
  33.1238150  36.4592930  74.6619700  33.4040440  35.6160830  75.0179120
  32.3503880  36.6916040  75.1758450  24.4432640  38.7485320  72.1210700
  24.7458540  38.7552750  71.2129850  25.1827230  38.3983180  72.6178360
  27.6617570  37.6919940  73.1066900  27.3139570  37.0143930  72.5269350
  27.8630340  37.2309450  73.9210290  29.8266610  52.6800690  74.7253500
  30.7217400  53.0185660  74.7472260  29.8584240  51.9580100  74.0977780
  23.4662770  48.0527740  72.9540500  23.9037640  48.5957410  73.6098080
  23.9510500  47.2274690  72.9636840  20.6808570  50.8416770  80.4060760
  21.0111580  49.9737830  80.1739400  21.1099570  51.0475290  81.2365720
  25.2770490  49.1725780  78.0662730  24.9766030  49.0490750  78.9666640
  25.1707980  48.3134370  77.6578460  21.1698780  51.7087360  83.1442390
  20.7329770  51.8888160  83.9766540  21.7376460  52.4661980  83.0024110
  38.0462410  48.9522180  72.7689410  37.2155370  49.0198830  73.2396640
  38.2234240  49.8426300  72.4656270  37.5018870  45.6969660  75.2723610
  38.2637780  46.2666310  75.3783300  37.5173240  45.1296860  76.0431920
  21.0023210  44.2207590  79.5031270  20.3472050  43.9519230  78.8590970
  21.8401160  44.1112070  79.0533250  38.5078840  46.5519760  80.1165540
  38.8787670  45.7687080  79.7101510  39.1480770  47.2408860  79.9382840
  35.4912600  47.9356340  85.5295860  34.6772440  48.3653500  85.7921650
  35.8986800  48.5474750  84.9164910  37.5538040  45.9904030  72.4296130
  37.8286880  46.8982910  72.3015350  37.3648780  45.9266560  73.3658120
  33.9513650  39.0148880  73.7249760  34.3698530  38.8279860  72.8846420
  33.6449710  38.1627930  74.0352690  37.4503380  43.9273020  77.4225560
  37.0746980  43.1600950  76.9906850  36.7206500  44.3095720  77.9100490
  22.0399140  44.6060160  84.0434610  22.4072180  44.5187560  84.9230630
  21.4709960  43.8426710  83.9441470  20.2161290  41.4306520  75.4456600
  19.3125370  41.6936720  75.2708260  20.7001910  41.7017690  74.6656560
  36.7254340  42.1530510  80.7232800  37.2491820  41.6593160  80.0922970
  37.3113760  42.2880870  81.4680370  36.9044060  42.2370380  84.2452350
  35.9546770  42.2033920  84.3597340  37.0857070  43.1470490  84.0102120
  22.7588500  40.4872060  73.3550980  23.4680200  40.0655280  72.8698260
  22.0428440  40.5547290  72.7234330  22.4062660  36.5411390  72.3953630
  23.1290790  37.0820330  72.7134850  22.6787180  36.2674810  71.5195170
  36.2154310  41.4103860  76.6625210  36.7113430  41.1774730  77.4474090
  36.0170380  40.5715700  76.2462850  22.0954850  35.7917580  82.2976250
  22.7431040  35.2414960  81.8571410  22.5156690  36.0460730  83.1192060
  37.6441470  40.0464810  79.1962890  37.5340750  39.8920850  80.1345160
  38.4049060  39.5185750  78.9538300  38.5331740  37.8772730  72.4369030
  39.4581050  37.7453910  72.2287320  38.5107530  37.9565550  73.3905480
  38.6070230  38.6483390  75.0625740  37.8121730  38.5828510  75.5918650
  38.8113510  39.5834030  75.0511090  35.5488650  52.6874940  79.0564130
  36.1447720  52.3659510  78.3798550  35.8066800  52.2146760  79.8477400
  21.8486850  35.9473250  85.0401570  21.5001670  36.4037070  85.8059750
  21.5174550  35.0530380  85.1224000  27.1557250  50.6752440  84.8064480
  26.9148610  50.9427000  83.9195000  28.0959890  50.8458170  84.8615340
  32.7394270  35.3587330  84.5282570  31.8654110  35.6922440  84.3255500
  32.6305020  34.8860510  85.3534440  33.6466250  37.5658200  85.9124290
  33.3179610  36.7509960  85.5326020  34.5948550  37.5228010  85.7889980
  36.1000860  53.3370240  82.8861860  35.6403830  54.0886050  82.5119880
  35.4713320  52.6176710  82.8276660  22.9251480  49.4313480  85.2760580
  22.1985540  48.8118770  85.2086530  22.9860630  49.8254090  84.4058660
  26.5296580  51.6458480  82.0609990  27.0461600  51.0345840  81.5358250
  27.1793960  52.1487260  82.5521000  29.2692080  52.5366970  82.8878970
  29.5569890  52.2821270  82.0111980  29.7815300  51.9844330  83.4784540
  30.4869090  36.2757170  83.4675480  29.7040880  36.7502670  83.7472240
  30.1932020  35.3712000  83.3588660  35.0390160  36.9780270  81.5124570
  35.4798250  36.9225370  80.6646170  34.7697750  37.8938280  81.5834750
  36.9028730  36.6095510  79.5233390  36.8417130  35.6656730  79.3764410
  37.6820760  36.7175600  80.0686850  21.2081480  52.7487870  78.4857340
  21.0403520  52.1158550  79.1839230  20.3415990  52.9547270  78.1351530
  21.8309500  36.5804650  75.9889200  22.5888860  36.6933530  75.4153230
  21.3686670  37.4173850  75.9432630  28.3723310  38.6943920  78.9791510
  27.5597820  38.3200810  78.6387390  28.8764950  37.9389000  79.2812700
  32.8748290  35.3586370  80.2174580  33.4777660  35.9306580  80.6923100
  32.1341280  35.9225810  79.9948480  36.0182890  35.7607930  75.4914860
  36.2133520  36.6591380  75.7582290  35.2312760  35.5295010  75.9847810
  22.8144180  51.4421100  75.9307480  22.2891800  51.8229130  75.2269440
  22.7388760  52.0671870  76.6517190  24.2034650  37.1068700  74.5291170
  24.7327410  36.3198500  74.3999120  24.8362970  37.7859890  74.7626700
  26.3972490  36.8443840  77.5836560  25.7675230  36.1431150  77.7506690
  25.8577630  37.6047970  77.3669720  37.5709500  53.0008640  77.2521420
  37.7461690  52.3146380  76.6082340  36.8731070  53.5255690  76.8598090
  25.4137150  53.3903480  74.8056730  26.1455970  53.1062760  74.2580620
  25.6730820  53.1516760  75.6956110  24.5751940  49.5068210  74.8103060
  23.9460820  49.9753310  75.3588890  24.6899770  48.6617430  75.2449250
  32.0301660  43.5573870  60.9604260  31.9495710  42.6428480  60.6895970
  31.6166080  44.0540940  60.2543970  30.1619700  45.3352890  62.8413530
  29.3861800  44.8553330  63.1312100  30.8132630  44.6558540  62.6669690
  24.1785530  45.6472700  63.7189290  23.3470410  45.3921410  64.1185800
  24.7866510  45.7183470  64.4547210  34.1827130  49.7413080  61.6212660
  33.7208660  48.9700320  61.9499830  34.9952680  49.7679150  62.1265110
  24.1586790  49.6812790  63.9147310  24.4614830  48.7910530  63.7357530
  24.9030380  50.2383010  63.6869560  22.5877480  40.6074590  57.5031680
  21.6994180  40.9490560  57.4011560  22.8718670  40.4074910  56.6112510
  20.5510490  43.2080240  63.3871380  21.1226600  42.4402440  63.3875020
  20.5512030  43.5069000  62.4777990  30.4090440  52.0271090  61.2416650
  29.7901880  52.4828590  60.6711090  31.2642220  52.1822550  60.8406350
  29.6028690  48.0110080  62.8483690  29.5336970  47.0700020  62.6872820
  30.3648550  48.1011490  63.4206260  21.7935360  38.6164600  65.1740310
  21.6138200  37.7190350  65.4543070  21.3915440  39.1636470  65.8487260
  30.6333860  40.8180460  63.0752620  31.0098680  39.9452340  62.9626290
  30.5353370  41.1539160  62.1843060  24.7638870  39.1906090  58.5370060
  24.8705620  40.0909820  58.8438820  23.8531230  39.1424060  58.2464710
  34.4157980  38.3130900  60.0080960  35.2367600  37.8227470  60.0506440
  34.4492060  38.9028560  60.7612800  22.4122030  41.1125100  63.7822650
  23.0932140  41.3763470  64.4010050  22.0970080  40.2725970  64.1160660
  26.6046600  42.1592460  62.8695240  27.1124820  42.6573430  63.5100260
  27.1359840  41.3827660  62.6934600  38.7057530  40.3297650  66.5724590
  38.0009700  40.7179360  66.0539700  38.9715450  41.0247940  67.1745520
  24.8882700  36.7991020  67.1358660  24.8901140  37.3163410  66.3304560
  24.0587010  36.3221200  67.1128590  31.2753790  46.9110330  58.6348560
  30.6571060  47.3759780  58.0711280  31.7877040  47.6037810  59.0518070
  26.1385550  46.4386200  65.3132160  25.8054930  47.0655120  65.9553230
  26.3152230  46.9648080  64.5333830  34.6519460  40.2531280  62.7808500
  33.9475030  40.5416170  63.3611610  35.0131620  41.0631390  62.4208060
  24.5698030  38.5100980  65.1429110  24.9114840  39.3543030  64.8482980
  23.6313840  38.6584720  65.2594450  25.3504650  48.4067000  67.1281340
  25.9678650  49.0818080  66.8465790  24.4897770  48.8154980  67.0368840
  20.6436990  47.5966860  56.0088190  20.2664970  48.0853960  55.2773090
  20.9010060  48.2692140  56.6394720  36.2682240  49.8706410  65.0435980
  35.5845760  50.5405520  65.0352650  36.8076530  50.0687060  64.2780840
  37.7206380  39.6986070  63.1717710  36.7731290  39.7325050  63.3033140
  38.0456370  40.5125020  63.5567070  28.2525920  35.9983250  61.4673700
  28.5600900  35.4430140  60.7509200  27.3226620  36.1327710  61.2846690
  33.8040980  51.7150540  63.7581160  33.8168140  51.3112830  62.8903420
  33.2516200  52.4897830  63.6542590  35.0986400  48.4366760  58.8471330
  34.9882730  47.4941090  58.9720750  35.0954650  48.7982400  59.7334090
  33.2026420  46.6180380  65.0863770  33.6195210  46.4040490  64.2517230
  33.9266240  46.8753170  65.6572390  30.6406680  44.0632080  58.2033820
  29.7135960  43.9969460  58.4322290  30.7931500  45.0012210  58.0889060
  30.6275760  40.3349080  55.2000980  29.6879430  40.4963040  55.2853440
  30.9459020  41.0534760  54.6536970  37.1488520  45.0167600  65.1780010
  36.3207150  45.0860690  64.7030140  37.7439000  45.6021910  64.7095840
  34.6703970  45.6252380  58.7069070  34.0516390  45.2871930  58.0595370
  34.6528420  44.9812140  59.4148260  34.1130530  41.8036920  66.1234880
  33.7001710  42.6290630  66.3774870  33.3806480  41.2181960  65.9311240
  26.2463320  44.5896820  60.9853550  25.8420320  43.8774070  60.4899450
  26.3326440  44.2450060  61.8741590  26.7145020  48.2764380  63.1492760
  26.4173310  47.6709850  62.4700540  27.6644840  48.3141690  63.0382120
  24.9591940  41.3640030  64.7652590  25.5106530  41.4735370  63.9905840
  25.4735450  41.7377630  65.4807820  34.8030630  51.8496250  66.8115860
  34.3261190  52.6568440  66.6188470  34.1192420  51.1974580  66.9642070
  25.8063450  48.0146070  69.8000560  24.9091980  48.2386040  70.0473960
  25.8316320  48.1381010  68.8511960  32.8468670  44.8639190  55.7141820
  33.2861950  44.0261620  55.5679640  33.5597090  45.4968590  55.8005960
  24.6334670  44.8859390  68.3757930  24.4942440  45.7582190  68.7445330
  23.7516030  44.5432200  68.2305870  30.9564050  49.8035260  59.6823060
  31.3959960  50.5459590  59.2678450  30.8950940  50.0461830  60.6062020
  26.4315020  50.8281090  70.5843080  26.4030450  51.2324040  69.7171510
  26.2679990  49.8991450  70.4214680  22.9467950  43.4841800  58.4860200
  22.8265550  44.2103890  57.8741470  22.6368840  42.7144710  58.0088110
  38.3829840  51.6108190  71.8807250  38.8589560  52.0891080  72.5596330
  39.0037000  51.5425680  71.1552750  20.5853320  46.6556940  64.2928840
  20.6633740  46.7905710  63.3484560  21.1995000  45.9472830  64.4856960
  21.8300950  48.3557130  60.7035020  21.4229030  48.4971720  59.8488620
  22.7213960  48.0717290  60.5006230  37.7863090  48.8021040  69.0407260
  37.9126150  48.5632920  68.1224440  37.8284470  47.9705580  69.5129340
  31.6479830  52.5049040  67.6102070  32.1624500  52.4157050  68.4124500
  30.8048910  52.8508740  67.9029980  33.6234230  52.7904380  57.0386070
  33.4635370  52.5007320  57.9367900  33.4580940  52.0144510  56.5031300
  26.1022610  52.5702910  58.8157690  25.9265090  51.6538450  58.6025490
  25.2478350  52.9290200  59.0555490  33.3260360  50.2991940  55.5984070
  32.6325520  50.2969230  54.9386350  34.0683220  49.8751260  55.1678240
  32.8910290  51.9254650  59.6732560  33.3467240  51.1444030  59.9871180
  33.2302810  52.6361470  60.2173740  37.6387100  40.8553500  70.0057000
  37.0231370  41.3633170  69.4772460  37.3183520  39.9551830  69.9482940
  20.6412840  47.6971110  66.8323300  20.8043880  47.2276470  66.0142670
  21.1065290  47.1894670  67.4972140  25.4131610  36.8276870  61.8683870
  24.9699760  37.6086410  61.5368390  25.9716600  37.1506760  62.5754810
  29.7001420  39.6945390  67.4719190  29.2380790  39.9028410  68.2839130
  29.2979530  38.8804740  67.1689860  34.7005930  40.9154340  68.6015850
  33.8499520  40.6160090  68.9224920  34.5407720  41.1596350  67.6899670
  31.7955640  42.4156090  70.7014640  32.1209050  41.5819840  70.3616870
  32.5835970  42.9384610  70.8492970  28.5290430  36.4487570  56.7489700
  27.9044610  36.4447440  57.4743010  28.4420550  35.5818530  56.3525670
  27.4507510  37.3724200  63.7273470  27.7479840  38.2787030  63.6465490
  27.9993070  36.8842980  63.1133040  25.2045830  41.9510440  59.5965120
  24.9786750  41.7347610  60.5011740  24.4238360  42.3838900  59.2511090
  32.4343590  41.9573810  58.1955770  31.8352480  42.6809610  58.0119390
  32.9823200  41.8950590  57.4132220  27.6445040  42.8496020  70.2625390
  27.5488640  41.9090750  70.1125790  28.4877020  43.0711090  69.8673460
  31.0408460  40.5937350  60.2259050  31.4338030  40.9109550  59.4127740
  31.4025310  39.7149230  60.3403570  22.7755580  39.2609690  68.4159170
  22.3818970  40.1084900  68.6231950  22.0873980  38.6236060  68.6067810
  29.3500630  39.3444660  71.4855910  28.6598950  39.1516860  72.1202000
  30.0932930  39.6279300  72.0180210  20.0772630  37.1838150  62.4489250
  19.7885680  37.7541010  63.1614230  20.8218390  36.7042600  62.8120480
  20.2642860  41.1258270  53.6591970  20.1817530  42.0689030  53.8006960
  19.9125920  40.9833180  52.7804320  31.6263600  43.1843100  64.3209830
  30.8944720  43.6929910  64.6699930  31.2287940  42.3673080  64.0198610
  28.0640990  39.8597300  62.7262320  28.0677050  39.4187250  61.8766860
  28.9592110  40.1814630  62.8334140  23.9143370  39.7423790  61.6856530
  23.5743420  40.2199020  62.4423580  23.1520690  39.2888910  61.3257630
  28.1261140  40.8609380  55.7169080  28.2473960  40.8195860  56.6654900
  27.7409650  41.7233530  55.5615810  32.0889510  38.6376780  63.7332770
  32.1062250  39.0885430  64.5774620  31.8405090  37.7382420  63.9466210
  27.1382640  43.1710520  55.1152380  26.5699540  42.7228770  54.4888290
  27.8471640  43.5303300  54.5817530  35.5160260  36.0508960  69.5719150
  35.8406030  35.3198620  70.0977130  35.5516770  35.7322600  68.6700140
  22.2151820  47.0722540  68.9919110  21.8306610  46.4316210  69.5902070
  22.5264010  47.7758660  69.5613840  28.3648960  43.9199080  64.4727730
  28.7319090  43.4457650  65.2189070  28.1754020  44.7940650  64.8136070
  21.2289450  38.6642770  60.6021200  20.9436370  38.2998440  61.4399820
  21.1668310  37.9323230  59.9884340  26.1548330  42.9607720  66.7911940
  25.8505400  43.8399700  67.0162300  27.1094790  43.0207510  66.8269380
  24.6830120  47.1668710  57.3878790  23.9092380  46.6266330  57.2277510
  25.4124750  46.6475320  57.0496550  35.4418100  46.1634070  63.1805180
  36.1617220  46.6589360  62.7901290  35.2399920  45.4851960  62.5359050
  30.9028040  37.5572030  57.3234570  30.0892650  37.0585200  57.2479880
  30.7089990  38.3970280  56.9070920  30.8236900  46.2343130  69.0674180
  30.7574210  45.3138800  68.8131770  30.1942040  46.3318570  69.7818820
  33.6176430  41.9291680  55.6196730  34.5056050  42.2408910  55.4448070
  33.5881520  41.0563930  55.2277310  24.7267520  46.8349090  61.0257600
  25.2446190  46.0317350  60.9714490  24.2751540  46.7728230  61.8674430
  29.6137020  48.1015370  56.2984900  29.9552720  48.8457600  55.8028220
  28.7849730  48.4146490  56.6609730  22.2112060  43.8010460  67.9383300
  21.8527000  44.4664310  68.5256640  21.9166620  42.9694010  68.3095920
  25.4125180  44.2594700  70.8222850  25.1125320  44.4051880  69.9250670
  26.1836420  43.6999990  70.7296240  30.7553630  49.0563700  68.8177980
  30.7698170  48.1244660  68.5996890  30.0478730  49.1423460  69.4567750
  35.8890700  43.2403520  55.0876590  35.8054420  43.6717740  54.2373030
  36.6084890  43.7001870  55.5203410  36.9664840  45.6971040  68.1646560
  36.2413030  46.2899820  67.9675950  37.4940300  45.6894580  67.3659930
  36.9177950  50.0945780  57.8158720  36.2754110  49.4401400  58.0902440
  36.5308610  50.5000870  57.0399390  32.4964430  47.4231210  61.6630410
  32.8488250  46.8259340  61.0031780  31.6126760  47.0975440  61.8338660
  28.5827710  48.1828900  59.0700820  29.2698840  48.7298110  59.4508410
  27.7960130  48.7269630  59.1050430  20.7220110  43.8001720  54.5617900
  21.5914960  44.0826520  54.8453820  20.2310430  44.6137590  54.4466710
  27.8854920  45.1874930  58.6826180  28.3417700  45.9980180  58.9086370
  27.5343130  44.8698070  59.5144670  30.1887530  50.6981270  65.9118480
  30.8329750  50.9040650  66.5891900  30.5516970  49.9369670  65.4589330
  23.7866700  35.5312580  59.1548700  23.6581330  35.5230480  60.1033620
  22.9628720  35.8695670  58.8039710  31.4619610  48.7013620  64.6295930
  32.1041840  48.0006780  64.7428100  31.9868960  49.4812060  64.4492820
  35.3075330  48.9862240  54.3535070  35.0812910  48.2692680  54.9459710
  34.9171530  48.7374680  53.5156820  33.2357230  49.5008520  67.8331990
  33.5713470  50.0875210  68.5109910  32.3157570  49.3701230  68.0629780
  21.0891360  53.0129100  55.1279530  21.4489000  53.6118440  54.4736800
  20.9483700  53.5588990  55.9014560  20.7860630  37.2903700  68.6155400
  20.0719150  37.4900620  69.2208010  21.2055670  36.5143270  68.9870200
  34.8891580  46.9034180  56.0149230  34.6013280  47.3646870  56.8027110
  35.6843750  46.4431950  56.2833450  21.0733220  51.2783960  69.6021930
  21.1824340  50.3378700  69.4617320  20.4213780  51.5438710  68.9535660
  29.0645810  49.5499850  71.0020050  28.7442680  48.8309090  71.5465740
  28.3904170  50.2254920  71.0756110  27.1059980  50.3960300  55.9453200
  27.0970080  51.1289990  55.3297710  26.1858340  50.1491880  56.0380160
  22.7066620  45.6175190  56.6899960  22.0994570  46.3574090  56.6995260
  23.1815970  45.7074550  55.8638160  32.2799410  39.7826010  66.3656850
  32.6480230  38.9621220  66.6936420  31.4197610  39.8427900  66.7812500
  30.0919580  50.4588540  54.6078390  30.1931560  50.2552530  53.6780370
  29.1921320  50.2046820  54.8126170  27.6145470  41.0168900  58.5902290
  26.9061620  41.4855240  59.0315900  27.8989950  40.3590910  59.2247480
  29.2401400  42.4365600  66.5894820  29.7386650  42.9111420  67.2546670
  29.3824350  41.5129120  66.7964850  31.6460900  37.7419560  60.0298080
  31.5228680  37.7605690  59.0807590  32.5945460  37.7898500  60.1496480
  28.7337690  52.9774860  59.3026060  28.9879190  52.9396250  58.3805430
  27.7850170  52.8508190  59.2954310  25.8180490  39.3253980  55.9653000
  26.6671020  39.7624130  55.8993190  25.4511760  39.6374240  56.7925060
  36.4468260  38.6533560  67.4323210  35.9441860  39.3938960  67.7717020
  37.2624920  39.0417560  67.1160000  34.7390270  43.8966740  60.8784570
  33.7980410  43.9116970  61.0532260  35.0534340  43.1102700  61.3244870
  24.7171910  45.5786340  54.4388530  25.4835180  45.4667700  55.0013960
  24.7946600  44.8824310  53.7865300  23.4118670  43.0111410  55.1221420
  23.4922260  42.0638920  55.2338820  24.3038420  43.3418290  55.2282080
  36.7415850  51.0675590  62.5538830  36.8663270  51.8906760  63.0262640
  37.6081410  50.8566320  62.2062980  24.2133380  53.1606800  62.2255960
  24.9495860  52.6122260  62.4964530  24.5974300  54.0262810  62.0861950
  21.0978860  49.2280370  58.0997470  20.1718640  49.4701510  58.0902880
  21.5635290  50.0554630  57.9782220  23.2191660  52.3452870  71.4141540
  24.0204390  52.6664920  71.8276940  22.7043480  51.9848450  72.1361450
  27.3235690  52.3337110  54.0481530  28.1164300  52.6225940  53.5963320
  26.8040040  51.9029280  53.3694010  32.0556290  48.4532740  71.3616950
  31.4494450  48.4764340  70.6212700  31.7510400  47.7215780  71.8984200
  33.4856660  52.1813030  69.9726360  34.4378410  52.0971050  69.9226600
  33.3384880  52.8454740  70.6460150  36.3765860  51.5607240  55.4718270
  36.0907370  51.1472380  54.6572450  36.1785410  52.4894950  55.3518790
  20.9389470  44.8326330  70.3577590  21.4428490  44.2533610  70.9293820
  20.1996890  45.1166560  70.8953960  27.8413090  47.5540520  53.9123880
  27.7363730  46.9392870  54.6385260  27.6737310  47.0306410  53.1286890
  27.9927410  46.2397320  69.8913110  27.2273080  46.8082320  69.8067780
  28.1743370  45.9473530  68.9981340  31.0815820  46.6160550  54.5165870
  30.5325920  47.0629850  55.1608610  31.7035080  46.1109800  55.0403540
  35.1350760  47.9702650  70.4488130  35.8760230  48.3078410  69.9455590
  34.3723440  48.1394710  69.8957900  22.9712550  42.9755920  71.2527660
  23.0117890  42.6769790  72.1612890  23.8258050  43.3763530  71.0935180
  26.7490940  45.5751470  56.4131170  27.1707360  45.4091340  57.2562560
  26.8741780  44.7651700  55.9186310  24.9118360  41.5548020  69.2202150
  24.3814820  41.0638970  68.5925490  25.5806430  41.9832220  68.6860080
  29.2618580  44.5989080  53.6608270  29.7824240  43.8838100  53.2949420
  29.9086980  45.2374950  53.9608780  33.8096420  46.0217480  68.9843340
  34.2237440  46.1762560  69.8333760  32.8747420  46.1472700  69.1469120
  34.2818590  43.3613640  70.9882490  34.8639360  42.6065960  70.9002970
  34.4580360  43.8921080  70.2113970  25.3990660  38.5210390  69.2999440
  25.3047530  37.9031140  68.5750310  24.8188050  39.2476680  69.0729350
  28.1652100  37.0783630  66.3326830  27.7169400  37.1007890  65.4872380
  27.5317300  36.6802650  66.9297130  28.5711650  45.9737960  66.9539270
  28.9899760  46.8170690  66.7815510  27.6520280  46.1110000  66.7246050
  30.9075550  43.7054140  68.3377110  31.0271760  43.1095280  69.0771950
  31.7669550  43.7423830  67.9178410  33.2463450  44.2591330  66.9139620
  32.7198670  44.7833950  66.3104760  33.5894790  44.8918720  67.5449350
  25.6449840  41.6484700  53.3589330  25.4438900  40.7852060  53.7202670
  25.4741890  41.5618060  52.4210930  26.4219070  52.2790970  68.0697000
  25.8840160  53.0037030  67.7505700  26.6753030  51.8021310  67.2794340
  27.6744320  40.2475490  69.5952930  28.2644010  39.9391340  70.2830750
  26.8564560  39.7755240  69.7512830  32.4937750  39.8641300  69.8285950
  31.8053270  39.2022840  69.7635940  33.2143770  39.4179570  70.2734410
  24.4432640  38.7485320  53.3467210  24.7458540  38.7552750  52.4386360
  25.1827230  38.3983180  53.8434870  29.2781280  53.5142180  68.3283650
  29.2039980  54.4177320  68.6356020  28.3760120  53.1954080  68.3005720
  27.6617570  37.6919940  54.3323410  27.3139570  37.0143930  53.7525860
  27.8630340  37.2309450  55.1466800  29.8266610  52.6800690  55.9510010
  30.7217400  53.0185660  55.9728770  29.8584240  51.9580100  55.3234290
  23.4662770  48.0527740  54.1797010  23.9037640  48.5957410  54.8354590
  23.9510500  47.2274690  54.1893350  20.6808570  50.8416770  61.6317270
  21.0111580  49.9737830  61.3995910  21.1099570  51.0475290  62.4622230
  25.2770490  49.1725780  59.2919240  24.9766030  49.0490750  60.1923150
  25.1707980  48.3134370  58.8834970  21.1698780  51.7087360  64.3698900
  20.7329770  51.8888160  65.2023050  21.7376460  52.4661980  64.2280620
  36.8060960  51.2104360  68.6576210  36.2062950  51.2696920  67.9140130
  36.9354860  50.2709340  68.7873060  38.0462410  48.9522180  53.9945920
  37.2155370  49.0198830  54.4653150  38.2234240  49.8426300  53.6912780
  37.5018870  45.6969660  56.4980120  38.2637780  46.2666310  56.6039810
  37.5173240  45.1296860  57.2688430  21.0023210  44.2207590  60.7287780
  20.3472050  43.9519230  60.0847480  21.8401160  44.1112070  60.2789760
  38.5078840  46.5519760  61.3422050  38.8787670  45.7687080  60.9358020
  39.1480770  47.2408860  61.1639350  35.4912600  47.9356340  66.7552370
  34.6772440  48.3653500  67.0178160  35.8986800  48.5474750  66.1421420
  37.5538040  45.9904030  53.6552640  37.8286880  46.8982910  53.5271860
  37.3648780  45.9266560  54.5914630  37.4503380  43.9273020  58.6482070
  37.0746980  43.1600950  58.2163360  36.7206500  44.3095720  59.1357000
  22.0399140  44.6060160  65.2691120  22.4072180  44.5187560  66.1487140
  21.4709960  43.8426710  65.1697980  36.8403000  43.0744540  68.2821590
  36.6089090  42.8457290  67.3819540  37.1007550  43.9944090  68.2366480
  21.5915140  41.5169250  69.1749540  20.6971190  41.4836010  69.5143250
  22.1312690  41.7156040  69.9400790  35.2791070  38.3000970  71.0601290
  36.1561250  38.3084370  71.4435290  35.2911910  37.5631810  70.4493640
  20.2161290  41.4306520  56.6713110  19.3125370  41.6936720  56.4964770
  20.7001910  41.7017690  55.8913070  36.7254340  42.1530510  61.9489310
  37.2491820  41.6593160  61.3179480  37.3113760  42.2880870  62.6936880
  36.9044060  42.2370380  65.4708860  35.9546770  42.2033920  65.5853850
  37.0857070  43.1470490  65.2358630  22.7588500  40.4872060  54.5807490
  23.4680200  40.0655280  54.0954770  22.0428440  40.5547290  53.9490840
  22.4062660  36.5411390  53.6210140  23.1290790  37.0820330  53.9391360
  22.6787180  36.2674810  52.7451680  36.2154310  41.4103860  57.8881720
  36.7113430  41.1774730  58.6730600  36.0170380  40.5715700  57.4719360
  22.0954850  35.7917580  63.5232760  22.7431040  35.2414960  63.0827920
  22.5156690  36.0460730  64.3448570  37.6441470  40.0464810  60.4219400
  37.5340750  39.8920850  61.3601670  38.4049060  39.5185750  60.1794810
  35.9907190  35.9858940  66.8802400  36.6279410  36.5993080  67.2461590
  36.1382080  36.0219600  65.9351630  35.5488650  52.6874940  60.2820640
  36.1447720  52.3659510  59.6055060  35.8066800  52.2146760  61.0733910
  21.8486850  35.9473250  66.2658080  21.5001670  36.4037070  67.0316260
  21.5174550  35.0530380  66.3480510  23.4551220  49.1192850  70.4311270
  23.4120850  48.7485760  71.3125730  23.5862230  50.0570420  70.5713090
  27.1557250  50.6752440  66.0320990  26.9148610  50.9427000  65.1451510
  28.0959890  50.8458170  66.0871850  29.3611670  37.1385130  69.7877500
  29.3000560  37.7306960  70.5372910  30.3012050  37.0311090  69.6427760
  31.9986230  36.7955190  69.4269790  32.6126640  37.1134480  68.7650870
  32.5435790  36.3103780  70.0465650  38.4161410  52.6946820  66.8331630
  37.9219690  53.0915690  66.1158760  37.8074700  52.0696030  67.2268910
  22.5207490  35.4749450  69.5408850  23.0690480  35.2937500  68.7774960
  22.5862800  34.6843560  70.0765160  23.2939250  52.0655100  67.5509050
  22.6999570  51.9339800  68.2899090  23.2863090  51.2293240  67.0851150
  32.7394270  35.3587330  65.7539080  31.8654110  35.6922440  65.5512010
  32.6305020  34.8860510  66.5790950  33.6466250  37.5658200  67.1380800
  33.3179610  36.7509960  66.7582530  34.5948550  37.5228010  67.0146490
  36.1000860  53.3370240  64.1118370  35.6403830  54.0886050  63.7376390
  35.4713320  52.6176710  64.0533170  22.9251480  49.4313480  66.5017090
  22.1985540  48.8118770  66.4343040  22.9860630  49.8254090  65.6315170
  26.5296580  51.6458480  63.2866500  27.0461600  51.0345840  62.7614760
  27.1793960  52.1487260  63.7777510  29.2692080  52.5366970  64.1135480
  29.5569890  52.2821270  63.2368490  29.7815300  51.9844330  64.7041050
  30.4869090  36.2757170  64.6931990  29.7040880  36.7502670  64.9728750
  30.1932020  35.3712000  64.5845170  35.0390160  36.9780270  62.7381080
  35.4798250  36.9225370  61.8902680  34.7697750  37.8938280  62.8091260
  36.9028730  36.6095510  60.7489900  36.8417130  35.6656730  60.6020920
  37.6820760  36.7175600  61.2943360  21.2081480  52.7487870  59.7113850
  21.0403520  52.1158550  60.4095740  20.3415990  52.9547270  59.3608040
  21.8309500  36.5804650  57.2145710  22.5888860  36.6933530  56.6409740
  21.3686670  37.4173850  57.1689140  28.3723310  38.6943920  60.2048020
  27.5597820  38.3200810  59.8643900  28.8764950  37.9389000  60.5069210
  32.8748290  35.3586370  61.4431090  33.4777660  35.9306580  61.9179610
  32.1341280  35.9225810  61.2204990  22.8144180  51.4421100  57.1563990
  22.2891800  51.8229130  56.4525950  22.7388760  52.0671870  57.8773700
  24.2034650  37.1068700  55.7547680  24.7327410  36.3198500  55.6255630
  24.8362970  37.7859890  55.9883210  26.3972490  36.8443840  58.8093070
  25.7675230  36.1431150  58.9763200  25.8577630  37.6047970  58.5926230
  29.3364440  53.4583070  71.4803680  30.2631750  53.2227340  71.5239640
  29.3214870  54.2855070  70.9989710  37.5709500  53.0008640  58.4777930
  37.7461690  52.3146380  57.8338850  36.8731070  53.5255690  58.0854600
  26.5228050  36.1227820  71.2445560  26.2412320  36.6261420  70.4806380
  26.9047750  35.3249570  70.8787690  25.4137150  53.3903480  56.0313240
  26.1455970  53.1062760  55.4837130  25.6730820  53.1516760  56.9212620
  24.5751940  49.5068210  56.0359570  23.9460820  49.9753310  56.5845400
  24.6899770  48.6617430  56.4705760  33.1243510  35.5381400  71.8226030
  33.0108960  35.8576010  72.7177550  33.9413250  35.9393910  71.5263310
  35.9042000  52.6852930  71.3044720  36.6967320  52.1902160  71.0970680
  36.1975150  53.3643070  71.9120330  32.0301660  43.5573870  42.1860770
  31.9495710  42.6428480  41.9152480  31.6166080  44.0540940  41.4800480
  30.1619700  45.3352890  44.0670040  29.3861800  44.8553330  44.3568610
  30.8132630  44.6558540  43.8926200  24.1785530  45.6472700  44.9445800
  23.3470410  45.3921410  45.3442310  24.7866510  45.7183470  45.6803720
  34.1827130  49.7413080  42.8469170  33.7208660  48.9700320  43.1756340
  34.9952680  49.7679150  43.3521620  24.1586790  49.6812790  45.1403820
  24.4614830  48.7910530  44.9614040  24.9030380  50.2383010  44.9126070
  22.5877480  40.6074590  38.7288190  21.6994180  40.9490560  38.6268070
  22.8718670  40.4074910  37.8369020  20.5510490  43.2080240  44.6127890
  21.1226600  42.4402440  44.6131530  20.5512030  43.5069000  43.7034500
  30.4090440  52.0271090  42.4673160  29.7901880  52.4828590  41.8967600
  31.2642220  52.1822550  42.0662860  29.6028690  48.0110080  44.0740200
  29.5336970  47.0700020  43.9129330  30.3648550  48.1011490  44.6462770
  21.7935360  38.6164600  46.3996820  21.6138200  37.7190350  46.6799580
  21.3915440  39.1636470  47.0743770  30.6333860  40.8180460  44.3009130
  31.0098680  39.9452340  44.1882800  30.5353370  41.1539160  43.4099570
  24.7638870  39.1906090  39.7626570  24.8705620  40.0909820  40.0695330
  23.8531230  39.1424060  39.4721220  34.4157980  38.3130900  41.2337470
  35.2367600  37.8227470  41.2762950  34.4492060  38.9028560  41.9869310
  22.4122030  41.1125100  45.0079160  23.0932140  41.3763470  45.6266560
  22.0970080  40.2725970  45.3417170  26.6046600  42.1592460  44.0951750
  27.1124820  42.6573430  44.7356770  27.1359840  41.3827660  43.9191110
  24.8882700  36.7991020  48.3615170  24.8901140  37.3163410  47.5561070
  24.0587010  36.3221200  48.3385100  31.2753790  46.9110330  39.8605070
  30.6571060  47.3759780  39.2967790  31.7877040  47.6037810  40.2774580
  26.1385550  46.4386200  46.5388670  25.8054930  47.0655120  47.1809740
  26.3152230  46.9648080  45.7590340  34.6519460  40.2531280  44.0065010
  33.9475030  40.5416170  44.5868120  35.0131620  41.0631390  43.6464570
  24.5698030  38.5100980  46.3685620  24.9114840  39.3543030  46.0739490
  23.6313840  38.6584720  46.4850960  25.3504650  48.4067000  48.3537850
  25.9678650  49.0818080  48.0722300  24.4897770  48.8154980  48.2625350
  20.6436990  47.5966860  37.2344700  20.2664970  48.0853960  36.5029600
  20.9010060  48.2692140  37.8651230  36.2682240  49.8706410  46.2692490
  35.5845760  50.5405520  46.2609160  36.8076530  50.0687060  45.5037350
  37.7206380  39.6986070  44.3974220  36.7731290  39.7325050  44.5289650
  38.0456370  40.5125020  44.7823580  28.2525920  35.9983250  42.6930210
  28.5600900  35.4430140  41.9765710  27.3226620  36.1327710  42.5103200
  33.8040980  51.7150540  44.9837670  33.8168140  51.3112830  44.1159930
  33.2516200  52.4897830  44.8799100  35.0986400  48.4366760  40.0727840
  34.9882730  47.4941090  40.1977260  35.0954650  48.7982400  40.9590600
  33.2026420  46.6180380  46.3120280  33.6195210  46.4040490  45.4773740
  33.9266240  46.8753170  46.8828900  30.6406680  44.0632080  39.4290330
  29.7135960  43.9969460  39.6578800  30.7931500  45.0012210  39.3145570
  30.6275760  40.3349080  36.4257490  29.6879430  40.4963040  36.5109950
  30.9459020  41.0534760  35.8793480  37.1488520  45.0167600  46.4036520
  36.3207150  45.0860690  45.9286650  37.7439000  45.6021910  45.9352350
  34.6703970  45.6252380  39.9325580  34.0516390  45.2871930  39.2851880
  34.6528420  44.9812140  40.6404770  26.2463320  44.5896820  42.2110060
  25.8420320  43.8774070  41.7155960  26.3326440  44.2450060  43.0998100
  26.7145020  48.2764380  44.3749270  26.4173310  47.6709850  43.6957050
  27.6644840  48.3141690  44.2638630  24.9591940  41.3640030  45.9909100
  25.5106530  41.4735370  45.2162350  25.4735450  41.7377630  46.7064330
  34.8030630  51.8496250  48.0372370  34.3261190  52.6568440  47.8444980
  34.1192420  51.1974580  48.1898580  25.8063450  48.0146070  51.0257070
  24.9091980  48.2386040  51.2730470  25.8316320  48.1381010  50.0768470
  32.8468670  44.8639190  36.9398330  33.2861950  44.0261620  36.7936150
  33.5597090  45.4968590  37.0262470  24.6334670  44.8859390  49.6014440
  24.4942440  45.7582190  49.9701840  23.7516030  44.5432200  49.4562380
  30.9564050  49.8035260  40.9079570  31.3959960  50.5459590  40.4934960
  30.8950940  50.0461830  41.8318530  26.4315020  50.8281090  51.8099590
  26.4030450  51.2324040  50.9428020  26.2679990  49.8991450  51.6471190
  36.4285810  36.1182000  35.2539370  36.1158470  36.2108830  36.1538440
  37.1898280  36.6963030  35.2036800  22.9467950  43.4841800  39.7116710
  22.8265550  44.2103890  39.0997980  22.6368840  42.7144710  39.2344620
  38.3829840  51.6108190  53.1063760  38.8589560  52.0891080  53.7852840
  39.0037000  51.5425680  52.3809260  20.5853320  46.6556940  45.5185350
  20.6633740  46.7905710  44.5741070  21.1995000  45.9472830  45.7113470
  21.8300950  48.3557130  41.9291530  21.4229030  48.4971720  41.0745130
  22.7213960  48.0717290  41.7262740  37.7863090  48.8021040  50.2663770
  37.9126150  48.5632920  49.3480950  37.8284470  47.9705580  50.7385850
  31.6479830  52.5049040  48.8358580  32.1624500  52.4157050  49.6381010
  30.8048910  52.8508740  49.1286490  33.6234230  52.7904380  38.2642580
  33.4635370  52.5007320  39.1624410  33.4580940  52.0144510  37.7287810
  26.1022610  52.5702910  40.0414200  25.9265090  51.6538450  39.8282000
  25.2478350  52.9290200  40.2812000  33.3260360  50.2991940  36.8240580
  32.6325520  50.2969230  36.1642860  34.0683220  49.8751260  36.3934750
  32.8910290  51.9254650  40.8989070  33.3467240  51.1444030  41.2127690
  33.2302810  52.6361470  41.4430250  20.6412840  47.6971110  48.0579810
  20.8043880  47.2276470  47.2399180  21.1065290  47.1894670  48.7228650
  25.4131610  36.8276870  43.0940380  24.9699760  37.6086410  42.7624900
  25.9716600  37.1506760  43.8011320  29.7001420  39.6945390  48.6975700
  29.2380790  39.9028410  49.5095640  29.2979530  38.8804740  48.3946370
  31.7955640  42.4156090  51.9271150  32.1209050  41.5819840  51.5873380
  32.5835970  42.9384610  52.0749480  28.5290430  36.4487570  37.9746210
  27.9044610  36.4447440  38.6999520  28.4420550  35.5818530  37.5782180
  27.4507510  37.3724200  44.9529980  27.7479840  38.2787030  44.8722000
  27.9993070  36.8842980  44.3389550  25.2045830  41.9510440  40.8221630
  24.9786750  41.7347610  41.7268250  24.4238360  42.3838900  40.4767600
  32.4343590  41.9573810  39.4212280  31.8352480  42.6809610  39.2375900
  32.9823200  41.8950590  38.6388730  27.6445040  42.8496020  51.4881900
  27.5488640  41.9090750  51.3382300  28.4877020  43.0711090  51.0929970
  31.0408460  40.5937350  41.4515560  31.4338030  40.9109550  40.6384250
  31.4025310  39.7149230  41.5660080  22.7755580  39.2609690  49.6415680
  22.3818970  40.1084900  49.8488460  22.0873980  38.6236060  49.8324320
  29.3500630  39.3444660  52.7112420  28.6598950  39.1516860  53.3458510
  30.0932930  39.6279300  53.2436720  20.0772630  37.1838150  43.6745760
  19.7885680  37.7541010  44.3870740  20.8218390  36.7042600  44.0376990
  20.2642860  41.1258270  34.8848480  20.1817530  42.0689030  35.0263470
  19.9125920  40.9833180  34.0060830  31.6263600  43.1843100  45.5466340
  30.8944720  43.6929910  45.8956440  31.2287940  42.3673080  45.2455120
  28.0640990  39.8597300  43.9518830  28.0677050  39.4187250  43.1023370
  28.9592110  40.1814630  44.0590650  23.9143370  39.7423790  42.9113040
  23.5743420  40.2199020  43.6680090  23.1520690  39.2888910  42.5514140
  28.1261140  40.8609380  36.9425590  28.2473960  40.8195860  37.8911410
  27.7409650  41.7233530  36.7872320  32.0889510  38.6376780  44.9589280
  32.1062250  39.0885430  45.8031130  31.8405090  37.7382420  45.1722720
  27.1382640  43.1710520  36.3408890  26.5699540  42.7228770  35.7144800
  27.8471640  43.5303300  35.8074040  22.2151820  47.0722540  50.2175620
  21.8306610  46.4316210  50.8158580  22.5264010  47.7758660  50.7870350
  28.3648960  43.9199080  45.6984240  28.7319090  43.4457650  46.4445580
  28.1754020  44.7940650  46.0392580  21.2289450  38.6642770  41.8277710
  20.9436370  38.2998440  42.6656330  21.1668310  37.9323230  41.2140850
  26.1548330  42.9607720  48.0168450  25.8505400  43.8399700  48.2418810
  27.1094790  43.0207510  48.0525890  24.6830120  47.1668710  38.6135300
  23.9092380  46.6266330  38.4534020  25.4124750  46.6475320  38.2753060
  35.4418100  46.1634070  44.4061690  36.1617220  46.6589360  44.0157800
  35.2399920  45.4851960  43.7615560  30.9028040  37.5572030  38.5491080
  30.0892650  37.0585200  38.4736390  30.7089990  38.3970280  38.1327430
  30.8236900  46.2343130  50.2930690  30.7574210  45.3138800  50.0388280
  30.1942040  46.3318570  51.0075330  33.6176430  41.9291680  36.8453240
  34.5056050  42.2408910  36.6704580  33.5881520  41.0563930  36.4533820
  24.7267520  46.8349090  42.2514110  25.2446190  46.0317350  42.1971000
  24.2751540  46.7728230  43.0930940  29.6137020  48.1015370  37.5241410
  29.9552720  48.8457600  37.0284730  28.7849730  48.4146490  37.8866240
  22.2112060  43.8010460  49.1639810  21.8527000  44.4664310  49.7513150
  21.9166620  42.9694010  49.5352430  25.4125180  44.2594700  52.0479360
  25.1125320  44.4051880  51.1507180  26.1836420  43.6999990  51.9552750
  30.7553630  49.0563700  50.0434490  30.7698170  48.1244660  49.8253400
  30.0478730  49.1423460  50.6824260  35.8890700  43.2403520  36.3133100
  35.8054420  43.6717740  35.4629540  36.6084890  43.7001870  36.7459920
  36.9664840  45.6971040  49.3903070  36.2413030  46.2899820  49.1932460
  37.4940300  45.6894580  48.5916440  36.9177950  50.0945780  39.0415230
  36.2754110  49.4401400  39.3158950  36.5308610  50.5000870  38.2655900
  32.4964430  47.4231210  42.8886920  32.8488250  46.8259340  42.2288290
  31.6126760  47.0975440  43.0595170  28.5827710  48.1828900  40.2957330
  29.2698840  48.7298110  40.6764920  27.7960130  48.7269630  40.3306940
  20.7220110  43.8001720  35.7874410  21.5914960  44.0826520  36.0710330
  20.2310430  44.6137590  35.6723220  27.8854920  45.1874930  39.9082690
  28.3417700  45.9980180  40.1342880  27.5343130  44.8698070  40.7401180
  30.1887530  50.6981270  47.1374990  30.8329750  50.9040650  47.8148410
  30.5516970  49.9369670  46.6845840  23.7866700  35.5312580  40.3805210
  23.6581330  35.5230480  41.3290130  22.9628720  35.8695670  40.0296220
  31.4619610  48.7013620  45.8552440  32.1041840  48.0006780  45.9684610
  31.9868960  49.4812060  45.6749330  35.3075330  48.9862240  35.5791580
  35.0812910  48.2692680  36.1716220  34.9171530  48.7374680  34.7413330
  33.2357230  49.5008520  49.0588500  33.5713470  50.0875210  49.7366420
  32.3157570  49.3701230  49.2886290  21.0891360  53.0129100  36.3536040
  21.4489000  53.6118440  35.6993310  20.9483700  53.5588990  37.1271070
  20.7860630  37.2903700  49.8411910  20.0719150  37.4900620  50.4464520
  21.2055670  36.5143270  50.2126710  34.8891580  46.9034180  37.2405740
  34.6013280  47.3646870  38.0283620  35.6843750  46.4431950  37.5089960
  21.0733220  51.2783960  50.8278440  21.1824340  50.3378700  50.6873830
  20.4213780  51.5438710  50.1792170  29.0645810  49.5499850  52.2276560
  28.7442680  48.8309090  52.7722250  28.3904170  50.2254920  52.3012620
  27.1059980  50.3960300  37.1709710  27.0970080  51.1289990  36.5554220
  26.1858340  50.1491880  37.2636670  22.7066620  45.6175190  37.9156470
  22.0994570  46.3574090  37.9251770  23.1815970  45.7074550  37.0894670
  35.6461440  38.7382950  38.4000920  35.0174600  38.8428620  37.6859150
  35.1513360  38.9579730  39.1894800  30.0919580  50.4588540  35.8334900
  30.1931560  50.2552530  34.9036880  29.1921320  50.2046820  36.0382680
  27.6145470  41.0168900  39.8158800  26.9061620  41.4855240  40.2572410
  27.8989950  40.3590910  40.4503990  29.2401400  42.4365600  47.8151330
  29.7386650  42.9111420  48.4803180  29.3824350  41.5129120  48.0221360
  31.6460900  37.7419560  41.2554590  31.5228680  37.7605690  40.3064100
  32.5945460  37.7898500  41.3752990  28.7337690  52.9774860  40.5282570
  28.9879190  52.9396250  39.6061940  27.7850170  52.8508190  40.5210820
  25.8180490  39.3253980  37.1909510  26.6671020  39.7624130  37.1249700
  25.4511760  39.6374240  38.0181570  34.7390270  43.8966740  42.1041080
  33.7980410  43.9116970  42.2788770  35.0534340  43.1102700  42.5501380
  24.7171910  45.5786340  35.6645040  25.4835180  45.4667700  36.2270470
  24.7946600  44.8824310  35.0121810  23.4118670  43.0111410  36.3477930
  23.4922260  42.0638920  36.4595330  24.3038420  43.3418290  36.4538590
  36.7415850  51.0675590  43.7795340  36.8663270  51.8906760  44.2519150
  37.6081410  50.8566320  43.4319490  24.2133380  53.1606800  43.4512470
  24.9495860  52.6122260  43.7221040  24.5974300  54.0262810  43.3118460
  21.0978860  49.2280370  39.3253980  20.1718640  49.4701510  39.3159390
  21.5635290  50.0554630  39.2038730  23.2191660  52.3452870  52.6398050
  24.0204390  52.6664920  53.0533450  22.7043480  51.9848450  53.3617960
  27.3235690  52.3337110  35.2738040  28.1164300  52.6225940  34.8219830
  26.8040040  51.9029280  34.5950520  32.0556290  48.4532740  52.5873460
  31.4494450  48.4764340  51.8469210  31.7510400  47.7215780  53.1240710
  33.4856660  52.1813030  51.1982870  34.4378410  52.0971050  51.1483110
  33.3384880  52.8454740  51.8716660  36.3765860  51.5607240  36.6974780
  36.0907370  51.1472380  35.8828960  36.1785410  52.4894950  36.5775300
  20.9389470  44.8326330  51.5834100  21.4428490  44.2533610  52.1550330
  20.1996890  45.1166560  52.1210470  27.8413090  47.5540520  35.1380390
  27.7363730  46.9392870  35.8641770  27.6737310  47.0306410  34.3543400
  27.9927410  46.2397320  51.1169620  27.2273080  46.8082320  51.0324290
  28.1743370  45.9473530  50.2237850  31.0815820  46.6160550  35.7422380
  30.5325920  47.0629850  36.3865120  31.7035080  46.1109800  36.2660050
  35.1350760  47.9702650  51.6744640  35.8760230  48.3078410  51.1712100
  34.3723440  48.1394710  51.1214410  22.9712550  42.9755920  52.4784170
  23.0117890  42.6769790  53.3869400  23.8258050  43.3763530  52.3191690
  26.7490940  45.5751470  37.6387680  27.1707360  45.4091340  38.4819070
  26.8741780  44.7651700  37.1442820  24.9118360  41.5548020  50.4458660
  24.3814820  41.0638970  49.8182000  25.5806430  41.9832220  49.9116590
  29.2618580  44.5989080  34.8864780  29.7824240  43.8838100  34.5205930
  29.9086980  45.2374950  35.1865290  33.8096420  46.0217480  50.2099850
  34.2237440  46.1762560  51.0590270  32.8747420  46.1472700  50.3725630
  34.2818590  43.3613640  52.2139000  34.8639360  42.6065960  52.1259480
  34.4580360  43.8921080  51.4370480  25.3990660  38.5210390  50.5255950
  25.3047530  37.9031140  49.8006820  24.8188050  39.2476680  50.2985860
  28.1652100  37.0783630  47.5583340  27.7169400  37.1007890  46.7128890
  27.5317300  36.6802650  48.1553640  28.5711650  45.9737960  48.1795780
  28.9899760  46.8170690  48.0072020  27.6520280  46.1110000  47.9502560
  30.9075550  43.7054140  49.5633620  31.0271760  43.1095280  50.3028460
  31.7669550  43.7423830  49.1434920  33.2463450  44.2591330  48.1396130
  32.7198670  44.7833950  47.5361270  33.5894790  44.8918720  48.7705860
  25.6449840  41.6484700  34.5845840  25.4438900  40.7852060  34.9459180
  25.4741890  41.5618060  33.6467440  26.4219070  52.2790970  49.2953510
  25.8840160  53.0037030  48.9762210  26.6753030  51.8021310  48.5050850
  27.6744320  40.2475490  50.8209440  28.2644010  39.9391340  51.5087260
  26.8564560  39.7755240  50.9769340  33.1238150  36.4592930  37.1132720
  33.4040440  35.6160830  37.4692140  32.3503880  36.6916040  37.6271470
  24.4432640  38.7485320  34.5723720  24.7458540  38.7552750  33.6642870
  25.1827230  38.3983180  35.0691380  29.2781280  53.5142180  49.5540160
  29.2039980  54.4177320  49.8612530  28.3760120  53.1954080  49.5262230
  27.6617570  37.6919940  35.5579920  27.3139570  37.0143930  34.9782370
  27.8630340  37.2309450  36.3723310  29.8266610  52.6800690  37.1766520
  30.7217400  53.0185660  37.1985280  29.8584240  51.9580100  36.5490800
  23.4662770  48.0527740  35.4053520  23.9037640  48.5957410  36.0611100
  23.9510500  47.2274690  35.4149860  20.6808570  50.8416770  42.8573780
  21.0111580  49.9737830  42.6252420  21.1099570  51.0475290  43.6878740
  25.2770490  49.1725780  40.5175750  24.9766030  49.0490750  41.4179660
  25.1707980  48.3134370  40.1091480  21.1698780  51.7087360  45.5955410
  20.7329770  51.8888160  46.4279560  21.7376460  52.4661980  45.4537130
  36.8060960  51.2104360  49.8832720  36.2062950  51.2696920  49.1396640
  36.9354860  50.2709340  50.0129570  38.0462410  48.9522180  35.2202430
  37.2155370  49.0198830  35.6909660  38.2234240  49.8426300  34.9169290
  37.5018870  45.6969660  37.7236630  38.2637780  46.2666310  37.8296320
  37.5173240  45.1296860  38.4944940  21.0023210  44.2207590  41.9544290
  20.3472050  43.9519230  41.3103990  21.8401160  44.1112070  41.5046270
  38.5078840  46.5519760  42.5678560  38.8787670  45.7687080  42.1614530
  39.1480770  47.2408860  42.3895860  35.4912600  47.9356340  47.9808880
  34.6772440  48.3653500  48.2434670  35.8986800  48.5474750  47.3677930
  37.5538040  45.9904030  34.8809150  37.8286880  46.8982910  34.7528370
  37.3648780  45.9266560  35.8171140  33.9513650  39.0148880  36.1762780
  34.3698530  38.8279860  35.3359440  33.6449710  38.1627930  36.4865710
  37.4503380  43.9273020  39.8738580  37.0746980  43.1600950  39.4419870
  36.7206500  44.3095720  40.3613510  22.0399140  44.6060160  46.4947630
  22.4072180  44.5187560  47.3743650  21.4709960  43.8426710  46.3954490
  36.8403000  43.0744540  49.5078100  36.6089090  42.8457290  48.6076050
  37.1007550  43.9944090  49.4622990  21.5915140  41.5169250  50.4006050
  20.6971190  41.4836010  50.7399760  22.1312690  41.7156040  51.1657300
  20.2161290  41.4306520  37.8969620  19.3125370  41.6936720  37.7221280
  20.7001910  41.7017690  37.1169580  36.7254340  42.1530510  43.1745820
  37.2491820  41.6593160  42.5435990  37.3113760  42.2880870  43.9193390
  36.9044060  42.2370380  46.6965370  35.9546770  42.2033920  46.8110360
  37.0857070  43.1470490  46.4615140  22.7588500  40.4872060  35.8064000
  23.4680200  40.0655280  35.3211280  22.0428440  40.5547290  35.1747350
  22.4062660  36.5411390  34.8466650  23.1290790  37.0820330  35.1647870
  22.6787180  36.2674810  33.9708190  36.2154310  41.4103860  39.1138230
  36.7113430  41.1774730  39.8987110  36.0170380  40.5715700  38.6975870
  22.0954850  35.7917580  44.7489270  22.7431040  35.2414960  44.3084430
  22.5156690  36.0460730  45.5705080  37.6441470  40.0464810  41.6475910
  37.5340750  39.8920850  42.5858180  38.4049060  39.5185750  41.4051320
  38.5331740  37.8772730  34.8882050  39.4581050  37.7453910  34.6800340
  38.5107530  37.9565550  35.8418500  38.6070230  38.6483390  37.5138760
  37.8121730  38.5828510  38.0431670  38.8113510  39.5834030  37.5024110
  35.5488650  52.6874940  41.5077150  36.1447720  52.3659510  40.8311570
  35.8066800  52.2146760  42.2990420  21.8486850  35.9473250  47.4914590
  21.5001670  36.4037070  48.2572770  21.5174550  35.0530380  47.5737020
  23.4551220  49.1192850  51.6567780  23.4120850  48.7485760  52.5382240
  23.5862230  50.0570420  51.7969600  27.1557250  50.6752440  47.2577500
  26.9148610  50.9427000  46.3708020  28.0959890  50.8458170  47.3128360
  29.3611670  37.1385130  51.0134010  29.3000560  37.7306960  51.7629420
  30.3012050  37.0311090  50.8684270  38.4161410  52.6946820  48.0588140
  37.9219690  53.0915690  47.3415270  37.8074700  52.0696030  48.4525420
  22.5207490  35.4749450  50.7665360  23.0690480  35.2937500  50.0031470
  22.5862800  34.6843560  51.3021670  23.2939250  52.0655100  48.7765560
  22.6999570  51.9339800  49.5155600  23.2863090  51.2293240  48.3107660
  32.7394270  35.3587330  46.9795590  31.8654110  35.6922440  46.7768520
  32.6305020  34.8860510  47.8047460  36.1000860  53.3370240  45.3374880
  35.6403830  54.0886050  44.9632900  35.4713320  52.6176710  45.2789680
  22.9251480  49.4313480  47.7273600  22.1985540  48.8118770  47.6599550
  22.9860630  49.8254090  46.8571680  26.5296580  51.6458480  44.5123010
  27.0461600  51.0345840  43.9871270  27.1793960  52.1487260  45.0034020
  29.2692080  52.5366970  45.3391990  29.5569890  52.2821270  44.4625000
  29.7815300  51.9844330  45.9297560  30.4869090  36.2757170  45.9188500
  29.7040880  36.7502670  46.1985260  30.1932020  35.3712000  45.8101680
  35.0390160  36.9780270  43.9637590  35.4798250  36.9225370  43.1159190
  34.7697750  37.8938280  44.0347770  36.9028730  36.6095510  41.9746410
  36.8417130  35.6656730  41.8277430  37.6820760  36.7175600  42.5199870
  21.2081480  52.7487870  40.9370360  21.0403520  52.1158550  41.6352250
  20.3415990  52.9547270  40.5864550  21.8309500  36.5804650  38.4402220
  22.5888860  36.6933530  37.8666250  21.3686670  37.4173850  38.3945650
  28.3723310  38.6943920  41.4304530  27.5597820  38.3200810  41.0900410
  28.8764950  37.9389000  41.7325720  32.8748290  35.3586370  42.6687600
  33.4777660  35.9306580  43.1436120  32.1341280  35.9225810  42.4461500
  36.0182890  35.7607930  37.9427880  36.2133520  36.6591380  38.2095310
  35.2312760  35.5295010  38.4360830  22.8144180  51.4421100  38.3820500
  22.2891800  51.8229130  37.6782460  22.7388760  52.0671870  39.1030210
  24.2034650  37.1068700  36.9804190  24.7327410  36.3198500  36.8512140
  24.8362970  37.7859890  37.2139720  26.3972490  36.8443840  40.0349580
  25.7675230  36.1431150  40.2019710  25.8577630  37.6047970  39.8182740
  29.3364440  53.4583070  52.7060190  30.2631750  53.2227340  52.7496150
  29.3214870  54.2855070  52.2246220  37.5709500  53.0008640  39.7034440
  37.7461690  52.3146380  39.0595360  36.8731070  53.5255690  39.3111110
  26.5228050  36.1227820  52.4702070  26.2412320  36.6261420  51.7062890
  26.9047750  35.3249570  52.1044200  25.4137150  53.3903480  37.2569750
  26.1455970  53.1062760  36.7093640  25.6730820  53.1516760  38.1469130
  24.5751940  49.5068210  37.2616080  23.9460820  49.9753310  37.8101910
  24.6899770  48.6617430  37.6962270  35.9042000  52.6852930  52.5301230
  36.6967320  52.1902160  52.3227190  36.1975150  53.3643070  53.1376840
  32.0301660  43.5573870  23.4117280  31.9495710  42.6428480  23.1408990
  31.6166080  44.0540940  22.7056990  30.1619700  45.3352890  25.2926550
  29.3861800  44.8553330  25.5825120  30.8132630  44.6558540  25.1182710
  24.1785530  45.6472700  26.1702310  23.3470410  45.3921410  26.5698820
  24.7866510  45.7183470  26.9060230  34.1827130  49.7413080  24.0725680
  33.7208660  48.9700320  24.4012850  34.9952680  49.7679150  24.5778130
  24.1586790  49.6812790  26.3660330  24.4614830  48.7910530  26.1870550
  24.9030380  50.2383010  26.1382580  22.5877480  40.6074590  19.9544700
  21.6994180  40.9490560  19.8524580  22.8718670  40.4074910  19.0625530
  20.5510490  43.2080240  25.8384400  21.1226600  42.4402440  25.8388040
  20.5512030  43.5069000  24.9291010  30.4090440  52.0271090  23.6929670
  29.7901880  52.4828590  23.1224110  31.2642220  52.1822550  23.2919370
  29.6028690  48.0110080  25.2996710  29.5336970  47.0700020  25.1385840
  30.3648550  48.1011490  25.8719280  21.7935360  38.6164600  27.6253330
  21.6138200  37.7190350  27.9056090  21.3915440  39.1636470  28.3000280
  30.6333860  40.8180460  25.5265640  31.0098680  39.9452340  25.4139310
  30.5353370  41.1539160  24.6356080  24.7638870  39.1906090  20.9883080
  24.8705620  40.0909820  21.2951840  23.8531230  39.1424060  20.6977730
  34.4157980  38.3130900  22.4593980  35.2367600  37.8227470  22.5019460
  34.4492060  38.9028560  23.2125820  22.4122030  41.1125100  26.2335670
  23.0932140  41.3763470  26.8523070  22.0970080  40.2725970  26.5673680
  26.6046600  42.1592460  25.3208260  27.1124820  42.6573430  25.9613280
  27.1359840  41.3827660  25.1447620  38.7057530  40.3297650  29.0237610
  38.0009700  40.7179360  28.5052720  38.9715450  41.0247940  29.6258540
  24.8882700  36.7991020  29.5871680  24.8901140  37.3163410  28.7817580
  24.0587010  36.3221200  29.5641610  31.2753790  46.9110330  21.0861580
  30.6571060  47.3759780  20.5224300  31.7877040  47.6037810  21.5031090
  26.1385550  46.4386200  27.7645180  25.8054930  47.0655120  28.4066250
  26.3152230  46.9648080  26.9846850  34.6519460  40.2531280  25.2321520
  33.9475030  40.5416170  25.8124630  35.0131620  41.0631390  24.8721080
  24.5698030  38.5100980  27.5942130  24.9114840  39.3543030  27.2996000
  23.6313840  38.6584720  27.7107470  25.3504650  48.4067000  29.5794360
  25.9678650  49.0818080  29.2978810  24.4897770  48.8154980  29.4881860
  20.6436990  47.5966860  18.4601210  20.2664970  48.0853960  17.7286110
  20.9010060  48.2692140  19.0907740  36.2682240  49.8706410  27.4949000
  35.5845760  50.5405520  27.4865670  36.8076530  50.0687060  26.7293860
  37.7206380  39.6986070  25.6230730  36.7731290  39.7325050  25.7546160
  38.0456370  40.5125020  26.0080090  28.2525920  35.9983250  23.9186720
  28.5600900  35.4430140  23.2022220  27.3226620  36.1327710  23.7359710
  33.8040980  51.7150540  26.2094180  33.8168140  51.3112830  25.3416440
  33.2516200  52.4897830  26.1055610  35.0986400  48.4366760  21.2984350
  34.9882730  47.4941090  21.4233770  35.0954650  48.7982400  22.1847110
  33.2026420  46.6180380  27.5376790  33.6195210  46.4040490  26.7030250
  33.9266240  46.8753170  28.1085410  30.6406680  44.0632080  20.6546840
  29.7135960  43.9969460  20.8835310  30.7931500  45.0012210  20.5402080
  30.6275760  40.3349080  17.6514000  29.6879430  40.4963040  17.7366460
  30.9459020  41.0534760  17.1049990  37.1488520  45.0167600  27.6293030
  36.3207150  45.0860690  27.1543160  37.7439000  45.6021910  27.1608860
  34.6703970  45.6252380  21.1582090  34.0516390  45.2871930  20.5108390
  34.6528420  44.9812140  21.8661280  34.1130530  41.8036920  28.5747900
  33.7001710  42.6290630  28.8287890  33.3806480  41.2181960  28.3824260
  26.2463320  44.5896820  23.4366570  25.8420320  43.8774070  22.9412470
  26.3326440  44.2450060  24.3254610  26.7145020  48.2764380  25.6005780
  26.4173310  47.6709850  24.9213560  27.6644840  48.3141690  25.4895140
  24.9591940  41.3640030  27.2165610  25.5106530  41.4735370  26.4418860
  25.4735450  41.7377630  27.9320840  34.8030630  51.8496250  29.2628880
  34.3261190  52.6568440  29.0701490  34.1192420  51.1974580  29.4155090
  25.8063450  48.0146070  32.2513580  24.9091980  48.2386040  32.4986980
  25.8316320  48.1381010  31.3024980  32.8468670  44.8639190  18.1654840
  33.2861950  44.0261620  18.0192660  33.5597090  45.4968590  18.2518980
  24.6334670  44.8859390  30.8270950  24.4942440  45.7582190  31.1958350
  23.7516030  44.5432200  30.6818890  30.9564050  49.8035260  22.1336080
  31.3959960  50.5459590  21.7191470  30.8950940  50.0461830  23.0575040
  26.4315020  50.8281090  33.0356100  26.4030450  51.2324040  32.1684530
  26.2679990  49.8991450  32.8727700  36.4285810  36.1182000  16.4795880
  36.1158470  36.2108830  17.3794950  37.1898280  36.6963030  16.4293310
  22.9467950  43.4841800  20.9373220  22.8265550  44.2103890  20.3254490
  22.6368840  42.7144710  20.4601130  38.3829840  51.6108190  34.3320270
  38.8589560  52.0891080  35.0109350  39.0037000  51.5425680  33.6065770
  20.5853320  46.6556940  26.7441860  20.6633740  46.7905710  25.7997580
  21.1995000  45.9472830  26.9369980  21.8300950  48.3557130  23.1548040
  21.4229030  48.4971720  22.3001640  22.7213960  48.0717290  22.9519250
  37.7863090  48.8021040  31.4920280  37.9126150  48.5632920  30.5737460
  37.8284470  47.9705580  31.9642360  31.6479830  52.5049040  30.0615090
  32.1624500  52.4157050  30.8637520  30.8048910  52.8508740  30.3543000
  33.6234230  52.7904380  19.4899090  33.4635370  52.5007320  20.3880920
  33.4580940  52.0144510  18.9544320  26.1022610  52.5702910  21.2670710
  25.9265090  51.6538450  21.0538510  25.2478350  52.9290200  21.5068510
  33.3260360  50.2991940  18.0497090  32.6325520  50.2969230  17.3899370
  34.0683220  49.8751260  17.6191260  32.8910290  51.9254650  22.1245580
  33.3467240  51.1444030  22.4384200  33.2302810  52.6361470  22.6686760
  37.6387100  40.8553500  32.4570020  37.0231370  41.3633170  31.9285480
  37.3183520  39.9551830  32.3995960  20.6412840  47.6971110  29.2836320
  20.8043880  47.2276470  28.4655690  21.1065290  47.1894670  29.9485160
  25.4131610  36.8276870  24.3196890  24.9699760  37.6086410  23.9881410
  25.9716600  37.1506760  25.0267830  29.7001420  39.6945390  29.9232210
  29.2380790  39.9028410  30.7352150  29.2979530  38.8804740  29.6202880
  34.7005930  40.9154340  31.0528870  33.8499520  40.6160090  31.3737940
  34.5407720  41.1596350  30.1412690  31.7955640  42.4156090  33.1527660
  32.1209050  41.5819840  32.8129890  32.5835970  42.9384610  33.3005990
  28.5290430  36.4487570  19.2002720  27.9044610  36.4447440  19.9256030
  28.4420550  35.5818530  18.8038690  27.4507510  37.3724200  26.1786490
  27.7479840  38.2787030  26.0978510  27.9993070  36.8842980  25.5646060
  25.2045830  41.9510440  22.0478140  24.9786750  41.7347610  22.9524760
  24.4238360  42.3838900  21.7024110  32.4343590  41.9573810  20.6468790
  31.8352480  42.6809610  20.4632410  32.9823200  41.8950590  19.8645240
  27.6445040  42.8496020  32.7138410  27.5488640  41.9090750  32.5638810
  28.4877020  43.0711090  32.3186480  31.0408460  40.5937350  22.6772070
  31.4338030  40.9109550  21.8640760  31.4025310  39.7149230  22.7916590
  22.7755580  39.2609690  30.8672190  22.3818970  40.1084900  31.0744970
  22.0873980  38.6236060  31.0580830  29.3500630  39.3444660  33.9368930
  28.6598950  39.1516860  34.5715020  30.0932930  39.6279300  34.4693230
  20.0772630  37.1838150  24.9002270  19.7885680  37.7541010  25.6127250
  20.8218390  36.7042600  25.2633500  20.2642860  41.1258270  16.1104990
  20.1817530  42.0689030  16.2519980  19.9125920  40.9833180  15.2317340
  31.6263600  43.1843100  26.7722850  30.8944720  43.6929910  27.1212950
  31.2287940  42.3673080  26.4711630  28.0640990  39.8597300  25.1775340
  28.0677050  39.4187250  24.3279880  28.9592110  40.1814630  25.2847160
  23.9143370  39.7423790  24.1369550  23.5743420  40.2199020  24.8936600
  23.1520690  39.2888910  23.7770650  28.1261140  40.8609380  18.1682100
  28.2473960  40.8195860  19.1167920  27.7409650  41.7233530  18.0128830
  32.0889510  38.6376780  26.1845790  32.1062250  39.0885430  27.0287640
  31.8405090  37.7382420  26.3979230  27.1382640  43.1710520  17.5665400
  26.5699540  42.7228770  16.9401310  27.8471640  43.5303300  17.0330550
  35.5160260  36.0508960  32.0232170  35.8406030  35.3198620  32.5490150
  35.5516770  35.7322600  31.1213160  22.2151820  47.0722540  31.4432130
  21.8306610  46.4316210  32.0415090  22.5264010  47.7758660  32.0126860
  28.3648960  43.9199080  26.9240750  28.7319090  43.4457650  27.6702090
  28.1754020  44.7940650  27.2649090  21.2289450  38.6642770  23.0534220
  20.9436370  38.2998440  23.8912840  21.1668310  37.9323230  22.4397360
  26.1548330  42.9607720  29.2424960  25.8505400  43.8399700  29.4675320
  27.1094790  43.0207510  29.2782400  24.6830120  47.1668710  19.8391810
  23.9092380  46.6266330  19.6790530  25.4124750  46.6475320  19.5009570
  35.4418100  46.1634070  25.6318200  36.1617220  46.6589360  25.2414310
  35.2399920  45.4851960  24.9872070  30.9028040  37.5572030  19.7747590
  30.0892650  37.0585200  19.6992900  30.7089990  38.3970280  19.3583940
  30.8236900  46.2343130  31.5187200  30.7574210  45.3138800  31.2644790
  30.1942040  46.3318570  32.2331840  33.6176430  41.9291680  18.0709750
  34.5056050  42.2408910  17.8961090  33.5881520  41.0563930  17.6790330
  24.7267520  46.8349090  23.4770620  25.2446190  46.0317350  23.4227510
  24.2751540  46.7728230  24.3187450  29.6137020  48.1015370  18.7497920
  29.9552720  48.8457600  18.2541240  28.7849730  48.4146490  19.1122750
  22.2112060  43.8010460  30.3896320  21.8527000  44.4664310  30.9769660
  21.9166620  42.9694010  30.7608940  25.4125180  44.2594700  33.2735870
  25.1125320  44.4051880  32.3763690  26.1836420  43.6999990  33.1809260
  30.7553630  49.0563700  31.2691000  30.7698170  48.1244660  31.0509910
  30.0478730  49.1423460  31.9080770  35.8890700  43.2403520  17.5389610
  35.8054420  43.6717740  16.6886050  36.6084890  43.7001870  17.9716430
  36.9664840  45.6971040  30.6159580  36.2413030  46.2899820  30.4188970
  37.4940300  45.6894580  29.8172950  36.9177950  50.0945780  20.2671740
  36.2754110  49.4401400  20.5415460  36.5308610  50.5000870  19.4912410
  32.4964430  47.4231210  24.1143430  32.8488250  46.8259340  23.4544800
  31.6126760  47.0975440  24.2851680  28.5827710  48.1828900  21.5213840
  29.2698840  48.7298110  21.9021430  27.7960130  48.7269630  21.5563450
  20.7220110  43.8001720  17.0130920  21.5914960  44.0826520  17.2966840
  20.2310430  44.6137590  16.8979730  27.8854920  45.1874930  21.1339200
  28.3417700  45.9980180  21.3599390  27.5343130  44.8698070  21.9657690
  30.1887530  50.6981270  28.3631500  30.8329750  50.9040650  29.0404920
  30.5516970  49.9369670  27.9102350  23.7866700  35.5312580  21.6061720
  23.6581330  35.5230480  22.5546640  22.9628720  35.8695670  21.2552730
  31.4619610  48.7013620  27.0808950  32.1041840  48.0006780  27.1941120
  31.9868960  49.4812060  26.9005840  35.3075330  48.9862240  16.8048090
  35.0812910  48.2692680  17.3972730  34.9171530  48.7374680  15.9669840
  33.2357230  49.5008520  30.2845010  33.5713470  50.0875210  30.9622930
  32.3157570  49.3701230  30.5142800  21.0891360  53.0129100  17.5792550
  21.4489000  53.6118440  16.9249820  20.9483700  53.5588990  18.3527580
  20.7860630  37.2903700  31.0668420  20.0719150  37.4900620  31.6721030
  21.2055670  36.5143270  31.4383220  34.8891580  46.9034180  18.4662250
  34.6013280  47.3646870  19.2540130  35.6843750  46.4431950  18.7346470
  21.0733220  51.2783960  32.0534950  21.1824340  50.3378700  31.9130340
  20.4213780  51.5438710  31.4048680  29.0645810  49.5499850  33.4533070
  28.7442680  48.8309090  33.9978760  28.3904170  50.2254920  33.5269130
  27.1059980  50.3960300  18.3966220  27.0970080  51.1289990  17.7810730
  26.1858340  50.1491880  18.4893180  22.7066620  45.6175190  19.1412980
  22.0994570  46.3574090  19.1508280  23.1815970  45.7074550  18.3151180
  32.2799410  39.7826010  28.8169870  32.6480230  38.9621220  29.1449440
  31.4197610  39.8427900  29.2325520  35.6461440  38.7382950  19.6257430
  35.0174600  38.8428620  18.9115660  35.1513360  38.9579730  20.4151310
  30.0919580  50.4588540  17.0591410  30.1931560  50.2552530  16.1293390
  29.1921320  50.2046820  17.2639190  27.6145470  41.0168900  21.0415310
  26.9061620  41.4855240  21.4828920  27.8989950  40.3590910  21.6760500
  29.2401400  42.4365600  29.0407840  29.7386650  42.9111420  29.7059690
  29.3824350  41.5129120  29.2477870  31.6460900  37.7419560  22.4811100
  31.5228680  37.7605690  21.5320610  32.5945460  37.7898500  22.6009500
  28.7337690  52.9774860  21.7539080  28.9879190  52.9396250  20.8318450
  27.7850170  52.8508190  21.7467330  25.8180490  39.3253980  18.4166020
  26.6671020  39.7624130  18.3506210  25.4511760  39.6374240  19.2438080
  36.4468260  38.6533560  29.8836230  35.9441860  39.3938960  30.2230040
  37.2624920  39.0417560  29.5673020  34.7390270  43.8966740  23.3297590
  33.7980410  43.9116970  23.5045280  35.0534340  43.1102700  23.7757890
  24.7171910  45.5786340  16.8901550  25.4835180  45.4667700  17.4526980
  24.7946600  44.8824310  16.2378320  23.4118670  43.0111410  17.5734440
  23.4922260  42.0638920  17.6851840  24.3038420  43.3418290  17.6795100
  36.7415850  51.0675590  25.0051850  36.8663270  51.8906760  25.4775660
  37.6081410  50.8566320  24.6576000  24.2133380  53.1606800  24.6768980
  24.9495860  52.6122260  24.9477550  24.5974300  54.0262810  24.5374970
  21.0978860  49.2280370  20.5510490  20.1718640  49.4701510  20.5415900
  21.5635290  50.0554630  20.4295240  23.2191660  52.3452870  33.8654560
  24.0204390  52.6664920  34.2789960  22.7043480  51.9848450  34.5874470
  27.3235690  52.3337110  16.4994550  28.1164300  52.6225940  16.0476340
  26.8040040  51.9029280  15.8207030  32.0556290  48.4532740  33.8129970
  31.4494450  48.4764340  33.0725720  31.7510400  47.7215780  34.3497220
  33.4856660  52.1813030  32.4239380  34.4378410  52.0971050  32.3739620
  33.3384880  52.8454740  33.0973170  36.3765860  51.5607240  17.9231290
  36.0907370  51.1472380  17.1085470  36.1785410  52.4894950  17.8031810
  20.9389470  44.8326330  32.8090610  21.4428490  44.2533610  33.3806840
  20.1996890  45.1166560  33.3466980  27.8413090  47.5540520  16.3636900
  27.7363730  46.9392870  17.0898280  27.6737310  47.0306410  15.5799910
  27.9927410  46.2397320  32.3426130  27.2273080  46.8082320  32.2580800
  28.1743370  45.9473530  31.4494360  31.0815820  46.6160550  16.9678890
  30.5325920  47.0629850  17.6121630  31.7035080  46.1109800  17.4916560
  35.1350760  47.9702650  32.9001150  35.8760230  48.3078410  32.3968610
  34.3723440  48.1394710  32.3470920  22.9712550  42.9755920  33.7040680
  23.0117890  42.6769790  34.6125910  23.8258050  43.3763530  33.5448200
  26.7490940  45.5751470  18.8644190  27.1707360  45.4091340  19.7075580
  26.8741780  44.7651700  18.3699330  24.9118360  41.5548020  31.6715170
  24.3814820  41.0638970  31.0438510  25.5806430  41.9832220  31.1373100
  29.2618580  44.5989080  16.1121290  29.7824240  43.8838100  15.7462440
  29.9086980  45.2374950  16.4121800  33.8096420  46.0217480  31.4356360
  34.2237440  46.1762560  32.2846780  32.8747420  46.1472700  31.5982140
  34.2818590  43.3613640  33.4395510  34.8639360  42.6065960  33.3515990
  34.4580360  43.8921080  32.6626990  25.3990660  38.5210390  31.7512460
  25.3047530  37.9031140  31.0263330  24.8188050  39.2476680  31.5242370
  28.1652100  37.0783630  28.7839850  27.7169400  37.1007890  27.9385400
  27.5317300  36.6802650  29.3810150  28.5711650  45.9737960  29.4052290
  28.9899760  46.8170690  29.2328530  27.6520280  46.1110000  29.1759070
  30.9075550  43.7054140  30.7890130  31.0271760  43.1095280  31.5284970
  31.7669550  43.7423830  30.3691430  33.2463450  44.2591330  29.3652640
  32.7198670  44.7833950  28.7617780  33.5894790  44.8918720  29.9962370
  25.6449840  41.6484700  15.8102350  25.4438900  40.7852060  16.1715690
  25.4741890  41.5618060  14.8723950  26.4219070  52.2790970  30.5210020
  25.8840160  53.0037030  30.2018720  26.6753030  51.8021310  29.7307360
  27.6744320  40.2475490  32.0465950  28.2644010  39.9391340  32.7343770
  26.8564560  39.7755240  32.2025850  32.4937750  39.8641300  32.2798970
  31.8053270  39.2022840  32.2148960  33.2143770  39.4179570  32.7247430
  33.1238150  36.4592930  18.3389230  33.4040440  35.6160830  18.6948650
  32.3503880  36.6916040  18.8527980  24.4432640  38.7485320  15.7980230
  24.7458540  38.7552750  14.8899380  25.1827230  38.3983180  16.2947890
  29.2781280  53.5142180  30.7796670  29.2039980  54.4177320  31.0869040
  28.3760120  53.1954080  30.7518740  27.6617570  37.6919940  16.7836430
  27.3139570  37.0143930  16.2038880  27.8630340  37.2309450  17.5979820
  29.8266610  52.6800690  18.4023030  30.7217400  53.0185660  18.4241790
  29.8584240  51.9580100  17.7747310  23.4662770  48.0527740  16.6310030
  23.9037640  48.5957410  17.2867610  23.9510500  47.2274690  16.6406370
  20.6808570  50.8416770  24.0830290  21.0111580  49.9737830  23.8508930
  21.1099570  51.0475290  24.9135250  25.2770490  49.1725780  21.7432260
  24.9766030  49.0490750  22.6436170  25.1707980  48.3134370  21.3347990
  21.1698780  51.7087360  26.8211920  20.7329770  51.8888160  27.6536070
  21.7376460  52.4661980  26.6793640  36.8060960  51.2104360  31.1089230
  36.2062950  51.2696920  30.3653150  36.9354860  50.2709340  31.2386080
  38.0462410  48.9522180  16.4458940  37.2155370  49.0198830  16.9166170
  38.2234240  49.8426300  16.1425800  37.5018870  45.6969660  18.9493140
  38.2637780  46.2666310  19.0552830  37.5173240  45.1296860  19.7201450
  21.0023210  44.2207590  23.1800800  20.3472050  43.9519230  22.5360500
  21.8401160  44.1112070  22.7302780  38.5078840  46.5519760  23.7935070
  38.8787670  45.7687080  23.3871040  39.1480770  47.2408860  23.6152370
  35.4912600  47.9356340  29.2065390  34.6772440  48.3653500  29.4691180
  35.8986800  48.5474750  28.5934440  37.5538040  45.9904030  16.1065660
  37.8286880  46.8982910  15.9784880  37.3648780  45.9266560  17.0427650
  33.9513650  39.0148880  17.4019290  34.3698530  38.8279860  16.5615950
  33.6449710  38.1627930  17.7122220  37.4503380  43.9273020  21.0995090
  37.0746980  43.1600950  20.6676380  36.7206500  44.3095720  21.5870020
  22.0399140  44.6060160  27.7204140  22.4072180  44.5187560  28.6000160
  21.4709960  43.8426710  27.6211000  36.8403000  43.0744540  30.7334610
  36.6089090  42.8457290  29.8332560  37.1007550  43.9944090  30.6879500
  21.5915140  41.5169250  31.6262560  20.6971190  41.4836010  31.9656270
  22.1312690  41.7156040  32.3913810  35.2791070  38.3000970  33.5114310
  36.1561250  38.3084370  33.8948310  35.2911910  37.5631810  32.9006660
  20.2161290  41.4306520  19.1226130  19.3125370  41.6936720  18.9477790
  20.7001910  41.7017690  18.3426090  36.7254340  42.1530510  24.4002330
  37.2491820  41.6593160  23.7692500  37.3113760  42.2880870  25.1449900
  36.9044060  42.2370380  27.9221880  35.9546770  42.2033920  28.0366870
  37.0857070  43.1470490  27.6871650  22.7588500  40.4872060  17.0320510
  23.4680200  40.0655280  16.5467790  22.0428440  40.5547290  16.4003860
  22.4062660  36.5411390  16.0723160  23.1290790  37.0820330  16.3904380
  22.6787180  36.2674810  15.1964700  36.2154310  41.4103860  20.3394740
  36.7113430  41.1774730  21.1243620  36.0170380  40.5715700  19.9232380
  22.0954850  35.7917580  25.9745780  22.7431040  35.2414960  25.5340940
  22.5156690  36.0460730  26.7961590  37.6441470  40.0464810  22.8732420
  37.5340750  39.8920850  23.8114690  38.4049060  39.5185750  22.6307830
  35.9907190  35.9858940  29.3315420  36.6279410  36.5993080  29.6974610
  36.1382080  36.0219600  28.3864650  38.5331740  37.8772730  16.1138560
  39.4581050  37.7453910  15.9056850  38.5107530  37.9565550  17.0675010
  38.6070230  38.6483390  18.7395270  37.8121730  38.5828510  19.2688180
  38.8113510  39.5834030  18.7280620  35.5488650  52.6874940  22.7333660
  36.1447720  52.3659510  22.0568080  35.8066800  52.2146760  23.5246930
  21.8486850  35.9473250  28.7171100  21.5001670  36.4037070  29.4829280
  21.5174550  35.0530380  28.7993530  23.4551220  49.1192850  32.8824290
  23.4120850  48.7485760  33.7638750  23.5862230  50.0570420  33.0226110
  27.1557250  50.6752440  28.4834010  26.9148610  50.9427000  27.5964530
  28.0959890  50.8458170  28.5384870  29.3611670  37.1385130  32.2390520
  29.3000560  37.7306960  32.9885930  30.3012050  37.0311090  32.0940780
  31.9986230  36.7955190  31.8782810  32.6126640  37.1134480  31.2163890
  32.5435790  36.3103780  32.4978670  38.4161410  52.6946820  29.2844650
  37.9219690  53.0915690  28.5671780  37.8074700  52.0696030  29.6781930
  22.5207490  35.4749450  31.9921870  23.0690480  35.2937500  31.2287980
  22.5862800  34.6843560  32.5278180  23.2939250  52.0655100  30.0022070
  22.6999570  51.9339800  30.7412110  23.2863090  51.2293240  29.5364170
  32.7394270  35.3587330  28.2052100  31.8654110  35.6922440  28.0025030
  32.6305020  34.8860510  29.0303970  33.6466250  37.5658200  29.5893820
  33.3179610  36.7509960  29.2095550  34.5948550  37.5228010  29.4659510
  36.1000860  53.3370240  26.5631390  35.6403830  54.0886050  26.1889410
  35.4713320  52.6176710  26.5046190  22.9251480  49.4313480  28.9530110
  22.1985540  48.8118770  28.8856060  22.9860630  49.8254090  28.0828190
  26.5296580  51.6458480  25.7379520  27.0461600  51.0345840  25.2127780
  27.1793960  52.1487260  26.2290530  29.2692080  52.5366970  26.5648500
  29.5569890  52.2821270  25.6881510  29.7815300  51.9844330  27.1554070
  30.4869090  36.2757170  27.1445010  29.7040880  36.7502670  27.4241770
  30.1932020  35.3712000  27.0358190  35.0390160  36.9780270  25.1894100
  35.4798250  36.9225370  24.3415700  34.7697750  37.8938280  25.2604280
  36.9028730  36.6095510  23.2002920  36.8417130  35.6656730  23.0533940
  37.6820760  36.7175600  23.7456380  21.2081480  52.7487870  22.1626870
  21.0403520  52.1158550  22.8608760  20.3415990  52.9547270  21.8121060
  21.8309500  36.5804650  19.6658730  22.5888860  36.6933530  19.0922760
  21.3686670  37.4173850  19.6202160  28.3723310  38.6943920  22.6561040
  27.5597820  38.3200810  22.3156920  28.8764950  37.9389000  22.9582230
  32.8748290  35.3586370  23.8944110  33.4777660  35.9306580  24.3692630
  32.1341280  35.9225810  23.6718010  36.0182890  35.7607930  19.1684390
  36.2133520  36.6591380  19.4351820  35.2312760  35.5295010  19.6617340
  22.8144180  51.4421100  19.6077010  22.2891800  51.8229130  18.9038970
  22.7388760  52.0671870  20.3286720  24.2034650  37.1068700  18.2060700
  24.7327410  36.3198500  18.0768650  24.8362970  37.7859890  18.4396230
  26.3972490  36.8443840  21.2606090  25.7675230  36.1431150  21.4276220
  25.8577630  37.6047970  21.0439250  29.3364440  53.4583070  33.9316700
  30.2631750  53.2227340  33.9752660  29.3214870  54.2855070  33.4502730
  37.5709500  53.0008640  20.9290950  37.7461690  52.3146380  20.2851870
  36.8731070  53.5255690  20.5367620  26.5228050  36.1227820  33.6958580
  26.2412320  36.6261420  32.9319400  26.9047750  35.3249570  33.3300710
  25.4137150  53.3903480  18.4826260  26.1455970  53.1062760  17.9350150
  25.6730820  53.1516760  19.3725640  24.5751940  49.5068210  18.4872590
  23.9460820  49.9753310  19.0358420  24.6899770  48.6617430  18.9218780
  33.1243510  35.5381400  34.2739050  33.0108960  35.8576010  35.1690570
  33.9413250  35.9393910  33.9776330  35.9042000  52.6852930  33.7557740
  36.6967320  52.1902160  33.5483700  36.1975150  53.3643070  34.3633350
  32.0301660  43.5573870   4.6373790  31.9495710  42.6428480   4.3665500
  31.6166080  44.0540940   3.9313500  30.1619700  45.3352890   6.5183060
  29.3861800  44.8553330   6.8081630  30.8132630  44.6558540   6.3439220
  24.1785530  45.6472700   7.3958820  23.3470410  45.3921410   7.7955330
  24.7866510  45.7183470   8.1316740  34.1827130  49.7413080   5.2982190
  33.7208660  48.9700320   5.6269360  34.9952680  49.7679150   5.8034640
  24.1586790  49.6812790   7.5916840  24.4614830  48.7910530   7.4127060
  24.9030380  50.2383010   7.3639090  20.5510490  43.2080240   7.0640910
  21.1226600  42.4402440   7.0644550  20.5512030  43.5069000   6.1547520
  30.4090440  52.0271090   4.9186180  29.7901880  52.4828590   4.3480620
  31.2642220  52.1822550   4.5175880  29.6028690  48.0110080   6.5253220
  29.5336970  47.0700020   6.3642350  30.3648550  48.1011490   7.0975790
  21.7935360  38.6164600   8.8509840  21.6138200  37.7190350   9.1312600
  21.3915440  39.1636470   9.5256790  30.6333860  40.8180460   6.7522150
  31.0098680  39.9452340   6.6395820  30.5353370  41.1539160   5.8612590
  24.7638870  39.1906090   2.2139590  24.8705620  40.0909820   2.5208350
  23.8531230  39.1424060   1.9234240  34.4157980  38.3130900   3.6850490
  35.2367600  37.8227470   3.7275970  34.4492060  38.9028560   4.4382330
  22.4122030  41.1125100   7.4592180  23.0932140  41.3763470   8.0779580
  22.0970080  40.2725970   7.7930190  26.6046600  42.1592460   6.5464770
  27.1124820  42.6573430   7.1869790  27.1359840  41.3827660   6.3704130
  38.7057530  40.3297650  10.2494120  38.0009700  40.7179360   9.7309230
  38.9715450  41.0247940  10.8515050  24.8882700  36.7991020  10.8128190
  24.8901140  37.3163410  10.0074090  24.0587010  36.3221200  10.7898120
  31.2753790  46.9110330   2.3118090  30.6571060  47.3759780   1.7480810
  31.7877040  47.6037810   2.7287600  26.1385550  46.4386200   8.9901690
  25.8054930  47.0655120   9.6322760  26.3152230  46.9648080   8.2103360
  34.6519460  40.2531280   6.4578030  33.9475030  40.5416170   7.0381140
  35.0131620  41.0631390   6.0977590  24.5698030  38.5100980   8.8198640
  24.9114840  39.3543030   8.5252510  23.6313840  38.6584720   8.9363980
  25.3504650  48.4067000  10.8050870  25.9678650  49.0818080  10.5235320
  24.4897770  48.8154980  10.7138370  36.2682240  49.8706410   8.7205510
  35.5845760  50.5405520   8.7122180  36.8076530  50.0687060   7.9550370
  37.7206380  39.6986070   6.8487240  36.7731290  39.7325050   6.9802670
  38.0456370  40.5125020   7.2336600  28.2525920  35.9983250   5.1443230
  28.5600900  35.4430140   4.4278730  27.3226620  36.1327710   4.9616220
  33.8040980  51.7150540   7.4350690  33.8168140  51.3112830   6.5672950
  33.2516200  52.4897830   7.3312120  35.0986400  48.4366760   2.5240860
  34.9882730  47.4941090   2.6490280  35.0954650  48.7982400   3.4103620
  33.2026420  46.6180380   8.7633300  33.6195210  46.4040490   7.9286760
  33.9266240  46.8753170   9.3341920  30.6406680  44.0632080   1.8803350
  29.7135960  43.9969460   2.1091820  30.7931500  45.0012210   1.7658590
  37.1488520  45.0167600   8.8549540  36.3207150  45.0860690   8.3799670
  37.7439000  45.6021910   8.3865370  34.6703970  45.6252380   2.3838600
  34.0516390  45.2871930   1.7364900  34.6528420  44.9812140   3.0917790
  34.1130530  41.8036920   9.8004410  33.7001710  42.6290630  10.0544400
  33.3806480  41.2181960   9.6080770  26.2463320  44.5896820   4.6623080
  25.8420320  43.8774070   4.1668980  26.3326440  44.2450060   5.5511120
  26.7145020  48.2764380   6.8262290  26.4173310  47.6709850   6.1470070
  27.6644840  48.3141690   6.7151650  24.9591940  41.3640030   8.4422120
  25.5106530  41.4735370   7.6675370  25.4735450  41.7377630   9.1577350
  34.8030630  51.8496250  10.4885390  34.3261190  52.6568440  10.2958000
  34.1192420  51.1974580  10.6411600  25.8063450  48.0146070  13.4770090
  24.9091980  48.2386040  13.7243490  25.8316320  48.1381010  12.5281490
  24.6334670  44.8859390  12.0527460  24.4942440  45.7582190  12.4214860
  23.7516030  44.5432200  11.9075400  30.9564050  49.8035260   3.3592590
  31.3959960  50.5459590   2.9447980  30.8950940  50.0461830   4.2831550
  26.4315020  50.8281090  14.2612610  26.4030450  51.2324040  13.3941040
  26.2679990  49.8991450  14.0984210  38.3829840  51.6108190  15.5576780
  38.8589560  52.0891080  16.2365860  39.0037000  51.5425680  14.8322280
  20.5853320  46.6556940   7.9698370  20.6633740  46.7905710   7.0254090
  21.1995000  45.9472830   8.1626490  21.8300950  48.3557130   4.3804550
  21.4229030  48.4971720   3.5258150  22.7213960  48.0717290   4.1775760
  37.7863090  48.8021040  12.7176790  37.9126150  48.5632920  11.7993970
  37.8284470  47.9705580  13.1898870  31.6479830  52.5049040  11.2871600
  32.1624500  52.4157050  12.0894030  30.8048910  52.8508740  11.5799510
  26.1022610  52.5702910   2.4927220  25.9265090  51.6538450   2.2795020
  25.2478350  52.9290200   2.7325020  32.8910290  51.9254650   3.3502090
  33.3467240  51.1444030   3.6640710  33.2302810  52.6361470   3.8943270
  37.6387100  40.8553500  13.6826530  37.0231370  41.3633170  13.1541990
  37.3183520  39.9551830  13.6252470  20.6412840  47.6971110  10.5092830
  20.8043880  47.2276470   9.6912200  21.1065290  47.1894670  11.1741670
  25.4131610  36.8276870   5.5453400  24.9699760  37.6086410   5.2137920
  25.9716600  37.1506760   6.2524340  29.7001420  39.6945390  11.1488720
  29.2380790  39.9028410  11.9608660  29.2979530  38.8804740  10.8459390
  34.7005930  40.9154340  12.2785380  33.8499520  40.6160090  12.5994450
  34.5407720  41.1596350  11.3669200  31.7955640  42.4156090  14.3784170
  32.1209050  41.5819840  14.0386400  32.5835970  42.9384610  14.5262500
  27.4507510  37.3724200   7.4043000  27.7479840  38.2787030   7.3235020
  27.9993070  36.8842980   6.7902570  25.2045830  41.9510440   3.2734650
  24.9786750  41.7347610   4.1781270  24.4238360  42.3838900   2.9280620
  27.6445040  42.8496020  13.9394920  27.5488640  41.9090750  13.7895320
  28.4877020  43.0711090  13.5442990  31.0408460  40.5937350   3.9028580
  31.4338030  40.9109550   3.0897270  31.4025310  39.7149230   4.0173100
  22.7755580  39.2609690  12.0928700  22.3818970  40.1084900  12.3001480
  22.0873980  38.6236060  12.2837340  29.3500630  39.3444660  15.1625440
  28.6598950  39.1516860  15.7971530  30.0932930  39.6279300  15.6949740
  20.0772630  37.1838150   6.1258780  19.7885680  37.7541010   6.8383760
  20.8218390  36.7042600   6.4890010  31.6263600  43.1843100   7.9979360
  30.8944720  43.6929910   8.3469460  31.2287940  42.3673080   7.6968140
  28.0640990  39.8597300   6.4031850  28.0677050  39.4187250   5.5536390
  28.9592110  40.1814630   6.5103670  23.9143370  39.7423790   5.3626060
  23.5743420  40.2199020   6.1193110  23.1520690  39.2888910   5.0027160
  32.0889510  38.6376780   7.4102300  32.1062250  39.0885430   8.2544150
  31.8405090  37.7382420   7.6235740  35.5160260  36.0508960  13.2488680
  35.8406030  35.3198620  13.7746660  35.5516770  35.7322600  12.3469670
  22.2151820  47.0722540  12.6688640  21.8306610  46.4316210  13.2671600
  22.5264010  47.7758660  13.2383370  28.3648960  43.9199080   8.1497260
  28.7319090  43.4457650   8.8958600  28.1754020  44.7940650   8.4905600
  21.2289450  38.6642770   4.2790730  20.9436370  38.2998440   5.1169350
  21.1668310  37.9323230   3.6653870  26.1548330  42.9607720  10.4681470
  25.8505400  43.8399700  10.6931830  27.1094790  43.0207510  10.5038910
  35.4418100  46.1634070   6.8574710  36.1617220  46.6589360   6.4670820
  35.2399920  45.4851960   6.2128580  30.8236900  46.2343130  12.7443710
  30.7574210  45.3138800  12.4901300  30.1942040  46.3318570  13.4588350
  24.7267520  46.8349090   4.7027130  25.2446190  46.0317350   4.6484020
  24.2751540  46.7728230   5.5443960  22.2112060  43.8010460  11.6152830
  21.8527000  44.4664310  12.2026170  21.9166620  42.9694010  11.9865450
  25.4125180  44.2594700  14.4992380  25.1125320  44.4051880  13.6020200
  26.1836420  43.6999990  14.4065770  30.7553630  49.0563700  12.4947510
  30.7698170  48.1244660  12.2766420  30.0478730  49.1423460  13.1337280
  36.9664840  45.6971040  11.8416090  36.2413030  46.2899820  11.6445480
  37.4940300  45.6894580  11.0429460  32.4964430  47.4231210   5.3399940
  32.8488250  46.8259340   4.6801310  31.6126760  47.0975440   5.5108190
  28.5827710  48.1828900   2.7470350  29.2698840  48.7298110   3.1277940
  27.7960130  48.7269630   2.7819960  27.8854920  45.1874930   2.3595710
  28.3417700  45.9980180   2.5855900  27.5343130  44.8698070   3.1914200
  30.1887530  50.6981270   9.5888010  30.8329750  50.9040650  10.2661430
  30.5516970  49.9369670   9.1358860  23.7866700  35.5312580   2.8318230
  23.6581330  35.5230480   3.7803150  22.9628720  35.8695670   2.4809240
  31.4619610  48.7013620   8.3065460  32.1041840  48.0006780   8.4197630
  31.9868960  49.4812060   8.1262350  33.2357230  49.5008520  11.5101520
  33.5713470  50.0875210  12.1879440  32.3157570  49.3701230  11.7399310
  20.7860630  37.2903700  12.2924930  20.0719150  37.4900620  12.8977540
  21.2055670  36.5143270  12.6639730  21.0733220  51.2783960  13.2791460
  21.1824340  50.3378700  13.1386850  20.4213780  51.5438710  12.6305190
  29.0645810  49.5499850  14.6789580  28.7442680  48.8309090  15.2235270
  28.3904170  50.2254920  14.7525640  32.2799410  39.7826010  10.0426380
  32.6480230  38.9621220  10.3705950  31.4197610  39.8427900  10.4582030
  27.6145470  41.0168900   2.2671820  26.9061620  41.4855240   2.7085430
  27.8989950  40.3590910   2.9017010  29.2401400  42.4365600  10.2664350
  29.7386650  42.9111420  10.9316200  29.3824350  41.5129120  10.4734380
  31.6460900  37.7419560   3.7067610  31.5228680  37.7605690   2.7577120
  32.5945460  37.7898500   3.8266010  28.7337690  52.9774860   2.9795590
  28.9879190  52.9396250   2.0574960  27.7850170  52.8508190   2.9723840
  36.4468260  38.6533560  11.1092740  35.9441860  39.3938960  11.4486550
  37.2624920  39.0417560  10.7929530  34.7390270  43.8966740   4.5554100
  33.7980410  43.9116970   4.7301790  35.0534340  43.1102700   5.0014400
  36.7415850  51.0675590   6.2308360  36.8663270  51.8906760   6.7032170
  37.6081410  50.8566320   5.8832510  24.2133380  53.1606800   5.9025490
  24.9495860  52.6122260   6.1734060  24.5974300  54.0262810   5.7631480
  21.0978860  49.2280370   1.7767000  20.1718640  49.4701510   1.7672410
  21.5635290  50.0554630   1.6551750  23.2191660  52.3452870  15.0911070
  24.0204390  52.6664920  15.5046470  22.7043480  51.9848450  15.8130980
  32.0556290  48.4532740  15.0386480  31.4494450  48.4764340  14.2982230
  31.7510400  47.7215780  15.5753730  33.4856660  52.1813030  13.6495890
  34.4378410  52.0971050  13.5996130  33.3384880  52.8454740  14.3229680
  20.9389470  44.8326330  14.0347120  21.4428490  44.2533610  14.6063350
  20.1996890  45.1166560  14.5723490  27.9927410  46.2397320  13.5682640
  27.2273080  46.8082320  13.4837310  28.1743370  45.9473530  12.6750870
  35.1350760  47.9702650  14.1257660  35.8760230  48.3078410  13.6225120
  34.3723440  48.1394710  13.5727430  22.9712550  42.9755920  14.9297190
  23.0117890  42.6769790  15.8382420  23.8258050  43.3763530  14.7704710
  24.9118360  41.5548020  12.8971680  24.3814820  41.0638970  12.2695020
  25.5806430  41.9832220  12.3629610  33.8096420  46.0217480  12.6612870
  34.2237440  46.1762560  13.5103290  32.8747420  46.1472700  12.8238650
  34.2818590  43.3613640  14.6652020  34.8639360  42.6065960  14.5772500
  34.4580360  43.8921080  13.8883500  25.3990660  38.5210390  12.9768970
  25.3047530  37.9031140  12.2519840  24.8188050  39.2476680  12.7498880
  28.1652100  37.0783630  10.0096360  27.7169400  37.1007890   9.1641910
  27.5317300  36.6802650  10.6066660  28.5711650  45.9737960  10.6308800
  28.9899760  46.8170690  10.4585040  27.6520280  46.1110000  10.4015580
  30.9075550  43.7054140  12.0146640  31.0271760  43.1095280  12.7541480
  31.7669550  43.7423830  11.5947940  33.2463450  44.2591330  10.5909150
  32.7198670  44.7833950   9.9874290  33.5894790  44.8918720  11.2218880
  26.4219070  52.2790970  11.7466530  25.8840160  53.0037030  11.4275230
  26.6753030  51.8021310  10.9563870  27.6744320  40.2475490  13.2722460
  28.2644010  39.9391340  13.9600280  26.8564560  39.7755240  13.4282360
  32.4937750  39.8641300  13.5055480  31.8053270  39.2022840  13.4405470
  33.2143770  39.4179570  13.9503940  29.2781280  53.5142180  12.0053180
  29.2039980  54.4177320  12.3125550  28.3760120  53.1954080  11.9775250
  20.6808570  50.8416770   5.3086800  21.0111580  49.9737830   5.0765440
  21.1099570  51.0475290   6.1391760  25.2770490  49.1725780   2.9688770
  24.9766030  49.0490750   3.8692680  25.1707980  48.3134370   2.5604500
  21.1698780  51.7087360   8.0468430  20.7329770  51.8888160   8.8792580
  21.7376460  52.4661980   7.9050150  36.8060960  51.2104360  12.3345740
  36.2062950  51.2696920  11.5909660  36.9354860  50.2709340  12.4642590
  21.0023210  44.2207590   4.4057310  20.3472050  43.9519230   3.7617010
  21.8401160  44.1112070   3.9559290  38.5078840  46.5519760   5.0191580
  38.8787670  45.7687080   4.6127550  39.1480770  47.2408860   4.8408880
  35.4912600  47.9356340  10.4321900  34.6772440  48.3653500  10.6947690
  35.8986800  48.5474750   9.8190950  37.4503380  43.9273020   2.3251600
  37.0746980  43.1600950   1.8932890  36.7206500  44.3095720   2.8126530
  22.0399140  44.6060160   8.9460650  22.4072180  44.5187560   9.8256670
  21.4709960  43.8426710   8.8467510  36.8403000  43.0744540  11.9591120
  36.6089090  42.8457290  11.0589070  37.1007550  43.9944090  11.9136010
  21.5915140  41.5169250  12.8519070  20.6971190  41.4836010  13.1912780
  22.1312690  41.7156040  13.6170320  35.2791070  38.3000970  14.7370820
  36.1561250  38.3084370  15.1204820  35.2911910  37.5631810  14.1263170
  36.7254340  42.1530510   5.6258840  37.2491820  41.6593160   4.9949010
  37.3113760  42.2880870   6.3706410  36.9044060  42.2370380   9.1478390
  35.9546770  42.2033920   9.2623380  37.0857070  43.1470490   8.9128160
  22.0954850  35.7917580   7.2002290  22.7431040  35.2414960   6.7597450
  22.5156690  36.0460730   8.0218100  37.6441470  40.0464810   4.0988930
  37.5340750  39.8920850   5.0371200  38.4049060  39.5185750   3.8564340
  35.9907190  35.9858940  10.5571930  36.6279410  36.5993080  10.9231120
  36.1382080  36.0219600   9.6121160  35.5488650  52.6874940   3.9590170
  36.1447720  52.3659510   3.2824590  35.8066800  52.2146760   4.7503440
  21.8486850  35.9473250   9.9427610  21.5001670  36.4037070  10.7085790
  21.5174550  35.0530380  10.0250040  23.4551220  49.1192850  14.1080800
  23.4120850  48.7485760  14.9895260  23.5862230  50.0570420  14.2482620
  27.1557250  50.6752440   9.7090520  26.9148610  50.9427000   8.8221040
  28.0959890  50.8458170   9.7641380  29.3611670  37.1385130  13.4647030
  29.3000560  37.7306960  14.2142440  30.3012050  37.0311090  13.3197290
  31.9986230  36.7955190  13.1039320  32.6126640  37.1134480  12.4420400
  32.5435790  36.3103780  13.7235180  38.4161410  52.6946820  10.5101160
  37.9219690  53.0915690   9.7928290  37.8074700  52.0696030  10.9038440
  22.5207490  35.4749450  13.2178380  23.0690480  35.2937500  12.4544490
  22.5862800  34.6843560  13.7534690  23.2939250  52.0655100  11.2278580
  22.6999570  51.9339800  11.9668620  23.2863090  51.2293240  10.7620680
  32.7394270  35.3587330   9.4308610  31.8654110  35.6922440   9.2281540
  32.6305020  34.8860510  10.2560480  33.6466250  37.5658200  10.8150330
  33.3179610  36.7509960  10.4352060  34.5948550  37.5228010  10.6916020
  36.1000860  53.3370240   7.7887900  35.6403830  54.0886050   7.4145920
  35.4713320  52.6176710   7.7302700  22.9251480  49.4313480  10.1786620
  22.1985540  48.8118770  10.1112570  22.9860630  49.8254090   9.3084700
  26.5296580  51.6458480   6.9636030  27.0461600  51.0345840   6.4384290
  27.1793960  52.1487260   7.4547040  29.2692080  52.5366970   7.7905010
  29.5569890  52.2821270   6.9138020  29.7815300  51.9844330   8.3810580
  30.4869090  36.2757170   8.3701520  29.7040880  36.7502670   8.6498280
  30.1932020  35.3712000   8.2614700  35.0390160  36.9780270   6.4150610
  35.4798250  36.9225370   5.5672210  34.7697750  37.8938280   6.4860790
  36.9028730  36.6095510   4.4259430  36.8417130  35.6656730   4.2790450
  37.6820760  36.7175600   4.9712890  21.2081480  52.7487870   3.3883380
  21.0403520  52.1158550   4.0865270  20.3415990  52.9547270   3.0377570
  28.3723310  38.6943920   3.8817550  27.5597820  38.3200810   3.5413430
  28.8764950  37.9389000   4.1838740  32.8748290  35.3586370   5.1200620
  33.4777660  35.9306580   5.5949140  32.1341280  35.9225810   4.8974520
  26.3972490  36.8443840   2.4862600  25.7675230  36.1431150   2.6532730
  25.8577630  37.6047970   2.2695760  29.3364440  53.4583070  15.1573210
  30.2631750  53.2227340  15.2009170  29.3214870  54.2855070  14.6759240
  26.5228050  36.1227820  14.9215090  26.2412320  36.6261420  14.1575910
  26.9047750  35.3249570  14.5557220  33.1243510  35.5381400  15.4995560
  33.0108960  35.8576010  16.3947080  33.9413250  35.9393910  15.2032840
  35.9042000  52.6852930  14.9814250  36.6967320  52.1902160  14.7740210
  36.1975150  53.3643070  15.5889860  32.0301660  24.7830380  79.7347750
  31.9495710  23.8684990  79.4639460  31.6166080  25.2797450  79.0287460
  30.1619700  26.5609400  81.6157020  29.3861800  26.0809840  81.9055590
  30.8132630  25.8815050  81.4413180  24.1785530  26.8729210  82.4932780
  23.3470410  26.6177920  82.8929290  24.7866510  26.9439980  83.2290700
  34.1827130  30.9669590  80.3956150  33.7208660  30.1956830  80.7243320
  34.9952680  30.9935660  80.9008600  24.1586790  30.9069300  82.6890800
  24.4614830  30.0167040  82.5101020  24.9030380  31.4639520  82.4613050
  22.5877480  21.8331100  76.2775170  21.6994180  22.1747070  76.1755050
  22.8718670  21.6331420  75.3856000  20.5510490  24.4336750  82.1614870
  21.1226600  23.6658950  82.1618510  20.5512030  24.7325510  81.2521480
  30.4090440  33.2527600  80.0160140  29.7901880  33.7085100  79.4454580
  31.2642220  33.4079060  79.6149840  29.6028690  29.2366590  81.6227180
  29.5336970  28.2956530  81.4616310  30.3648550  29.3268000  82.1949750
  21.7935360  19.8421110  83.9483800  21.6138200  18.9446860  84.2286560
  21.3915440  20.3892980  84.6230750  30.6333860  22.0436970  81.8496110
  31.0098680  21.1708850  81.7369780  30.5353370  22.3795670  80.9586550
  24.7638870  20.4162600  77.3113550  24.8705620  21.3166330  77.6182310
  23.8531230  20.3680570  77.0208200  34.4157980  19.5387410  78.7824450
  35.2367600  19.0483980  78.8249930  34.4492060  20.1285070  79.5356290
  22.4122030  22.3381610  82.5566140  23.0932140  22.6019980  83.1753540
  22.0970080  21.4982480  82.8904150  26.6046600  23.3848970  81.6438730
  27.1124820  23.8829940  82.2843750  27.1359840  22.6084170  81.4678090
  38.7057530  21.5554160  85.3468080  38.0009700  21.9435870  84.8283190
  38.9715450  22.2504450  85.9489010  24.8882700  18.0247530  85.9102150
  24.8901140  18.5419920  85.1048050  24.0587010  17.5477710  85.8872080
  31.2753790  28.1366840  77.4092050  30.6571060  28.6016290  76.8454770
  31.7877040  28.8294320  77.8261560  26.1385550  27.6642710  84.0875650
  25.8054930  28.2911630  84.7296720  26.3152230  28.1904590  83.3077320
  34.6519460  21.4787790  81.5551990  33.9475030  21.7672680  82.1355100
  35.0131620  22.2887900  81.1951550  24.5698030  19.7357490  83.9172600
  24.9114840  20.5799540  83.6226470  23.6313840  19.8841230  84.0337940
  25.3504650  29.6323510  85.9024830  25.9678650  30.3074590  85.6209280
  24.4897770  30.0411490  85.8112330  20.6436990  28.8223370  74.7831680
  20.2664970  29.3110470  74.0516580  20.9010060  29.4948650  75.4138210
  36.2682240  31.0962920  83.8179470  35.5845760  31.7662030  83.8096140
  36.8076530  31.2943570  83.0524330  37.7206380  20.9242580  81.9461200
  36.7731290  20.9581560  82.0776630  38.0456370  21.7381530  82.3310560
  28.2525920  17.2239760  80.2417190  28.5600900  16.6686650  79.5252690
  27.3226620  17.3584220  80.0590180  33.8040980  32.9407050  82.5324650
  33.8168140  32.5369340  81.6646910  33.2516200  33.7154340  82.4286080
  35.0986400  29.6623270  77.6214820  34.9882730  28.7197600  77.7464240
  35.0954650  30.0238910  78.5077580  33.2026420  27.8436890  83.8607260
  33.6195210  27.6297000  83.0260720  33.9266240  28.1009680  84.4315880
  30.6406680  25.2888590  76.9777310  29.7135960  25.2225970  77.2065780
  30.7931500  26.2268720  76.8632550  30.6275760  21.5605590  73.9744470
  29.6879430  21.7219550  74.0596930  30.9459020  22.2791270  73.4280460
  37.1488520  26.2424110  83.9523500  36.3207150  26.3117200  83.4773630
  37.7439000  26.8278420  83.4839330  34.6703970  26.8508890  77.4812560
  34.0516390  26.5128440  76.8338860  34.6528420  26.2068650  78.1891750
  34.1130530  23.0293430  84.8978370  33.7001710  23.8547140  85.1518360
  33.3806480  22.4438470  84.7054730  26.2463320  25.8153330  79.7597040
  25.8420320  25.1030580  79.2642940  26.3326440  25.4706570  80.6485080
  26.7145020  29.5020890  81.9236250  26.4173310  28.8966360  81.2444030
  27.6644840  29.5398200  81.8125610  24.9591940  22.5896540  83.5396080
  25.5106530  22.6991880  82.7649330  25.4735450  22.9634140  84.2551310
  34.8030630  33.0752760  85.5859350  34.3261190  33.8824950  85.3931960
  34.1192420  32.4231090  85.7385560  32.8468670  26.0895700  74.4885310
  33.2861950  25.2518130  74.3423130  33.5597090  26.7225100  74.5749450
  30.9564050  31.0291770  78.4566550  31.3959960  31.7716100  78.0421940
  30.8950940  31.2718340  79.3805510  36.4285810  17.3438510  72.8026350
  36.1158470  17.4365340  73.7025420  37.1898280  17.9219540  72.7523780
  22.9467950  24.7098310  77.2603690  22.8265550  25.4360400  76.6484960
  22.6368840  23.9401220  76.7831600  20.5853320  27.8813450  83.0672330
  20.6633740  28.0162220  82.1228050  21.1995000  27.1729340  83.2600450
  21.8300950  29.5813640  79.4778510  21.4229030  29.7228230  78.6232110
  22.7213960  29.2973800  79.2749720  33.6234230  34.0160890  75.8129560
  33.4635370  33.7263830  76.7111390  33.4580940  33.2401020  75.2774790
  26.1022610  33.7959420  77.5901180  25.9265090  32.8794960  77.3768980
  25.2478350  34.1546710  77.8298980  33.3260360  31.5248450  74.3727560
  32.6325520  31.5225740  73.7129840  34.0683220  31.1007770  73.9421730
  32.8910290  33.1511160  78.4476050  33.3467240  32.3700540  78.7614670
  33.2302810  33.8617980  78.9917230  25.4131610  18.0533380  80.6427360
  24.9699760  18.8342920  80.3111880  25.9716600  18.3763270  81.3498300
  28.5290430  17.6744080  75.5233190  27.9044610  17.6703950  76.2486500
  28.4420550  16.8075040  75.1269160  27.4507510  18.5980710  82.5016960
  27.7479840  19.5043540  82.4208980  27.9993070  18.1099490  81.8876530
  25.2045830  23.1766950  78.3708610  24.9786750  22.9604120  79.2755230
  24.4238360  23.6095410  78.0254580  32.4343590  23.1830320  76.9699260
  31.8352480  23.9066120  76.7862880  32.9823200  23.1207100  76.1875710
  31.0408460  21.8193860  79.0002540  31.4338030  22.1366060  78.1871230
  31.4025310  20.9405740  79.1147060  20.0772630  18.4094660  81.2232740
  19.7885680  18.9797520  81.9357720  20.8218390  17.9299110  81.5863970
  20.2642860  22.3514780  72.4335460  20.1817530  23.2945540  72.5750450
  19.9125920  22.2089690  71.5547810  31.6263600  24.4099610  83.0953320
  30.8944720  24.9186420  83.4443420  31.2287940  23.5929590  82.7942100
  28.0640990  21.0853810  81.5005810  28.0677050  20.6443760  80.6510350
  28.9592110  21.4071140  81.6077630  23.9143370  20.9680300  80.4600020
  23.5743420  21.4455530  81.2167070  23.1520690  20.5145420  80.1001120
  28.1261140  22.0865890  74.4912570  28.2473960  22.0452370  75.4398390
  27.7409650  22.9490040  74.3359300  32.0889510  19.8633290  82.5076260
  32.1062250  20.3141940  83.3518110  31.8405090  18.9638930  82.7209700
  27.1382640  24.3967030  73.8895870  26.5699540  23.9485280  73.2631780
  27.8471640  24.7559810  73.3561020  28.3648960  25.1455590  83.2471220
  28.7319090  24.6714160  83.9932560  28.1754020  26.0197160  83.5879560
  21.2289450  19.8899280  79.3764690  20.9436370  19.5254950  80.2143310
  21.1668310  19.1579740  78.7627830  26.1548330  24.1864230  85.5655430
  25.8505400  25.0656210  85.7905790  27.1094790  24.2464020  85.6012870
  24.6830120  28.3925220  76.1622280  23.9092380  27.8522840  76.0021000
  25.4124750  27.8731830  75.8240040  35.4418100  27.3890580  81.9548670
  36.1617220  27.8845870  81.5644780  35.2399920  26.7108470  81.3102540
  30.9028040  18.7828540  76.0978060  30.0892650  18.2841710  76.0223370
  30.7089990  19.6226790  75.6814410  33.6176430  23.1548190  74.3940220
  34.5056050  23.4665420  74.2191560  33.5881520  22.2820440  74.0020800
  24.7267520  28.0605600  79.8001090  25.2446190  27.2573860  79.7457980
  24.2751540  27.9984740  80.6417920  29.6137020  29.3271880  75.0728390
  29.9552720  30.0714110  74.5771710  28.7849730  29.6403000  75.4353220
  35.8890700  24.4660030  73.8620080  35.8054420  24.8974250  73.0116520
  36.6084890  24.9258380  74.2946900  36.9177950  31.3202290  76.5902210
  36.2754110  30.6657910  76.8645930  36.5308610  31.7257380  75.8142880
  32.4964430  28.6487720  80.4373900  32.8488250  28.0515850  79.7775270
  31.6126760  28.3231950  80.6082150  28.5827710  29.4085410  77.8444310
  29.2698840  29.9554620  78.2251900  27.7960130  29.9526140  77.8793920
  20.7220110  25.0258230  73.3361390  21.5914960  25.3083030  73.6197310
  20.2310430  25.8394100  73.2210200  27.8854920  26.4131440  77.4569670
  28.3417700  27.2236690  77.6829860  27.5343130  26.0954580  78.2888160
  30.1887530  31.9237780  84.6861970  30.8329750  32.1297160  85.3635390
  30.5516970  31.1626180  84.2332820  23.7866700  16.7569090  77.9292190
  23.6581330  16.7486990  78.8777110  22.9628720  17.0952180  77.5783200
  31.4619610  29.9270130  83.4039420  32.1041840  29.2263290  83.5171590
  31.9868960  30.7068570  83.2236310  35.3075330  30.2118750  73.1278560
  35.0812910  29.4949190  73.7203200  34.9171530  29.9631190  72.2900310
  21.0891360  34.2385610  73.9023020  21.4489000  34.8374950  73.2480290
  20.9483700  34.7845500  74.6758050  34.8891580  28.1290690  74.7892720
  34.6013280  28.5903380  75.5770600  35.6843750  27.6688460  75.0576940
  27.1059980  31.6216810  74.7196690  27.0970080  32.3546500  74.1041200
  26.1858340  31.3748390  74.8123650  22.7066620  26.8431700  75.4643450
  22.0994570  27.5830600  75.4738750  23.1815970  26.9331060  74.6381650
  32.2799410  21.0082520  85.1400340  32.6480230  20.1877730  85.4679910
  31.4197610  21.0684410  85.5555990  35.6461440  19.9639460  75.9487900
  35.0174600  20.0685130  75.2346130  35.1513360  20.1836240  76.7381780
  30.0919580  31.6845050  73.3821880  30.1931560  31.4809040  72.4523860
  29.1921320  31.4303330  73.5869660  27.6145470  22.2425410  77.3645780
  26.9061620  22.7111750  77.8059390  27.8989950  21.5847420  77.9990970
  31.6460900  18.9676070  78.8041570  31.5228680  18.9862200  77.8551080
  32.5945460  19.0155010  78.9239970  28.7337690  34.2031370  78.0769550
  28.9879190  34.1652760  77.1548920  27.7850170  34.0764700  78.0697800
  25.8180490  20.5510490  74.7396490  26.6671020  20.9880640  74.6736680
  25.4511760  20.8630750  75.5668550  34.7390270  25.1223250  79.6528060
  33.7980410  25.1373480  79.8275750  35.0534340  24.3359210  80.0988360
  24.7171910  26.8042850  73.2132020  25.4835180  26.6924210  73.7757450
  24.7946600  26.1080820  72.5608790  23.4118670  24.2367920  73.8964910
  23.4922260  23.2895430  74.0082310  24.3038420  24.5674800  74.0025570
  36.7415850  32.2932100  81.3282320  36.8663270  33.1163270  81.8006130
  37.6081410  32.0822830  80.9806470  24.2133380  34.3863310  80.9999450
  24.9495860  33.8378770  81.2708020  24.5974300  35.2519320  80.8605440
  21.0978860  30.4536880  76.8740960  20.1718640  30.6958020  76.8646370
  21.5635290  31.2811140  76.7525710  27.3235690  33.5593620  72.8225020
  28.1164300  33.8482450  72.3706810  26.8040040  33.1285790  72.1437500
  36.3765860  32.7863750  74.2461760  36.0907370  32.3728890  73.4315940
  36.1785410  33.7151460  74.1262280  27.8413090  28.7797030  72.6867370
  27.7363730  28.1649380  73.4128750  27.6737310  28.2562920  71.9030380
  31.0815820  27.8417060  73.2909360  30.5325920  28.2886360  73.9352100
  31.7035080  27.3366310  73.8147030  26.7490940  26.8007980  75.1874660
  27.1707360  26.6347850  76.0306050  26.8741780  25.9908210  74.6929800
  29.2618580  25.8245590  72.4351760  29.7824240  25.1094610  72.0692910
  29.9086980  26.4631460  72.7352270  28.1652100  18.3040140  85.1070320
  27.7169400  18.3264400  84.2615870  27.5317300  17.9059160  85.7040620
  28.5711650  27.1994470  85.7282760  28.9899760  28.0427200  85.5559000
  27.6520280  27.3366510  85.4989540  25.6449840  22.8741210  72.1332820
  25.4438900  22.0108570  72.4946160  25.4741890  22.7874570  71.1954420
  33.1238150  17.6849440  74.6619700  33.4040440  16.8417340  75.0179120
  32.3503880  17.9172550  75.1758450  24.4432640  19.9741830  72.1210700
  24.7458540  19.9809260  71.2129850  25.1827230  19.6239690  72.6178360
  27.6617570  18.9176450  73.1066900  27.3139570  18.2400440  72.5269350
  27.8630340  18.4565960  73.9210290  29.8266610  33.9057200  74.7253500
  30.7217400  34.2442170  74.7472260  29.8584240  33.1836610  74.0977780
  23.4662770  29.2784250  72.9540500  23.9037640  29.8213920  73.6098080
  23.9510500  28.4531200  72.9636840  20.6808570  32.0673280  80.4060760
  21.0111580  31.1994340  80.1739400  21.1099570  32.2731800  81.2365720
  25.2770490  30.3982290  78.0662730  24.9766030  30.2747260  78.9666640
  25.1707980  29.5390880  77.6578460  21.1698780  32.9343870  83.1442390
  20.7329770  33.1144670  83.9766540  21.7376460  33.6918490  83.0024110
  38.0462410  30.1778690  72.7689410  37.2155370  30.2455340  73.2396640
  38.2234240  31.0682810  72.4656270  37.5018870  26.9226170  75.2723610
  38.2637780  27.4922820  75.3783300  37.5173240  26.3553370  76.0431920
  21.0023210  25.4464100  79.5031270  20.3472050  25.1775740  78.8590970
  21.8401160  25.3368580  79.0533250  38.5078840  27.7776270  80.1165540
  38.8787670  26.9943590  79.7101510  39.1480770  28.4665370  79.9382840
  35.4912600  29.1612850  85.5295860  34.6772440  29.5910010  85.7921650
  35.8986800  29.7731260  84.9164910  37.5538040  27.2160540  72.4296130
  37.8286880  28.1239420  72.3015350  37.3648780  27.1523070  73.3658120
  33.9513650  20.2405390  73.7249760  34.3698530  20.0536370  72.8846420
  33.6449710  19.3884440  74.0352690  37.4503380  25.1529530  77.4225560
  37.0746980  24.3857460  76.9906850  36.7206500  25.5352230  77.9100490
  22.0399140  25.8316670  84.0434610  22.4072180  25.7444070  84.9230630
  21.4709960  25.0683220  83.9441470  20.2161290  22.6563030  75.4456600
  19.3125370  22.9193230  75.2708260  20.7001910  22.9274200  74.6656560
  36.7254340  23.3787020  80.7232800  37.2491820  22.8849670  80.0922970
  37.3113760  23.5137380  81.4680370  36.9044060  23.4626890  84.2452350
  35.9546770  23.4290430  84.3597340  37.0857070  24.3727000  84.0102120
  22.7588500  21.7128570  73.3550980  23.4680200  21.2911790  72.8698260
  22.0428440  21.7803800  72.7234330  22.4062660  17.7667900  72.3953630
  23.1290790  18.3076840  72.7134850  22.6787180  17.4931320  71.5195170
  36.2154310  22.6360370  76.6625210  36.7113430  22.4031240  77.4474090
  36.0170380  21.7972210  76.2462850  22.0954850  17.0174090  82.2976250
  22.7431040  16.4671470  81.8571410  22.5156690  17.2717240  83.1192060
  37.6441470  21.2721320  79.1962890  37.5340750  21.1177360  80.1345160
  38.4049060  20.7442260  78.9538300  38.5331740  19.1029240  72.4369030
  39.4581050  18.9710420  72.2287320  38.5107530  19.1822060  73.3905480
  38.6070230  19.8739900  75.0625740  37.8121730  19.8085020  75.5918650
  38.8113510  20.8090540  75.0511090  35.5488650  33.9131450  79.0564130
  36.1447720  33.5916020  78.3798550  35.8066800  33.4403270  79.8477400
  21.8486850  17.1729760  85.0401570  21.5001670  17.6293580  85.8059750
  21.5174550  16.2786890  85.1224000  27.1557250  31.9008950  84.8064480
  26.9148610  32.1683510  83.9195000  28.0959890  32.0714680  84.8615340
  32.7394270  16.5843840  84.5282570  31.8654110  16.9178950  84.3255500
  32.6305020  16.1117020  85.3534440  33.6466250  18.7914710  85.9124290
  33.3179610  17.9766470  85.5326020  34.5948550  18.7484520  85.7889980
  36.1000860  34.5626750  82.8861860  35.6403830  35.3142560  82.5119880
  35.4713320  33.8433220  82.8276660  22.9251480  30.6569990  85.2760580
  22.1985540  30.0375280  85.2086530  22.9860630  31.0510600  84.4058660
  26.5296580  32.8714990  82.0609990  27.0461600  32.2602350  81.5358250
  27.1793960  33.3743770  82.5521000  29.2692080  33.7623480  82.8878970
  29.5569890  33.5077780  82.0111980  29.7815300  33.2100840  83.4784540
  30.4869090  17.5013680  83.4675480  29.7040880  17.9759180  83.7472240
  30.1932020  16.5968510  83.3588660  35.0390160  18.2036780  81.5124570
  35.4798250  18.1481880  80.6646170  34.7697750  19.1194790  81.5834750
  36.9028730  17.8352020  79.5233390  36.8417130  16.8913240  79.3764410
  37.6820760  17.9432110  80.0686850  21.2081480  33.9744380  78.4857340
  21.0403520  33.3415060  79.1839230  20.3415990  34.1803780  78.1351530
  21.8309500  17.8061160  75.9889200  22.5888860  17.9190040  75.4153230
  21.3686670  18.6430360  75.9432630  28.3723310  19.9200430  78.9791510
  27.5597820  19.5457320  78.6387390  28.8764950  19.1645510  79.2812700
  32.8748290  16.5842880  80.2174580  33.4777660  17.1563090  80.6923100
  32.1341280  17.1482320  79.9948480  36.0182890  16.9864440  75.4914860
  36.2133520  17.8847890  75.7582290  35.2312760  16.7551520  75.9847810
  22.8144180  32.6677610  75.9307480  22.2891800  33.0485640  75.2269440
  22.7388760  33.2928380  76.6517190  24.2034650  18.3325210  74.5291170
  24.7327410  17.5455010  74.3999120  24.8362970  19.0116400  74.7626700
  26.3972490  18.0700350  77.5836560  25.7675230  17.3687660  77.7506690
  25.8577630  18.8304480  77.3669720  37.5709500  34.2265150  77.2521420
  37.7461690  33.5402890  76.6082340  36.8731070  34.7512200  76.8598090
  25.4137150  34.6159990  74.8056730  26.1455970  34.3319270  74.2580620
  25.6730820  34.3773270  75.6956110  24.5751940  30.7324720  74.8103060
  23.9460820  31.2009820  75.3588890  24.6899770  29.8873940  75.2449250
  32.0301660  24.7830380  60.9604260  31.9495710  23.8684990  60.6895970
  31.6166080  25.2797450  60.2543970  30.1619700  26.5609400  62.8413530
  29.3861800  26.0809840  63.1312100  30.8132630  25.8815050  62.6669690
  24.1785530  26.8729210  63.7189290  23.3470410  26.6177920  64.1185800
  24.7866510  26.9439980  64.4547210  34.1827130  30.9669590  61.6212660
  33.7208660  30.1956830  61.9499830  34.9952680  30.9935660  62.1265110
  24.1586790  30.9069300  63.9147310  24.4614830  30.0167040  63.7357530
  24.9030380  31.4639520  63.6869560  22.5877480  21.8331100  57.5031680
  21.6994180  22.1747070  57.4011560  22.8718670  21.6331420  56.6112510
  20.5510490  24.4336750  63.3871380  21.1226600  23.6658950  63.3875020
  20.5512030  24.7325510  62.4777990  30.4090440  33.2527600  61.2416650
  29.7901880  33.7085100  60.6711090  31.2642220  33.4079060  60.8406350
  29.6028690  29.2366590  62.8483690  29.5336970  28.2956530  62.6872820
  30.3648550  29.3268000  63.4206260  21.7935360  19.8421110  65.1740310
  21.6138200  18.9446860  65.4543070  21.3915440  20.3892980  65.8487260
  30.6333860  22.0436970  63.0752620  31.0098680  21.1708850  62.9626290
  30.5353370  22.3795670  62.1843060  24.7638870  20.4162600  58.5370060
  24.8705620  21.3166330  58.8438820  23.8531230  20.3680570  58.2464710
  34.4157980  19.5387410  60.0080960  35.2367600  19.0483980  60.0506440
  34.4492060  20.1285070  60.7612800  22.4122030  22.3381610  63.7822650
  23.0932140  22.6019980  64.4010050  22.0970080  21.4982480  64.1160660
  26.6046600  23.3848970  62.8695240  27.1124820  23.8829940  63.5100260
  27.1359840  22.6084170  62.6934600  38.7057530  21.5554160  66.5724590
  38.0009700  21.9435870  66.0539700  38.9715450  22.2504450  67.1745520
  24.8882700  18.0247530  67.1358660  24.8901140  18.5419920  66.3304560
  24.0587010  17.5477710  67.1128590  31.2753790  28.1366840  58.6348560
  30.6571060  28.6016290  58.0711280  31.7877040  28.8294320  59.0518070
  26.1385550  27.6642710  65.3132160  25.8054930  28.2911630  65.9553230
  26.3152230  28.1904590  64.5333830  34.6519460  21.4787790  62.7808500
  33.9475030  21.7672680  63.3611610  35.0131620  22.2887900  62.4208060
  24.5698030  19.7357490  65.1429110  24.9114840  20.5799540  64.8482980
  23.6313840  19.8841230  65.2594450  25.3504650  29.6323510  67.1281340
  25.9678650  30.3074590  66.8465790  24.4897770  30.0411490  67.0368840
  20.6436990  28.8223370  56.0088190  20.2664970  29.3110470  55.2773090
  20.9010060  29.4948650  56.6394720  36.2682240  31.0962920  65.0435980
  35.5845760  31.7662030  65.0352650  36.8076530  31.2943570  64.2780840
  37.7206380  20.9242580  63.1717710  36.7731290  20.9581560  63.3033140
  38.0456370  21.7381530  63.5567070  28.2525920  17.2239760  61.4673700
  28.5600900  16.6686650  60.7509200  27.3226620  17.3584220  61.2846690
  33.8040980  32.9407050  63.7581160  33.8168140  32.5369340  62.8903420
  33.2516200  33.7154340  63.6542590  35.0986400  29.6623270  58.8471330
  34.9882730  28.7197600  58.9720750  35.0954650  30.0238910  59.7334090
  33.2026420  27.8436890  65.0863770  33.6195210  27.6297000  64.2517230
  33.9266240  28.1009680  65.6572390  30.6406680  25.2888590  58.2033820
  29.7135960  25.2225970  58.4322290  30.7931500  26.2268720  58.0889060
  30.6275760  21.5605590  55.2000980  29.6879430  21.7219550  55.2853440
  30.9459020  22.2791270  54.6536970  37.1488520  26.2424110  65.1780010
  36.3207150  26.3117200  64.7030140  37.7439000  26.8278420  64.7095840
  34.6703970  26.8508890  58.7069070  34.0516390  26.5128440  58.0595370
  34.6528420  26.2068650  59.4148260  34.1130530  23.0293430  66.1234880
  33.7001710  23.8547140  66.3774870  33.3806480  22.4438470  65.9311240
  26.2463320  25.8153330  60.9853550  25.8420320  25.1030580  60.4899450
  26.3326440  25.4706570  61.8741590  26.7145020  29.5020890  63.1492760
  26.4173310  28.8966360  62.4700540  27.6644840  29.5398200  63.0382120
  24.9591940  22.5896540  64.7652590  25.5106530  22.6991880  63.9905840
  25.4735450  22.9634140  65.4807820  34.8030630  33.0752760  66.8115860
  34.3261190  33.8824950  66.6188470  34.1192420  32.4231090  66.9642070
  25.8063450  29.2402580  69.8000560  24.9091980  29.4642550  70.0473960
  25.8316320  29.3637520  68.8511960  32.8468670  26.0895700  55.7141820
  33.2861950  25.2518130  55.5679640  33.5597090  26.7225100  55.8005960
  24.6334670  26.1115900  68.3757930  24.4942440  26.9838700  68.7445330
  23.7516030  25.7688710  68.2305870  30.9564050  31.0291770  59.6823060
  31.3959960  31.7716100  59.2678450  30.8950940  31.2718340  60.6062020
  26.4315020  32.0537600  70.5843080  26.4030450  32.4580550  69.7171510
  26.2679990  31.1247960  70.4214680  36.4285810  17.3438510  54.0282860
  36.1158470  17.4365340  54.9281930  37.1898280  17.9219540  53.9780290
  22.9467950  24.7098310  58.4860200  22.8265550  25.4360400  57.8741470
  22.6368840  23.9401220  58.0088110  38.3829840  32.8364700  71.8807250
  38.8589560  33.3147590  72.5596330  39.0037000  32.7682190  71.1552750
  20.5853320  27.8813450  64.2928840  20.6633740  28.0162220  63.3484560
  21.1995000  27.1729340  64.4856960  21.8300950  29.5813640  60.7035020
  21.4229030  29.7228230  59.8488620  22.7213960  29.2973800  60.5006230
  37.7863090  30.0277550  69.0407260  37.9126150  29.7889430  68.1224440
  37.8284470  29.1962090  69.5129340  31.6479830  33.7305550  67.6102070
  32.1624500  33.6413560  68.4124500  30.8048910  34.0765250  67.9029980
  26.1022610  33.7959420  58.8157690  25.9265090  32.8794960  58.6025490
  25.2478350  34.1546710  59.0555490  33.3260360  31.5248450  55.5984070
  32.6325520  31.5225740  54.9386350  34.0683220  31.1007770  55.1678240
  32.8910290  33.1511160  59.6732560  33.3467240  32.3700540  59.9871180
  33.2302810  33.8617980  60.2173740  37.6387100  22.0810010  70.0057000
  37.0231370  22.5889680  69.4772460  37.3183520  21.1808340  69.9482940
  20.6412840  28.9227620  66.8323300  20.8043880  28.4532980  66.0142670
  21.1065290  28.4151180  67.4972140  25.4131610  18.0533380  61.8683870
  24.9699760  18.8342920  61.5368390  25.9716600  18.3763270  62.5754810
  29.7001420  20.9201900  67.4719190  29.2380790  21.1284920  68.2839130
  29.2979530  20.1061250  67.1689860  34.7005930  22.1410850  68.6015850
  33.8499520  21.8416600  68.9224920  34.5407720  22.3852860  67.6899670
  31.7955640  23.6412600  70.7014640  32.1209050  22.8076350  70.3616870
  32.5835970  24.1641120  70.8492970  28.5290430  17.6744080  56.7489700
  27.9044610  17.6703950  57.4743010  28.4420550  16.8075040  56.3525670
  27.4507510  18.5980710  63.7273470  27.7479840  19.5043540  63.6465490
  27.9993070  18.1099490  63.1133040  25.2045830  23.1766950  59.5965120
  24.9786750  22.9604120  60.5011740  24.4238360  23.6095410  59.2511090
  32.4343590  23.1830320  58.1955770  31.8352480  23.9066120  58.0119390
  32.9823200  23.1207100  57.4132220  27.6445040  24.0752530  70.2625390
  27.5488640  23.1347260  70.1125790  28.4877020  24.2967600  69.8673460
  31.0408460  21.8193860  60.2259050  31.4338030  22.1366060  59.4127740
  31.4025310  20.9405740  60.3403570  22.7755580  20.4866200  68.4159170
  22.3818970  21.3341410  68.6231950  22.0873980  19.8492570  68.6067810
  29.3500630  20.5701170  71.4855910  28.6598950  20.3773370  72.1202000
  30.0932930  20.8535810  72.0180210  20.0772630  18.4094660  62.4489250
  19.7885680  18.9797520  63.1614230  20.8218390  17.9299110  62.8120480
  20.2642860  22.3514780  53.6591970  20.1817530  23.2945540  53.8006960
  19.9125920  22.2089690  52.7804320  31.6263600  24.4099610  64.3209830
  30.8944720  24.9186420  64.6699930  31.2287940  23.5929590  64.0198610
  28.0640990  21.0853810  62.7262320  28.0677050  20.6443760  61.8766860
  28.9592110  21.4071140  62.8334140  23.9143370  20.9680300  61.6856530
  23.5743420  21.4455530  62.4423580  23.1520690  20.5145420  61.3257630
  28.1261140  22.0865890  55.7169080  28.2473960  22.0452370  56.6654900
  27.7409650  22.9490040  55.5615810  32.0889510  19.8633290  63.7332770
  32.1062250  20.3141940  64.5774620  31.8405090  18.9638930  63.9466210
  27.1382640  24.3967030  55.1152380  26.5699540  23.9485280  54.4888290
  27.8471640  24.7559810  54.5817530  35.5160260  17.2765470  69.5719150
  35.8406030  16.5455130  70.0977130  35.5516770  16.9579110  68.6700140
  22.2151820  28.2979050  68.9919110  21.8306610  27.6572720  69.5902070
  22.5264010  29.0015170  69.5613840  28.3648960  25.1455590  64.4727730
  28.7319090  24.6714160  65.2189070  28.1754020  26.0197160  64.8136070
  21.2289450  19.8899280  60.6021200  20.9436370  19.5254950  61.4399820
  21.1668310  19.1579740  59.9884340  26.1548330  24.1864230  66.7911940
  25.8505400  25.0656210  67.0162300  27.1094790  24.2464020  66.8269380
  24.6830120  28.3925220  57.3878790  23.9092380  27.8522840  57.2277510
  25.4124750  27.8731830  57.0496550  35.4418100  27.3890580  63.1805180
  36.1617220  27.8845870  62.7901290  35.2399920  26.7108470  62.5359050
  30.9028040  18.7828540  57.3234570  30.0892650  18.2841710  57.2479880
  30.7089990  19.6226790  56.9070920  30.8236900  27.4599640  69.0674180
  30.7574210  26.5395310  68.8131770  30.1942040  27.5575080  69.7818820
  33.6176430  23.1548190  55.6196730  34.5056050  23.4665420  55.4448070
  33.5881520  22.2820440  55.2277310  24.7267520  28.0605600  61.0257600
  25.2446190  27.2573860  60.9714490  24.2751540  27.9984740  61.8674430
  29.6137020  29.3271880  56.2984900  29.9552720  30.0714110  55.8028220
  28.7849730  29.6403000  56.6609730  22.2112060  25.0266970  67.9383300
  21.8527000  25.6920820  68.5256640  21.9166620  24.1950520  68.3095920
  25.4125180  25.4851210  70.8222850  25.1125320  25.6308390  69.9250670
  26.1836420  24.9256500  70.7296240  30.7553630  30.2820210  68.8177980
  30.7698170  29.3501170  68.5996890  30.0478730  30.3679970  69.4567750
  35.8890700  24.4660030  55.0876590  35.8054420  24.8974250  54.2373030
  36.6084890  24.9258380  55.5203410  36.9664840  26.9227550  68.1646560
  36.2413030  27.5156330  67.9675950  37.4940300  26.9151090  67.3659930
  36.9177950  31.3202290  57.8158720  36.2754110  30.6657910  58.0902440
  36.5308610  31.7257380  57.0399390  32.4964430  28.6487720  61.6630410
  32.8488250  28.0515850  61.0031780  31.6126760  28.3231950  61.8338660
  28.5827710  29.4085410  59.0700820  29.2698840  29.9554620  59.4508410
  27.7960130  29.9526140  59.1050430  20.7220110  25.0258230  54.5617900
  21.5914960  25.3083030  54.8453820  20.2310430  25.8394100  54.4466710
  27.8854920  26.4131440  58.6826180  28.3417700  27.2236690  58.9086370
  27.5343130  26.0954580  59.5144670  30.1887530  31.9237780  65.9118480
  30.8329750  32.1297160  66.5891900  30.5516970  31.1626180  65.4589330
  23.7866700  16.7569090  59.1548700  23.6581330  16.7486990  60.1033620
  22.9628720  17.0952180  58.8039710  31.4619610  29.9270130  64.6295930
  32.1041840  29.2263290  64.7428100  31.9868960  30.7068570  64.4492820
  35.3075330  30.2118750  54.3535070  35.0812910  29.4949190  54.9459710
  34.9171530  29.9631190  53.5156820  33.2357230  30.7265030  67.8331990
  33.5713470  31.3131720  68.5109910  32.3157570  30.5957740  68.0629780
  21.0891360  34.2385610  55.1279530  21.4489000  34.8374950  54.4736800
  20.9483700  34.7845500  55.9014560  20.7860630  18.5160210  68.6155400
  20.0719150  18.7157130  69.2208010  21.2055670  17.7399780  68.9870200
  34.8891580  28.1290690  56.0149230  34.6013280  28.5903380  56.8027110
  35.6843750  27.6688460  56.2833450  21.0733220  32.5040470  69.6021930
  21.1824340  31.5635210  69.4617320  20.4213780  32.7695220  68.9535660
  29.0645810  30.7756360  71.0020050  28.7442680  30.0565600  71.5465740
  28.3904170  31.4511430  71.0756110  27.1059980  31.6216810  55.9453200
  27.0970080  32.3546500  55.3297710  26.1858340  31.3748390  56.0380160
  22.7066620  26.8431700  56.6899960  22.0994570  27.5830600  56.6995260
  23.1815970  26.9331060  55.8638160  32.2799410  21.0082520  66.3656850
  32.6480230  20.1877730  66.6936420  31.4197610  21.0684410  66.7812500
  35.6461440  19.9639460  57.1744410  35.0174600  20.0685130  56.4602640
  35.1513360  20.1836240  57.9638290  30.0919580  31.6845050  54.6078390
  30.1931560  31.4809040  53.6780370  29.1921320  31.4303330  54.8126170
  27.6145470  22.2425410  58.5902290  26.9061620  22.7111750  59.0315900
  27.8989950  21.5847420  59.2247480  29.2401400  23.6622110  66.5894820
  29.7386650  24.1367930  67.2546670  29.3824350  22.7385630  66.7964850
  31.6460900  18.9676070  60.0298080  31.5228680  18.9862200  59.0807590
  32.5945460  19.0155010  60.1496480  28.7337690  34.2031370  59.3026060
  28.9879190  34.1652760  58.3805430  27.7850170  34.0764700  59.2954310
  25.8180490  20.5510490  55.9653000  26.6671020  20.9880640  55.8993190
  25.4511760  20.8630750  56.7925060  36.4468260  19.8790070  67.4323210
  35.9441860  20.6195470  67.7717020  37.2624920  20.2674070  67.1160000
  34.7390270  25.1223250  60.8784570  33.7980410  25.1373480  61.0532260
  35.0534340  24.3359210  61.3244870  24.7171910  26.8042850  54.4388530
  25.4835180  26.6924210  55.0013960  24.7946600  26.1080820  53.7865300
  23.4118670  24.2367920  55.1221420  23.4922260  23.2895430  55.2338820
  24.3038420  24.5674800  55.2282080  36.7415850  32.2932100  62.5538830
  36.8663270  33.1163270  63.0262640  37.6081410  32.0822830  62.2062980
  24.2133380  34.3863310  62.2255960  24.9495860  33.8378770  62.4964530
  24.5974300  35.2519320  62.0861950  21.0978860  30.4536880  58.0997470
  20.1718640  30.6958020  58.0902880  21.5635290  31.2811140  57.9782220
  23.2191660  33.5709380  71.4141540  24.0204390  33.8921430  71.8276940
  22.7043480  33.2104960  72.1361450  27.3235690  33.5593620  54.0481530
  28.1164300  33.8482450  53.5963320  26.8040040  33.1285790  53.3694010
  32.0556290  29.6789250  71.3616950  31.4494450  29.7020850  70.6212700
  31.7510400  28.9472290  71.8984200  33.4856660  33.4069540  69.9726360
  34.4378410  33.3227560  69.9226600  33.3384880  34.0711250  70.6460150
  20.9389470  26.0582840  70.3577590  21.4428490  25.4790120  70.9293820
  20.1996890  26.3423070  70.8953960  27.8413090  28.7797030  53.9123880
  27.7363730  28.1649380  54.6385260  27.6737310  28.2562920  53.1286890
  27.9927410  27.4653830  69.8913110  27.2273080  28.0338830  69.8067780
  28.1743370  27.1730040  68.9981340  31.0815820  27.8417060  54.5165870
  30.5325920  28.2886360  55.1608610  31.7035080  27.3366310  55.0403540
  35.1350760  29.1959160  70.4488130  35.8760230  29.5334920  69.9455590
  34.3723440  29.3651220  69.8957900  22.9712550  24.2012430  71.2527660
  23.0117890  23.9026300  72.1612890  23.8258050  24.6020040  71.0935180
  26.7490940  26.8007980  56.4131170  27.1707360  26.6347850  57.2562560
  26.8741780  25.9908210  55.9186310  24.9118360  22.7804530  69.2202150
  24.3814820  22.2895480  68.5925490  25.5806430  23.2088730  68.6860080
  29.2618580  25.8245590  53.6608270  29.7824240  25.1094610  53.2949420
  29.9086980  26.4631460  53.9608780  33.8096420  27.2473990  68.9843340
  34.2237440  27.4019070  69.8333760  32.8747420  27.3729210  69.1469120
  34.2818590  24.5870150  70.9882490  34.8639360  23.8322470  70.9002970
  34.4580360  25.1177590  70.2113970  25.3990660  19.7466900  69.2999440
  25.3047530  19.1287650  68.5750310  24.8188050  20.4733190  69.0729350
  28.1652100  18.3040140  66.3326830  27.7169400  18.3264400  65.4872380
  27.5317300  17.9059160  66.9297130  28.5711650  27.1994470  66.9539270
  28.9899760  28.0427200  66.7815510  27.6520280  27.3366510  66.7246050
  30.9075550  24.9310650  68.3377110  31.0271760  24.3351790  69.0771950
  31.7669550  24.9680340  67.9178410  33.2463450  25.4847840  66.9139620
  32.7198670  26.0090460  66.3104760  33.5894790  26.1175230  67.5449350
  25.6449840  22.8741210  53.3589330  25.4438900  22.0108570  53.7202670
  25.4741890  22.7874570  52.4210930  26.4219070  33.5047480  68.0697000
  25.8840160  34.2293540  67.7505700  26.6753030  33.0277820  67.2794340
  27.6744320  21.4732000  69.5952930  28.2644010  21.1647850  70.2830750
  26.8564560  21.0011750  69.7512830  32.4937750  21.0897810  69.8285950
  31.8053270  20.4279350  69.7635940  33.2143770  20.6436080  70.2734410
  33.1238150  17.6849440  55.8876210  33.4040440  16.8417340  56.2435630
  32.3503880  17.9172550  56.4014960  24.4432640  19.9741830  53.3467210
  24.7458540  19.9809260  52.4386360  25.1827230  19.6239690  53.8434870
  29.2781280  34.7398690  68.3283650  29.2039980  35.6433830  68.6356020
  28.3760120  34.4210590  68.3005720  27.6617570  18.9176450  54.3323410
  27.3139570  18.2400440  53.7525860  27.8630340  18.4565960  55.1466800
  29.8266610  33.9057200  55.9510010  30.7217400  34.2442170  55.9728770
  29.8584240  33.1836610  55.3234290  23.4662770  29.2784250  54.1797010
  23.9037640  29.8213920  54.8354590  23.9510500  28.4531200  54.1893350
  20.6808570  32.0673280  61.6317270  21.0111580  31.1994340  61.3995910
  21.1099570  32.2731800  62.4622230  25.2770490  30.3982290  59.2919240
  24.9766030  30.2747260  60.1923150  25.1707980  29.5390880  58.8834970
  21.1698780  32.9343870  64.3698900  20.7329770  33.1144670  65.2023050
  21.7376460  33.6918490  64.2280620  36.8060960  32.4360870  68.6576210
  36.2062950  32.4953430  67.9140130  36.9354860  31.4965850  68.7873060
  38.0462410  30.1778690  53.9945920  37.2155370  30.2455340  54.4653150
  38.2234240  31.0682810  53.6912780  37.5018870  26.9226170  56.4980120
  38.2637780  27.4922820  56.6039810  37.5173240  26.3553370  57.2688430
  21.0023210  25.4464100  60.7287780  20.3472050  25.1775740  60.0847480
  21.8401160  25.3368580  60.2789760  38.5078840  27.7776270  61.3422050
  38.8787670  26.9943590  60.9358020  39.1480770  28.4665370  61.1639350
  35.4912600  29.1612850  66.7552370  34.6772440  29.5910010  67.0178160
  35.8986800  29.7731260  66.1421420  37.5538040  27.2160540  53.6552640
  37.8286880  28.1239420  53.5271860  37.3648780  27.1523070  54.5914630
  33.9513650  20.2405390  54.9506270  34.3698530  20.0536370  54.1102930
  33.6449710  19.3884440  55.2609200  37.4503380  25.1529530  58.6482070
  37.0746980  24.3857460  58.2163360  36.7206500  25.5352230  59.1357000
  22.0399140  25.8316670  65.2691120  22.4072180  25.7444070  66.1487140
  21.4709960  25.0683220  65.1697980  36.8403000  24.3001050  68.2821590
  36.6089090  24.0713800  67.3819540  37.1007550  25.2200600  68.2366480
  21.5915140  22.7425760  69.1749540  20.6971190  22.7092520  69.5143250
  22.1312690  22.9412550  69.9400790  35.2791070  19.5257480  71.0601290
  36.1561250  19.5340880  71.4435290  35.2911910  18.7888320  70.4493640
  20.2161290  22.6563030  56.6713110  19.3125370  22.9193230  56.4964770
  20.7001910  22.9274200  55.8913070  36.7254340  23.3787020  61.9489310
  37.2491820  22.8849670  61.3179480  37.3113760  23.5137380  62.6936880
  36.9044060  23.4626890  65.4708860  35.9546770  23.4290430  65.5853850
  37.0857070  24.3727000  65.2358630  22.7588500  21.7128570  54.5807490
  23.4680200  21.2911790  54.0954770  22.0428440  21.7803800  53.9490840
  22.4062660  17.7667900  53.6210140  23.1290790  18.3076840  53.9391360
  22.6787180  17.4931320  52.7451680  36.2154310  22.6360370  57.8881720
  36.7113430  22.4031240  58.6730600  36.0170380  21.7972210  57.4719360
  22.0954850  17.0174090  63.5232760  22.7431040  16.4671470  63.0827920
  22.5156690  17.2717240  64.3448570  37.6441470  21.2721320  60.4219400
  37.5340750  21.1177360  61.3601670  38.4049060  20.7442260  60.1794810
  35.9907190  17.2115450  66.8802400  36.6279410  17.8249590  67.2461590
  36.1382080  17.2476110  65.9351630  38.5331740  19.1029240  53.6625540
  39.4581050  18.9710420  53.4543830  38.5107530  19.1822060  54.6161990
  38.6070230  19.8739900  56.2882250  37.8121730  19.8085020  56.8175160
  38.8113510  20.8090540  56.2767600  35.5488650  33.9131450  60.2820640
  36.1447720  33.5916020  59.6055060  35.8066800  33.4403270  61.0733910
  21.8486850  17.1729760  66.2658080  21.5001670  17.6293580  67.0316260
  21.5174550  16.2786890  66.3480510  23.4551220  30.3449360  70.4311270
  23.4120850  29.9742270  71.3125730  23.5862230  31.2826930  70.5713090
  27.1557250  31.9008950  66.0320990  26.9148610  32.1683510  65.1451510
  28.0959890  32.0714680  66.0871850  29.3611670  18.3641640  69.7877500
  29.3000560  18.9563470  70.5372910  30.3012050  18.2567600  69.6427760
  31.9986230  18.0211700  69.4269790  32.6126640  18.3390990  68.7650870
  32.5435790  17.5360290  70.0465650  38.4161410  33.9203330  66.8331630
  37.9219690  34.3172200  66.1158760  37.8074700  33.2952540  67.2268910
  22.5207490  16.7005960  69.5408850  23.0690480  16.5194010  68.7774960
  22.5862800  15.9100070  70.0765160  23.2939250  33.2911610  67.5509050
  22.6999570  33.1596310  68.2899090  23.2863090  32.4549750  67.0851150
  32.7394270  16.5843840  65.7539080  31.8654110  16.9178950  65.5512010
  32.6305020  16.1117020  66.5790950  33.6466250  18.7914710  67.1380800
  33.3179610  17.9766470  66.7582530  34.5948550  18.7484520  67.0146490
  36.1000860  34.5626750  64.1118370  35.6403830  35.3142560  63.7376390
  35.4713320  33.8433220  64.0533170  22.9251480  30.6569990  66.5017090
  22.1985540  30.0375280  66.4343040  22.9860630  31.0510600  65.6315170
  26.5296580  32.8714990  63.2866500  27.0461600  32.2602350  62.7614760
  27.1793960  33.3743770  63.7777510  29.2692080  33.7623480  64.1135480
  29.5569890  33.5077780  63.2368490  29.7815300  33.2100840  64.7041050
  30.4869090  17.5013680  64.6931990  29.7040880  17.9759180  64.9728750
  30.1932020  16.5968510  64.5845170  35.0390160  18.2036780  62.7381080
  35.4798250  18.1481880  61.8902680  34.7697750  19.1194790  62.8091260
  36.9028730  17.8352020  60.7489900  36.8417130  16.8913240  60.6020920
  37.6820760  17.9432110  61.2943360  21.2081480  33.9744380  59.7113850
  21.0403520  33.3415060  60.4095740  20.3415990  34.1803780  59.3608040
  21.8309500  17.8061160  57.2145710  22.5888860  17.9190040  56.6409740
  21.3686670  18.6430360  57.1689140  28.3723310  19.9200430  60.2048020
  27.5597820  19.5457320  59.8643900  28.8764950  19.1645510  60.5069210
  32.8748290  16.5842880  61.4431090  33.4777660  17.1563090  61.9179610
  32.1341280  17.1482320  61.2204990  36.0182890  16.9864440  56.7171370
  36.2133520  17.8847890  56.9838800  35.2312760  16.7551520  57.2104320
  22.8144180  32.6677610  57.1563990  22.2891800  33.0485640  56.4525950
  22.7388760  33.2928380  57.8773700  24.2034650  18.3325210  55.7547680
  24.7327410  17.5455010  55.6255630  24.8362970  19.0116400  55.9883210
  26.3972490  18.0700350  58.8093070  25.7675230  17.3687660  58.9763200
  25.8577630  18.8304480  58.5926230  29.3364440  34.6839580  71.4803680
  30.2631750  34.4483850  71.5239640  29.3214870  35.5111580  70.9989710
  37.5709500  34.2265150  58.4777930  37.7461690  33.5402890  57.8338850
  36.8731070  34.7512200  58.0854600  26.5228050  17.3484330  71.2445560
  26.2412320  17.8517930  70.4806380  26.9047750  16.5506080  70.8787690
  25.4137150  34.6159990  56.0313240  26.1455970  34.3319270  55.4837130
  25.6730820  34.3773270  56.9212620  24.5751940  30.7324720  56.0359570
  23.9460820  31.2009820  56.5845400  24.6899770  29.8873940  56.4705760
  33.1243510  16.7637910  71.8226030  33.0108960  17.0832520  72.7177550
  33.9413250  17.1650420  71.5263310  35.9042000  33.9109440  71.3044720
  36.6967320  33.4158670  71.0970680  36.1975150  34.5899580  71.9120330
  32.0301660  24.7830380  42.1860770  31.9495710  23.8684990  41.9152480
  31.6166080  25.2797450  41.4800480  30.1619700  26.5609400  44.0670040
  29.3861800  26.0809840  44.3568610  30.8132630  25.8815050  43.8926200
  24.1785530  26.8729210  44.9445800  23.3470410  26.6177920  45.3442310
  24.7866510  26.9439980  45.6803720  34.1827130  30.9669590  42.8469170
  33.7208660  30.1956830  43.1756340  34.9952680  30.9935660  43.3521620
  24.1586790  30.9069300  45.1403820  24.4614830  30.0167040  44.9614040
  24.9030380  31.4639520  44.9126070  22.5877480  21.8331100  38.7288190
  21.6994180  22.1747070  38.6268070  22.8718670  21.6331420  37.8369020
  20.5510490  24.4336750  44.6127890  21.1226600  23.6658950  44.6131530
  20.5512030  24.7325510  43.7034500  30.4090440  33.2527600  42.4673160
  29.7901880  33.7085100  41.8967600  31.2642220  33.4079060  42.0662860
  29.6028690  29.2366590  44.0740200  29.5336970  28.2956530  43.9129330
  30.3648550  29.3268000  44.6462770  21.7935360  19.8421110  46.3996820
  21.6138200  18.9446860  46.6799580  21.3915440  20.3892980  47.0743770
  30.6333860  22.0436970  44.3009130  31.0098680  21.1708850  44.1882800
  30.5353370  22.3795670  43.4099570  24.7638870  20.4162600  39.7626570
  24.8705620  21.3166330  40.0695330  23.8531230  20.3680570  39.4721220
  34.4157980  19.5387410  41.2337470  35.2367600  19.0483980  41.2762950
  34.4492060  20.1285070  41.9869310  22.4122030  22.3381610  45.0079160
  23.0932140  22.6019980  45.6266560  22.0970080  21.4982480  45.3417170
  26.6046600  23.3848970  44.0951750  27.1124820  23.8829940  44.7356770
  27.1359840  22.6084170  43.9191110  38.7057530  21.5554160  47.7981100
  38.0009700  21.9435870  47.2796210  38.9715450  22.2504450  48.4002030
  24.8882700  18.0247530  48.3615170  24.8901140  18.5419920  47.5561070
  24.0587010  17.5477710  48.3385100  31.2753790  28.1366840  39.8605070
  30.6571060  28.6016290  39.2967790  31.7877040  28.8294320  40.2774580
  26.1385550  27.6642710  46.5388670  25.8054930  28.2911630  47.1809740
  26.3152230  28.1904590  45.7590340  34.6519460  21.4787790  44.0065010
  33.9475030  21.7672680  44.5868120  35.0131620  22.2887900  43.6464570
  24.5698030  19.7357490  46.3685620  24.9114840  20.5799540  46.0739490
  23.6313840  19.8841230  46.4850960  25.3504650  29.6323510  48.3537850
  25.9678650  30.3074590  48.0722300  24.4897770  30.0411490  48.2625350
  20.6436990  28.8223370  37.2344700  20.2664970  29.3110470  36.5029600
  20.9010060  29.4948650  37.8651230  36.2682240  31.0962920  46.2692490
  35.5845760  31.7662030  46.2609160  36.8076530  31.2943570  45.5037350
  37.7206380  20.9242580  44.3974220  36.7731290  20.9581560  44.5289650
  38.0456370  21.7381530  44.7823580  28.2525920  17.2239760  42.6930210
  28.5600900  16.6686650  41.9765710  27.3226620  17.3584220  42.5103200
  33.8040980  32.9407050  44.9837670  33.8168140  32.5369340  44.1159930
  33.2516200  33.7154340  44.8799100  35.0986400  29.6623270  40.0727840
  34.9882730  28.7197600  40.1977260  35.0954650  30.0238910  40.9590600
  33.2026420  27.8436890  46.3120280  33.6195210  27.6297000  45.4773740
  33.9266240  28.1009680  46.8828900  30.6406680  25.2888590  39.4290330
  29.7135960  25.2225970  39.6578800  30.7931500  26.2268720  39.3145570
  30.6275760  21.5605590  36.4257490  29.6879430  21.7219550  36.5109950
  30.9459020  22.2791270  35.8793480  37.1488520  26.2424110  46.4036520
  36.3207150  26.3117200  45.9286650  37.7439000  26.8278420  45.9352350
  34.6703970  26.8508890  39.9325580  34.0516390  26.5128440  39.2851880
  34.6528420  26.2068650  40.6404770  34.1130530  23.0293430  47.3491390
  33.7001710  23.8547140  47.6031380  33.3806480  22.4438470  47.1567750
  26.2463320  25.8153330  42.2110060  25.8420320  25.1030580  41.7155960
  26.3326440  25.4706570  43.0998100  26.7145020  29.5020890  44.3749270
  26.4173310  28.8966360  43.6957050  27.6644840  29.5398200  44.2638630
  24.9591940  22.5896540  45.9909100  25.5106530  22.6991880  45.2162350
  25.4735450  22.9634140  46.7064330  25.8063450  29.2402580  51.0257070
  24.9091980  29.4642550  51.2730470  25.8316320  29.3637520  50.0768470
  32.8468670  26.0895700  36.9398330  33.2861950  25.2518130  36.7936150
  33.5597090  26.7225100  37.0262470  24.6334670  26.1115900  49.6014440
  24.4942440  26.9838700  49.9701840  23.7516030  25.7688710  49.4562380
  30.9564050  31.0291770  40.9079570  31.3959960  31.7716100  40.4934960
  30.8950940  31.2718340  41.8318530  26.4315020  32.0537600  51.8099590
  26.4030450  32.4580550  50.9428020  26.2679990  31.1247960  51.6471190
  36.4285810  17.3438510  35.2539370  36.1158470  17.4365340  36.1538440
  37.1898280  17.9219540  35.2036800  22.9467950  24.7098310  39.7116710
  22.8265550  25.4360400  39.0997980  22.6368840  23.9401220  39.2344620
  20.5853320  27.8813450  45.5185350  20.6633740  28.0162220  44.5741070
  21.1995000  27.1729340  45.7113470  21.8300950  29.5813640  41.9291530
  21.4229030  29.7228230  41.0745130  22.7213960  29.2973800  41.7262740
  37.7863090  30.0277550  50.2663770  37.9126150  29.7889430  49.3480950
  37.8284470  29.1962090  50.7385850  31.6479830  33.7305550  48.8358580
  32.1624500  33.6413560  49.6381010  30.8048910  34.0765250  49.1286490
  33.6234230  34.0160890  38.2642580  33.4635370  33.7263830  39.1624410
  33.4580940  33.2401020  37.7287810  26.1022610  33.7959420  40.0414200
  25.9265090  32.8794960  39.8282000  25.2478350  34.1546710  40.2812000
  33.3260360  31.5248450  36.8240580  32.6325520  31.5225740  36.1642860
  34.0683220  31.1007770  36.3934750  32.8910290  33.1511160  40.8989070
  33.3467240  32.3700540  41.2127690  33.2302810  33.8617980  41.4430250
  37.6387100  22.0810010  51.2313510  37.0231370  22.5889680  50.7028970
  37.3183520  21.1808340  51.1739450  20.6412840  28.9227620  48.0579810
  20.8043880  28.4532980  47.2399180  21.1065290  28.4151180  48.7228650
  25.4131610  18.0533380  43.0940380  24.9699760  18.8342920  42.7624900
  25.9716600  18.3763270  43.8011320  29.7001420  20.9201900  48.6975700
  29.2380790  21.1284920  49.5095640  29.2979530  20.1061250  48.3946370
  34.7005930  22.1410850  49.8272360  33.8499520  21.8416600  50.1481430
  34.5407720  22.3852860  48.9156180  31.7955640  23.6412600  51.9271150
  32.1209050  22.8076350  51.5873380  32.5835970  24.1641120  52.0749480
  28.5290430  17.6744080  37.9746210  27.9044610  17.6703950  38.6999520
  28.4420550  16.8075040  37.5782180  27.4507510  18.5980710  44.9529980
  27.7479840  19.5043540  44.8722000  27.9993070  18.1099490  44.3389550
  25.2045830  23.1766950  40.8221630  24.9786750  22.9604120  41.7268250
  24.4238360  23.6095410  40.4767600  32.4343590  23.1830320  39.4212280
  31.8352480  23.9066120  39.2375900  32.9823200  23.1207100  38.6388730
  27.6445040  24.0752530  51.4881900  27.5488640  23.1347260  51.3382300
  28.4877020  24.2967600  51.0929970  31.0408460  21.8193860  41.4515560
  31.4338030  22.1366060  40.6384250  31.4025310  20.9405740  41.5660080
  22.7755580  20.4866200  49.6415680  22.3818970  21.3341410  49.8488460
  22.0873980  19.8492570  49.8324320  29.3500630  20.5701170  52.7112420
  28.6598950  20.3773370  53.3458510  30.0932930  20.8535810  53.2436720
  20.0772630  18.4094660  43.6745760  19.7885680  18.9797520  44.3870740
  20.8218390  17.9299110  44.0376990  20.2642860  22.3514780  34.8848480
  20.1817530  23.2945540  35.0263470  19.9125920  22.2089690  34.0060830
  31.6263600  24.4099610  45.5466340  30.8944720  24.9186420  45.8956440
  31.2287940  23.5929590  45.2455120  28.0640990  21.0853810  43.9518830
  28.0677050  20.6443760  43.1023370  28.9592110  21.4071140  44.0590650
  23.9143370  20.9680300  42.9113040  23.5743420  21.4455530  43.6680090
  23.1520690  20.5145420  42.5514140  28.1261140  22.0865890  36.9425590
  28.2473960  22.0452370  37.8911410  27.7409650  22.9490040  36.7872320
  32.0889510  19.8633290  44.9589280  32.1062250  20.3141940  45.8031130
  31.8405090  18.9638930  45.1722720  27.1382640  24.3967030  36.3408890
  26.5699540  23.9485280  35.7144800  27.8471640  24.7559810  35.8074040
  35.5160260  17.2765470  50.7975660  35.8406030  16.5455130  51.3233640
  35.5516770  16.9579110  49.8956650  22.2151820  28.2979050  50.2175620
  21.8306610  27.6572720  50.8158580  22.5264010  29.0015170  50.7870350
  28.3648960  25.1455590  45.6984240  28.7319090  24.6714160  46.4445580
  28.1754020  26.0197160  46.0392580  21.2289450  19.8899280  41.8277710
  20.9436370  19.5254950  42.6656330  21.1668310  19.1579740  41.2140850
  26.1548330  24.1864230  48.0168450  25.8505400  25.0656210  48.2418810
  27.1094790  24.2464020  48.0525890  24.6830120  28.3925220  38.6135300
  23.9092380  27.8522840  38.4534020  25.4124750  27.8731830  38.2753060
  35.4418100  27.3890580  44.4061690  36.1617220  27.8845870  44.0157800
  35.2399920  26.7108470  43.7615560  30.9028040  18.7828540  38.5491080
  30.0892650  18.2841710  38.4736390  30.7089990  19.6226790  38.1327430
  30.8236900  27.4599640  50.2930690  30.7574210  26.5395310  50.0388280
  30.1942040  27.5575080  51.0075330  33.6176430  23.1548190  36.8453240
  34.5056050  23.4665420  36.6704580  33.5881520  22.2820440  36.4533820
  24.7267520  28.0605600  42.2514110  25.2446190  27.2573860  42.1971000
  24.2751540  27.9984740  43.0930940  29.6137020  29.3271880  37.5241410
  29.9552720  30.0714110  37.0284730  28.7849730  29.6403000  37.8866240
  22.2112060  25.0266970  49.1639810  21.8527000  25.6920820  49.7513150
  21.9166620  24.1950520  49.5352430  25.4125180  25.4851210  52.0479360
  25.1125320  25.6308390  51.1507180  26.1836420  24.9256500  51.9552750
  30.7553630  30.2820210  50.0434490  30.7698170  29.3501170  49.8253400
  30.0478730  30.3679970  50.6824260  35.8890700  24.4660030  36.3133100
  35.8054420  24.8974250  35.4629540  36.6084890  24.9258380  36.7459920
  36.9664840  26.9227550  49.3903070  36.2413030  27.5156330  49.1932460
  37.4940300  26.9151090  48.5916440  36.9177950  31.3202290  39.0415230
  36.2754110  30.6657910  39.3158950  36.5308610  31.7257380  38.2655900
  32.4964430  28.6487720  42.8886920  32.8488250  28.0515850  42.2288290
  31.6126760  28.3231950  43.0595170  28.5827710  29.4085410  40.2957330
  29.2698840  29.9554620  40.6764920  27.7960130  29.9526140  40.3306940
  20.7220110  25.0258230  35.7874410  21.5914960  25.3083030  36.0710330
  20.2310430  25.8394100  35.6723220  27.8854920  26.4131440  39.9082690
  28.3417700  27.2236690  40.1342880  27.5343130  26.0954580  40.7401180
  30.1887530  31.9237780  47.1374990  30.8329750  32.1297160  47.8148410
  30.5516970  31.1626180  46.6845840  23.7866700  16.7569090  40.3805210
  23.6581330  16.7486990  41.3290130  22.9628720  17.0952180  40.0296220
  31.4619610  29.9270130  45.8552440  32.1041840  29.2263290  45.9684610
  31.9868960  30.7068570  45.6749330  35.3075330  30.2118750  35.5791580
  35.0812910  29.4949190  36.1716220  34.9171530  29.9631190  34.7413330
  33.2357230  30.7265030  49.0588500  33.5713470  31.3131720  49.7366420
  32.3157570  30.5957740  49.2886290  21.0891360  34.2385610  36.3536040
  21.4489000  34.8374950  35.6993310  20.9483700  34.7845500  37.1271070
  20.7860630  18.5160210  49.8411910  20.0719150  18.7157130  50.4464520
  21.2055670  17.7399780  50.2126710  34.8891580  28.1290690  37.2405740
  34.6013280  28.5903380  38.0283620  35.6843750  27.6688460  37.5089960
  21.0733220  32.5040470  50.8278440  21.1824340  31.5635210  50.6873830
  20.4213780  32.7695220  50.1792170  29.0645810  30.7756360  52.2276560
  28.7442680  30.0565600  52.7722250  28.3904170  31.4511430  52.3012620
  27.1059980  31.6216810  37.1709710  27.0970080  32.3546500  36.5554220
  26.1858340  31.3748390  37.2636670  22.7066620  26.8431700  37.9156470
  22.0994570  27.5830600  37.9251770  23.1815970  26.9331060  37.0894670
  32.2799410  21.0082520  47.5913360  32.6480230  20.1877730  47.9192930
  31.4197610  21.0684410  48.0069010  35.6461440  19.9639460  38.4000920
  35.0174600  20.0685130  37.6859150  35.1513360  20.1836240  39.1894800
  30.0919580  31.6845050  35.8334900  30.1931560  31.4809040  34.9036880
  29.1921320  31.4303330  36.0382680  27.6145470  22.2425410  39.8158800
  26.9061620  22.7111750  40.2572410  27.8989950  21.5847420  40.4503990
  29.2401400  23.6622110  47.8151330  29.7386650  24.1367930  48.4803180
  29.3824350  22.7385630  48.0221360  31.6460900  18.9676070  41.2554590
  31.5228680  18.9862200  40.3064100  32.5945460  19.0155010  41.3752990
  28.7337690  34.2031370  40.5282570  28.9879190  34.1652760  39.6061940
  27.7850170  34.0764700  40.5210820  25.8180490  20.5510490  37.1909510
  26.6671020  20.9880640  37.1249700  25.4511760  20.8630750  38.0181570
  36.4468260  19.8790070  48.6579720  35.9441860  20.6195470  48.9973530
  37.2624920  20.2674070  48.3416510  34.7390270  25.1223250  42.1041080
  33.7980410  25.1373480  42.2788770  35.0534340  24.3359210  42.5501380
  24.7171910  26.8042850  35.6645040  25.4835180  26.6924210  36.2270470
  24.7946600  26.1080820  35.0121810  23.4118670  24.2367920  36.3477930
  23.4922260  23.2895430  36.4595330  24.3038420  24.5674800  36.4538590
  36.7415850  32.2932100  43.7795340  36.8663270  33.1163270  44.2519150
  37.6081410  32.0822830  43.4319490  24.2133380  34.3863310  43.4512470
  24.9495860  33.8378770  43.7221040  24.5974300  35.2519320  43.3118460
  21.0978860  30.4536880  39.3253980  20.1718640  30.6958020  39.3159390
  21.5635290  31.2811140  39.2038730  23.2191660  33.5709380  52.6398050
  24.0204390  33.8921430  53.0533450  22.7043480  33.2104960  53.3617960
  27.3235690  33.5593620  35.2738040  28.1164300  33.8482450  34.8219830
  26.8040040  33.1285790  34.5950520  32.0556290  29.6789250  52.5873460
  31.4494450  29.7020850  51.8469210  31.7510400  28.9472290  53.1240710
  36.3765860  32.7863750  36.6974780  36.0907370  32.3728890  35.8828960
  36.1785410  33.7151460  36.5775300  20.9389470  26.0582840  51.5834100
  21.4428490  25.4790120  52.1550330  20.1996890  26.3423070  52.1210470
  27.8413090  28.7797030  35.1380390  27.7363730  28.1649380  35.8641770
  27.6737310  28.2562920  34.3543400  27.9927410  27.4653830  51.1169620
  27.2273080  28.0338830  51.0324290  28.1743370  27.1730040  50.2237850
  31.0815820  27.8417060  35.7422380  30.5325920  28.2886360  36.3865120
  31.7035080  27.3366310  36.2660050  35.1350760  29.1959160  51.6744640
  35.8760230  29.5334920  51.1712100  34.3723440  29.3651220  51.1214410
  22.9712550  24.2012430  52.4784170  23.0117890  23.9026300  53.3869400
  23.8258050  24.6020040  52.3191690  26.7490940  26.8007980  37.6387680
  27.1707360  26.6347850  38.4819070  26.8741780  25.9908210  37.1442820
  24.9118360  22.7804530  50.4458660  24.3814820  22.2895480  49.8182000
  25.5806430  23.2088730  49.9116590  29.2618580  25.8245590  34.8864780
  29.7824240  25.1094610  34.5205930  29.9086980  26.4631460  35.1865290
  33.8096420  27.2473990  50.2099850  34.2237440  27.4019070  51.0590270
  32.8747420  27.3729210  50.3725630  34.2818590  24.5870150  52.2139000
  34.8639360  23.8322470  52.1259480  34.4580360  25.1177590  51.4370480
  25.3990660  19.7466900  50.5255950  25.3047530  19.1287650  49.8006820
  24.8188050  20.4733190  50.2985860  28.1652100  18.3040140  47.5583340
  27.7169400  18.3264400  46.7128890  27.5317300  17.9059160  48.1553640
  28.5711650  27.1994470  48.1795780  28.9899760  28.0427200  48.0072020
  27.6520280  27.3366510  47.9502560  30.9075550  24.9310650  49.5633620
  31.0271760  24.3351790  50.3028460  31.7669550  24.9680340  49.1434920
  33.2463450  25.4847840  48.1396130  32.7198670  26.0090460  47.5361270
  33.5894790  26.1175230  48.7705860  25.6449840  22.8741210  34.5845840
  25.4438900  22.0108570  34.9459180  25.4741890  22.7874570  33.6467440
  26.4219070  33.5047480  49.2953510  25.8840160  34.2293540  48.9762210
  26.6753030  33.0277820  48.5050850  27.6744320  21.4732000  50.8209440
  28.2644010  21.1647850  51.5087260  26.8564560  21.0011750  50.9769340
  32.4937750  21.0897810  51.0542460  31.8053270  20.4279350  50.9892450
  33.2143770  20.6436080  51.4990920  33.1238150  17.6849440  37.1132720
  33.4040440  16.8417340  37.4692140  32.3503880  17.9172550  37.6271470
  24.4432640  19.9741830  34.5723720  24.7458540  19.9809260  33.6642870
  25.1827230  19.6239690  35.0691380  29.2781280  34.7398690  49.5540160
  29.2039980  35.6433830  49.8612530  28.3760120  34.4210590  49.5262230
  27.6617570  18.9176450  35.5579920  27.3139570  18.2400440  34.9782370
  27.8630340  18.4565960  36.3723310  29.8266610  33.9057200  37.1766520
  30.7217400  34.2442170  37.1985280  29.8584240  33.1836610  36.5490800
  23.4662770  29.2784250  35.4053520  23.9037640  29.8213920  36.0611100
  23.9510500  28.4531200  35.4149860  20.6808570  32.0673280  42.8573780
  21.0111580  31.1994340  42.6252420  21.1099570  32.2731800  43.6878740
  25.2770490  30.3982290  40.5175750  24.9766030  30.2747260  41.4179660
  25.1707980  29.5390880  40.1091480  21.1698780  32.9343870  45.5955410
  20.7329770  33.1144670  46.4279560  21.7376460  33.6918490  45.4537130
  38.0462410  30.1778690  35.2202430  37.2155370  30.2455340  35.6909660
  38.2234240  31.0682810  34.9169290  37.5018870  26.9226170  37.7236630
  38.2637780  27.4922820  37.8296320  37.5173240  26.3553370  38.4944940
  21.0023210  25.4464100  41.9544290  20.3472050  25.1775740  41.3103990
  21.8401160  25.3368580  41.5046270  38.5078840  27.7776270  42.5678560
  38.8787670  26.9943590  42.1614530  39.1480770  28.4665370  42.3895860
  35.4912600  29.1612850  47.9808880  34.6772440  29.5910010  48.2434670
  35.8986800  29.7731260  47.3677930  37.5538040  27.2160540  34.8809150
  37.8286880  28.1239420  34.7528370  37.3648780  27.1523070  35.8171140
  33.9513650  20.2405390  36.1762780  34.3698530  20.0536370  35.3359440
  33.6449710  19.3884440  36.4865710  37.4503380  25.1529530  39.8738580
  37.0746980  24.3857460  39.4419870  36.7206500  25.5352230  40.3613510
  22.0399140  25.8316670  46.4947630  22.4072180  25.7444070  47.3743650
  21.4709960  25.0683220  46.3954490  36.8403000  24.3001050  49.5078100
  36.6089090  24.0713800  48.6076050  37.1007550  25.2200600  49.4622990
  21.5915140  22.7425760  50.4006050  20.6971190  22.7092520  50.7399760
  22.1312690  22.9412550  51.1657300  35.2791070  19.5257480  52.2857800
  36.1561250  19.5340880  52.6691800  35.2911910  18.7888320  51.6750150
  20.2161290  22.6563030  37.8969620  19.3125370  22.9193230  37.7221280
  20.7001910  22.9274200  37.1169580  36.7254340  23.3787020  43.1745820
  37.2491820  22.8849670  42.5435990  37.3113760  23.5137380  43.9193390
  36.9044060  23.4626890  46.6965370  35.9546770  23.4290430  46.8110360
  37.0857070  24.3727000  46.4615140  22.7588500  21.7128570  35.8064000
  23.4680200  21.2911790  35.3211280  22.0428440  21.7803800  35.1747350
  22.4062660  17.7667900  34.8466650  23.1290790  18.3076840  35.1647870
  22.6787180  17.4931320  33.9708190  36.2154310  22.6360370  39.1138230
  36.7113430  22.4031240  39.8987110  36.0170380  21.7972210  38.6975870
  22.0954850  17.0174090  44.7489270  22.7431040  16.4671470  44.3084430
  22.5156690  17.2717240  45.5705080  37.6441470  21.2721320  41.6475910
  37.5340750  21.1177360  42.5858180  38.4049060  20.7442260  41.4051320
  35.9907190  17.2115450  48.1058910  36.6279410  17.8249590  48.4718100
  36.1382080  17.2476110  47.1608140  38.5331740  19.1029240  34.8882050
  39.4581050  18.9710420  34.6800340  38.5107530  19.1822060  35.8418500
  38.6070230  19.8739900  37.5138760  37.8121730  19.8085020  38.0431670
  38.8113510  20.8090540  37.5024110  35.5488650  33.9131450  41.5077150
  36.1447720  33.5916020  40.8311570  35.8066800  33.4403270  42.2990420
  21.8486850  17.1729760  47.4914590  21.5001670  17.6293580  48.2572770
  21.5174550  16.2786890  47.5737020  23.4551220  30.3449360  51.6567780
  23.4120850  29.9742270  52.5382240  23.5862230  31.2826930  51.7969600
  27.1557250  31.9008950  47.2577500  26.9148610  32.1683510  46.3708020
  28.0959890  32.0714680  47.3128360  29.3611670  18.3641640  51.0134010
  29.3000560  18.9563470  51.7629420  30.3012050  18.2567600  50.8684270
  31.9986230  18.0211700  50.6526300  32.6126640  18.3390990  49.9907380
  32.5435790  17.5360290  51.2722160  22.5207490  16.7005960  50.7665360
  23.0690480  16.5194010  50.0031470  22.5862800  15.9100070  51.3021670
  23.2939250  33.2911610  48.7765560  22.6999570  33.1596310  49.5155600
  23.2863090  32.4549750  48.3107660  32.7394270  16.5843840  46.9795590
  31.8654110  16.9178950  46.7768520  32.6305020  16.1117020  47.8047460
  33.6466250  18.7914710  48.3637310  33.3179610  17.9766470  47.9839040
  34.5948550  18.7484520  48.2403000  36.1000860  34.5626750  45.3374880
  35.6403830  35.3142560  44.9632900  35.4713320  33.8433220  45.2789680
  22.9251480  30.6569990  47.7273600  22.1985540  30.0375280  47.6599550
  22.9860630  31.0510600  46.8571680  26.5296580  32.8714990  44.5123010
  27.0461600  32.2602350  43.9871270  27.1793960  33.3743770  45.0034020
  29.2692080  33.7623480  45.3391990  29.5569890  33.5077780  44.4625000
  29.7815300  33.2100840  45.9297560  30.4869090  17.5013680  45.9188500
  29.7040880  17.9759180  46.1985260  30.1932020  16.5968510  45.8101680
  35.0390160  18.2036780  43.9637590  35.4798250  18.1481880  43.1159190
  34.7697750  19.1194790  44.0347770  36.9028730  17.8352020  41.9746410
  36.8417130  16.8913240  41.8277430  37.6820760  17.9432110  42.5199870
  21.2081480  33.9744380  40.9370360  21.0403520  33.3415060  41.6352250
  20.3415990  34.1803780  40.5864550  21.8309500  17.8061160  38.4402220
  22.5888860  17.9190040  37.8666250  21.3686670  18.6430360  38.3945650
  28.3723310  19.9200430  41.4304530  27.5597820  19.5457320  41.0900410
  28.8764950  19.1645510  41.7325720  32.8748290  16.5842880  42.6687600
  33.4777660  17.1563090  43.1436120  32.1341280  17.1482320  42.4461500
  36.0182890  16.9864440  37.9427880  36.2133520  17.8847890  38.2095310
  35.2312760  16.7551520  38.4360830  22.8144180  32.6677610  38.3820500
  22.2891800  33.0485640  37.6782460  22.7388760  33.2928380  39.1030210
  24.2034650  18.3325210  36.9804190  24.7327410  17.5455010  36.8512140
  24.8362970  19.0116400  37.2139720  26.3972490  18.0700350  40.0349580
  25.7675230  17.3687660  40.2019710  25.8577630  18.8304480  39.8182740
  29.3364440  34.6839580  52.7060190  30.2631750  34.4483850  52.7496150
  29.3214870  35.5111580  52.2246220  37.5709500  34.2265150  39.7034440
  37.7461690  33.5402890  39.0595360  36.8731070  34.7512200  39.3111110
  26.5228050  17.3484330  52.4702070  26.2412320  17.8517930  51.7062890
  26.9047750  16.5506080  52.1044200  25.4137150  34.6159990  37.2569750
  26.1455970  34.3319270  36.7093640  25.6730820  34.3773270  38.1469130
  24.5751940  30.7324720  37.2616080  23.9460820  31.2009820  37.8101910
  24.6899770  29.8873940  37.6962270  33.1243510  16.7637910  53.0482540
  33.0108960  17.0832520  53.9434060  33.9413250  17.1650420  52.7519820
  32.0301660  24.7830380  23.4117280  31.9495710  23.8684990  23.1408990
  31.6166080  25.2797450  22.7056990  30.1619700  26.5609400  25.2926550
  29.3861800  26.0809840  25.5825120  30.8132630  25.8815050  25.1182710
  24.1785530  26.8729210  26.1702310  23.3470410  26.6177920  26.5698820
  24.7866510  26.9439980  26.9060230  34.1827130  30.9669590  24.0725680
  33.7208660  30.1956830  24.4012850  34.9952680  30.9935660  24.5778130
  24.1586790  30.9069300  26.3660330  24.4614830  30.0167040  26.1870550
  24.9030380  31.4639520  26.1382580  22.5877480  21.8331100  19.9544700
  21.6994180  22.1747070  19.8524580  22.8718670  21.6331420  19.0625530
  20.5510490  24.4336750  25.8384400  21.1226600  23.6658950  25.8388040
  20.5512030  24.7325510  24.9291010  30.4090440  33.2527600  23.6929670
  29.7901880  33.7085100  23.1224110  31.2642220  33.4079060  23.2919370
  29.6028690  29.2366590  25.2996710  29.5336970  28.2956530  25.1385840
  30.3648550  29.3268000  25.8719280  21.7935360  19.8421110  27.6253330
  21.6138200  18.9446860  27.9056090  21.3915440  20.3892980  28.3000280
  30.6333860  22.0436970  25.5265640  31.0098680  21.1708850  25.4139310
  30.5353370  22.3795670  24.6356080  24.7638870  20.4162600  20.9883080
  24.8705620  21.3166330  21.2951840  23.8531230  20.3680570  20.6977730
  34.4157980  19.5387410  22.4593980  35.2367600  19.0483980  22.5019460
  34.4492060  20.1285070  23.2125820  22.4122030  22.3381610  26.2335670
  23.0932140  22.6019980  26.8523070  22.0970080  21.4982480  26.5673680
  26.6046600  23.3848970  25.3208260  27.1124820  23.8829940  25.9613280
  27.1359840  22.6084170  25.1447620  38.7057530  21.5554160  29.0237610
  38.0009700  21.9435870  28.5052720  38.9715450  22.2504450  29.6258540
  24.8882700  18.0247530  29.5871680  24.8901140  18.5419920  28.7817580
  24.0587010  17.5477710  29.5641610  31.2753790  28.1366840  21.0861580
  30.6571060  28.6016290  20.5224300  31.7877040  28.8294320  21.5031090
  26.1385550  27.6642710  27.7645180  25.8054930  28.2911630  28.4066250
  26.3152230  28.1904590  26.9846850  34.6519460  21.4787790  25.2321520
  33.9475030  21.7672680  25.8124630  35.0131620  22.2887900  24.8721080
  24.5698030  19.7357490  27.5942130  24.9114840  20.5799540  27.2996000
  23.6313840  19.8841230  27.7107470  25.3504650  29.6323510  29.5794360
  25.9678650  30.3074590  29.2978810  24.4897770  30.0411490  29.4881860
  20.6436990  28.8223370  18.4601210  20.2664970  29.3110470  17.7286110
  20.9010060  29.4948650  19.0907740  36.2682240  31.0962920  27.4949000
  35.5845760  31.7662030  27.4865670  36.8076530  31.2943570  26.7293860
  37.7206380  20.9242580  25.6230730  36.7731290  20.9581560  25.7546160
  38.0456370  21.7381530  26.0080090  28.2525920  17.2239760  23.9186720
  28.5600900  16.6686650  23.2022220  27.3226620  17.3584220  23.7359710
  33.8040980  32.9407050  26.2094180  33.8168140  32.5369340  25.3416440
  33.2516200  33.7154340  26.1055610  35.0986400  29.6623270  21.2984350
  34.9882730  28.7197600  21.4233770  35.0954650  30.0238910  22.1847110
  33.2026420  27.8436890  27.5376790  33.6195210  27.6297000  26.7030250
  33.9266240  28.1009680  28.1085410  30.6406680  25.2888590  20.6546840
  29.7135960  25.2225970  20.8835310  30.7931500  26.2268720  20.5402080
  30.6275760  21.5605590  17.6514000  29.6879430  21.7219550  17.7366460
  30.9459020  22.2791270  17.1049990  37.1488520  26.2424110  27.6293030
  36.3207150  26.3117200  27.1543160  37.7439000  26.8278420  27.1608860
  34.6703970  26.8508890  21.1582090  34.0516390  26.5128440  20.5108390
  34.6528420  26.2068650  21.8661280  34.1130530  23.0293430  28.5747900
  33.7001710  23.8547140  28.8287890  33.3806480  22.4438470  28.3824260
  26.2463320  25.8153330  23.4366570  25.8420320  25.1030580  22.9412470
  26.3326440  25.4706570  24.3254610  26.7145020  29.5020890  25.6005780
  26.4173310  28.8966360  24.9213560  27.6644840  29.5398200  25.4895140
  24.9591940  22.5896540  27.2165610  25.5106530  22.6991880  26.4418860
  25.4735450  22.9634140  27.9320840  34.8030630  33.0752760  29.2628880
  34.3261190  33.8824950  29.0701490  34.1192420  32.4231090  29.4155090
  25.8063450  29.2402580  32.2513580  24.9091980  29.4642550  32.4986980
  25.8316320  29.3637520  31.3024980  32.8468670  26.0895700  18.1654840
  33.2861950  25.2518130  18.0192660  33.5597090  26.7225100  18.2518980
  24.6334670  26.1115900  30.8270950  24.4942440  26.9838700  31.1958350
  23.7516030  25.7688710  30.6818890  30.9564050  31.0291770  22.1336080
  31.3959960  31.7716100  21.7191470  30.8950940  31.2718340  23.0575040
  26.4315020  32.0537600  33.0356100  26.4030450  32.4580550  32.1684530
  26.2679990  31.1247960  32.8727700  36.4285810  17.3438510  16.4795880
  36.1158470  17.4365340  17.3794950  37.1898280  17.9219540  16.4293310
  22.9467950  24.7098310  20.9373220  22.8265550  25.4360400  20.3254490
  22.6368840  23.9401220  20.4601130  38.3829840  32.8364700  34.3320270
  38.8589560  33.3147590  35.0109350  39.0037000  32.7682190  33.6065770
  20.5853320  27.8813450  26.7441860  20.6633740  28.0162220  25.7997580
  21.1995000  27.1729340  26.9369980  21.8300950  29.5813640  23.1548040
  21.4229030  29.7228230  22.3001640  22.7213960  29.2973800  22.9519250
  37.7863090  30.0277550  31.4920280  37.9126150  29.7889430  30.5737460
  37.8284470  29.1962090  31.9642360  31.6479830  33.7305550  30.0615090
  32.1624500  33.6413560  30.8637520  30.8048910  34.0765250  30.3543000
  33.6234230  34.0160890  19.4899090  33.4635370  33.7263830  20.3880920
  33.4580940  33.2401020  18.9544320  26.1022610  33.7959420  21.2670710
  25.9265090  32.8794960  21.0538510  25.2478350  34.1546710  21.5068510
  33.3260360  31.5248450  18.0497090  32.6325520  31.5225740  17.3899370
  34.0683220  31.1007770  17.6191260  32.8910290  33.1511160  22.1245580
  33.3467240  32.3700540  22.4384200  33.2302810  33.8617980  22.6686760
  37.6387100  22.0810010  32.4570020  37.0231370  22.5889680  31.9285480
  37.3183520  21.1808340  32.3995960  20.6412840  28.9227620  29.2836320
  20.8043880  28.4532980  28.4655690  21.1065290  28.4151180  29.9485160
  25.4131610  18.0533380  24.3196890  24.9699760  18.8342920  23.9881410
  25.9716600  18.3763270  25.0267830  29.7001420  20.9201900  29.9232210
  29.2380790  21.1284920  30.7352150  29.2979530  20.1061250  29.6202880
  34.7005930  22.1410850  31.0528870  33.8499520  21.8416600  31.3737940
  34.5407720  22.3852860  30.1412690  31.7955640  23.6412600  33.1527660
  32.1209050  22.8076350  32.8129890  32.5835970  24.1641120  33.3005990
  28.5290430  17.6744080  19.2002720  27.9044610  17.6703950  19.9256030
  28.4420550  16.8075040  18.8038690  27.4507510  18.5980710  26.1786490
  27.7479840  19.5043540  26.0978510  27.9993070  18.1099490  25.5646060
  25.2045830  23.1766950  22.0478140  24.9786750  22.9604120  22.9524760
  24.4238360  23.6095410  21.7024110  32.4343590  23.1830320  20.6468790
  31.8352480  23.9066120  20.4632410  32.9823200  23.1207100  19.8645240
  27.6445040  24.0752530  32.7138410  27.5488640  23.1347260  32.5638810
  28.4877020  24.2967600  32.3186480  31.0408460  21.8193860  22.6772070
  31.4338030  22.1366060  21.8640760  31.4025310  20.9405740  22.7916590
  22.7755580  20.4866200  30.8672190  22.3818970  21.3341410  31.0744970
  22.0873980  19.8492570  31.0580830  29.3500630  20.5701170  33.9368930
  28.6598950  20.3773370  34.5715020  30.0932930  20.8535810  34.4693230
  20.0772630  18.4094660  24.9002270  19.7885680  18.9797520  25.6127250
  20.8218390  17.9299110  25.2633500  20.2642860  22.3514780  16.1104990
  20.1817530  23.2945540  16.2519980  19.9125920  22.2089690  15.2317340
  31.6263600  24.4099610  26.7722850  30.8944720  24.9186420  27.1212950
  31.2287940  23.5929590  26.4711630  28.0640990  21.0853810  25.1775340
  28.0677050  20.6443760  24.3279880  28.9592110  21.4071140  25.2847160
  23.9143370  20.9680300  24.1369550  23.5743420  21.4455530  24.8936600
  23.1520690  20.5145420  23.7770650  28.1261140  22.0865890  18.1682100
  28.2473960  22.0452370  19.1167920  27.7409650  22.9490040  18.0128830
  32.0889510  19.8633290  26.1845790  32.1062250  20.3141940  27.0287640
  31.8405090  18.9638930  26.3979230  27.1382640  24.3967030  17.5665400
  26.5699540  23.9485280  16.9401310  27.8471640  24.7559810  17.0330550
  35.5160260  17.2765470  32.0232170  35.8406030  16.5455130  32.5490150
  35.5516770  16.9579110  31.1213160  22.2151820  28.2979050  31.4432130
  21.8306610  27.6572720  32.0415090  22.5264010  29.0015170  32.0126860
  28.3648960  25.1455590  26.9240750  28.7319090  24.6714160  27.6702090
  28.1754020  26.0197160  27.2649090  21.2289450  19.8899280  23.0534220
  20.9436370  19.5254950  23.8912840  21.1668310  19.1579740  22.4397360
  26.1548330  24.1864230  29.2424960  25.8505400  25.0656210  29.4675320
  27.1094790  24.2464020  29.2782400  24.6830120  28.3925220  19.8391810
  23.9092380  27.8522840  19.6790530  25.4124750  27.8731830  19.5009570
  35.4418100  27.3890580  25.6318200  36.1617220  27.8845870  25.2414310
  35.2399920  26.7108470  24.9872070  30.9028040  18.7828540  19.7747590
  30.0892650  18.2841710  19.6992900  30.7089990  19.6226790  19.3583940
  30.8236900  27.4599640  31.5187200  30.7574210  26.5395310  31.2644790
  30.1942040  27.5575080  32.2331840  33.6176430  23.1548190  18.0709750
  34.5056050  23.4665420  17.8961090  33.5881520  22.2820440  17.6790330
  24.7267520  28.0605600  23.4770620  25.2446190  27.2573860  23.4227510
  24.2751540  27.9984740  24.3187450  29.6137020  29.3271880  18.7497920
  29.9552720  30.0714110  18.2541240  28.7849730  29.6403000  19.1122750
  22.2112060  25.0266970  30.3896320  21.8527000  25.6920820  30.9769660
  21.9166620  24.1950520  30.7608940  25.4125180  25.4851210  33.2735870
  25.1125320  25.6308390  32.3763690  26.1836420  24.9256500  33.1809260
  30.7553630  30.2820210  31.2691000  30.7698170  29.3501170  31.0509910
  30.0478730  30.3679970  31.9080770  35.8890700  24.4660030  17.5389610
  35.8054420  24.8974250  16.6886050  36.6084890  24.9258380  17.9716430
  36.9664840  26.9227550  30.6159580  36.2413030  27.5156330  30.4188970
  37.4940300  26.9151090  29.8172950  36.9177950  31.3202290  20.2671740
  36.2754110  30.6657910  20.5415460  36.5308610  31.7257380  19.4912410
  32.4964430  28.6487720  24.1143430  32.8488250  28.0515850  23.4544800
  31.6126760  28.3231950  24.2851680  28.5827710  29.4085410  21.5213840
  29.2698840  29.9554620  21.9021430  27.7960130  29.9526140  21.5563450
  20.7220110  25.0258230  17.0130920  21.5914960  25.3083030  17.2966840
  20.2310430  25.8394100  16.8979730  27.8854920  26.4131440  21.1339200
  28.3417700  27.2236690  21.3599390  27.5343130  26.0954580  21.9657690
  30.1887530  31.9237780  28.3631500  30.8329750  32.1297160  29.0404920
  30.5516970  31.1626180  27.9102350  23.7866700  16.7569090  21.6061720
  23.6581330  16.7486990  22.5546640  22.9628720  17.0952180  21.2552730
  31.4619610  29.9270130  27.0808950  32.1041840  29.2263290  27.1941120
  31.9868960  30.7068570  26.9005840  35.3075330  30.2118750  16.8048090
  35.0812910  29.4949190  17.3972730  34.9171530  29.9631190  15.9669840
  33.2357230  30.7265030  30.2845010  33.5713470  31.3131720  30.9622930
  32.3157570  30.5957740  30.5142800  21.0891360  34.2385610  17.5792550
  21.4489000  34.8374950  16.9249820  20.9483700  34.7845500  18.3527580
  20.7860630  18.5160210  31.0668420  20.0719150  18.7157130  31.6721030
  21.2055670  17.7399780  31.4383220  34.8891580  28.1290690  18.4662250
  34.6013280  28.5903380  19.2540130  35.6843750  27.6688460  18.7346470
  21.0733220  32.5040470  32.0534950  21.1824340  31.5635210  31.9130340
  20.4213780  32.7695220  31.4048680  29.0645810  30.7756360  33.4533070
  28.7442680  30.0565600  33.9978760  28.3904170  31.4511430  33.5269130
  27.1059980  31.6216810  18.3966220  27.0970080  32.3546500  17.7810730
  26.1858340  31.3748390  18.4893180  22.7066620  26.8431700  19.1412980
  22.0994570  27.5830600  19.1508280  23.1815970  26.9331060  18.3151180
  32.2799410  21.0082520  28.8169870  32.6480230  20.1877730  29.1449440
  31.4197610  21.0684410  29.2325520  35.6461440  19.9639460  19.6257430
  35.0174600  20.0685130  18.9115660  35.1513360  20.1836240  20.4151310
  30.0919580  31.6845050  17.0591410  30.1931560  31.4809040  16.1293390
  29.1921320  31.4303330  17.2639190  27.6145470  22.2425410  21.0415310
  26.9061620  22.7111750  21.4828920  27.8989950  21.5847420  21.6760500
  29.2401400  23.6622110  29.0407840  29.7386650  24.1367930  29.7059690
  29.3824350  22.7385630  29.2477870  31.6460900  18.9676070  22.4811100
  31.5228680  18.9862200  21.5320610  32.5945460  19.0155010  22.6009500
  28.7337690  34.2031370  21.7539080  28.9879190  34.1652760  20.8318450
  27.7850170  34.0764700  21.7467330  25.8180490  20.5510490  18.4166020
  26.6671020  20.9880640  18.3506210  25.4511760  20.8630750  19.2438080
  36.4468260  19.8790070  29.8836230  35.9441860  20.6195470  30.2230040
  37.2624920  20.2674070  29.5673020  34.7390270  25.1223250  23.3297590
  33.7980410  25.1373480  23.5045280  35.0534340  24.3359210  23.7757890
  24.7171910  26.8042850  16.8901550  25.4835180  26.6924210  17.4526980
  24.7946600  26.1080820  16.2378320  23.4118670  24.2367920  17.5734440
  23.4922260  23.2895430  17.6851840  24.3038420  24.5674800  17.6795100
  36.7415850  32.2932100  25.0051850  36.8663270  33.1163270  25.4775660
  37.6081410  32.0822830  24.6576000  24.2133380  34.3863310  24.6768980
  24.9495860  33.8378770  24.9477550  24.5974300  35.2519320  24.5374970
  21.0978860  30.4536880  20.5510490  20.1718640  30.6958020  20.5415900
  21.5635290  31.2811140  20.4295240  23.2191660  33.5709380  33.8654560
  24.0204390  33.8921430  34.2789960  22.7043480  33.2104960  34.5874470
  27.3235690  33.5593620  16.4994550  28.1164300  33.8482450  16.0476340
  26.8040040  33.1285790  15.8207030  32.0556290  29.6789250  33.8129970
  31.4494450  29.7020850  33.0725720  31.7510400  28.9472290  34.3497220
  33.4856660  33.4069540  32.4239380  34.4378410  33.3227560  32.3739620
  33.3384880  34.0711250  33.0973170  36.3765860  32.7863750  17.9231290
  36.0907370  32.3728890  17.1085470  36.1785410  33.7151460  17.8031810
  20.9389470  26.0582840  32.8090610  21.4428490  25.4790120  33.3806840
  20.1996890  26.3423070  33.3466980  27.8413090  28.7797030  16.3636900
  27.7363730  28.1649380  17.0898280  27.6737310  28.2562920  15.5799910
  27.9927410  27.4653830  32.3426130  27.2273080  28.0338830  32.2580800
  28.1743370  27.1730040  31.4494360  31.0815820  27.8417060  16.9678890
  30.5325920  28.2886360  17.6121630  31.7035080  27.3366310  17.4916560
  35.1350760  29.1959160  32.9001150  35.8760230  29.5334920  32.3968610
  34.3723440  29.3651220  32.3470920  22.9712550  24.2012430  33.7040680
  23.0117890  23.9026300  34.6125910  23.8258050  24.6020040  33.5448200
  26.7490940  26.8007980  18.8644190  27.1707360  26.6347850  19.7075580
  26.8741780  25.9908210  18.3699330  24.9118360  22.7804530  31.6715170
  24.3814820  22.2895480  31.0438510  25.5806430  23.2088730  31.1373100
  29.2618580  25.8245590  16.1121290  29.7824240  25.1094610  15.7462440
  29.9086980  26.4631460  16.4121800  33.8096420  27.2473990  31.4356360
  34.2237440  27.4019070  32.2846780  32.8747420  27.3729210  31.5982140
  34.2818590  24.5870150  33.4395510  34.8639360  23.8322470  33.3515990
  34.4580360  25.1177590  32.6626990  25.3990660  19.7466900  31.7512460
  25.3047530  19.1287650  31.0263330  24.8188050  20.4733190  31.5242370
  28.1652100  18.3040140  28.7839850  27.7169400  18.3264400  27.9385400
  27.5317300  17.9059160  29.3810150  28.5711650  27.1994470  29.4052290
  28.9899760  28.0427200  29.2328530  27.6520280  27.3366510  29.1759070
  30.9075550  24.9310650  30.7890130  31.0271760  24.3351790  31.5284970
  31.7669550  24.9680340  30.3691430  33.2463450  25.4847840  29.3652640
  32.7198670  26.0090460  28.7617780  33.5894790  26.1175230  29.9962370
  25.6449840  22.8741210  15.8102350  25.4438900  22.0108570  16.1715690
  25.4741890  22.7874570  14.8723950  26.4219070  33.5047480  30.5210020
  25.8840160  34.2293540  30.2018720  26.6753030  33.0277820  29.7307360
  27.6744320  21.4732000  32.0465950  28.2644010  21.1647850  32.7343770
  26.8564560  21.0011750  32.2025850  32.4937750  21.0897810  32.2798970
  31.8053270  20.4279350  32.2148960  33.2143770  20.6436080  32.7247430
  33.1238150  17.6849440  18.3389230  33.4040440  16.8417340  18.6948650
  32.3503880  17.9172550  18.8527980  24.4432640  19.9741830  15.7980230
  24.7458540  19.9809260  14.8899380  25.1827230  19.6239690  16.2947890
  29.2781280  34.7398690  30.7796670  29.2039980  35.6433830  31.0869040
  28.3760120  34.4210590  30.7518740  27.6617570  18.9176450  16.7836430
  27.3139570  18.2400440  16.2038880  27.8630340  18.4565960  17.5979820
  29.8266610  33.9057200  18.4023030  30.7217400  34.2442170  18.4241790
  29.8584240  33.1836610  17.7747310  23.4662770  29.2784250  16.6310030
  23.9037640  29.8213920  17.2867610  23.9510500  28.4531200  16.6406370
  20.6808570  32.0673280  24.0830290  21.0111580  31.1994340  23.8508930
  21.1099570  32.2731800  24.9135250  25.2770490  30.3982290  21.7432260
  24.9766030  30.2747260  22.6436170  25.1707980  29.5390880  21.3347990
  21.1698780  32.9343870  26.8211920  20.7329770  33.1144670  27.6536070
  21.7376460  33.6918490  26.6793640  36.8060960  32.4360870  31.1089230
  36.2062950  32.4953430  30.3653150  36.9354860  31.4965850  31.2386080
  38.0462410  30.1778690  16.4458940  37.2155370  30.2455340  16.9166170
  38.2234240  31.0682810  16.1425800  37.5018870  26.9226170  18.9493140
  38.2637780  27.4922820  19.0552830  37.5173240  26.3553370  19.7201450
  21.0023210  25.4464100  23.1800800  20.3472050  25.1775740  22.5360500
  21.8401160  25.3368580  22.7302780  38.5078840  27.7776270  23.7935070
  38.8787670  26.9943590  23.3871040  39.1480770  28.4665370  23.6152370
  35.4912600  29.1612850  29.2065390  34.6772440  29.5910010  29.4691180
  35.8986800  29.7731260  28.5934440  37.5538040  27.2160540  16.1065660
  37.8286880  28.1239420  15.9784880  37.3648780  27.1523070  17.0427650
  33.9513650  20.2405390  17.4019290  34.3698530  20.0536370  16.5615950
  33.6449710  19.3884440  17.7122220  37.4503380  25.1529530  21.0995090
  37.0746980  24.3857460  20.6676380  36.7206500  25.5352230  21.5870020
  22.0399140  25.8316670  27.7204140  22.4072180  25.7444070  28.6000160
  21.4709960  25.0683220  27.6211000  36.8403000  24.3001050  30.7334610
  36.6089090  24.0713800  29.8332560  37.1007550  25.2200600  30.6879500
  21.5915140  22.7425760  31.6262560  20.6971190  22.7092520  31.9656270
  22.1312690  22.9412550  32.3913810  35.2791070  19.5257480  33.5114310
  36.1561250  19.5340880  33.8948310  35.2911910  18.7888320  32.9006660
  20.2161290  22.6563030  19.1226130  19.3125370  22.9193230  18.9477790
  20.7001910  22.9274200  18.3426090  36.7254340  23.3787020  24.4002330
  37.2491820  22.8849670  23.7692500  37.3113760  23.5137380  25.1449900
  36.9044060  23.4626890  27.9221880  35.9546770  23.4290430  28.0366870
  37.0857070  24.3727000  27.6871650  22.7588500  21.7128570  17.0320510
  23.4680200  21.2911790  16.5467790  22.0428440  21.7803800  16.4003860
  22.4062660  17.7667900  16.0723160  23.1290790  18.3076840  16.3904380
  22.6787180  17.4931320  15.1964700  36.2154310  22.6360370  20.3394740
  36.7113430  22.4031240  21.1243620  36.0170380  21.7972210  19.9232380
  22.0954850  17.0174090  25.9745780  22.7431040  16.4671470  25.5340940
  22.5156690  17.2717240  26.7961590  37.6441470  21.2721320  22.8732420
  37.5340750  21.1177360  23.8114690  38.4049060  20.7442260  22.6307830
  35.9907190  17.2115450  29.3315420  36.6279410  17.8249590  29.6974610
  36.1382080  17.2476110  28.3864650  38.5331740  19.1029240  16.1138560
  39.4581050  18.9710420  15.9056850  38.5107530  19.1822060  17.0675010
  38.6070230  19.8739900  18.7395270  37.8121730  19.8085020  19.2688180
  38.8113510  20.8090540  18.7280620  35.5488650  33.9131450  22.7333660
  36.1447720  33.5916020  22.0568080  35.8066800  33.4403270  23.5246930
  21.8486850  17.1729760  28.7171100  21.5001670  17.6293580  29.4829280
  21.5174550  16.2786890  28.7993530  23.4551220  30.3449360  32.8824290
  23.4120850  29.9742270  33.7638750  23.5862230  31.2826930  33.0226110
  27.1557250  31.9008950  28.4834010  26.9148610  32.1683510  27.5964530
  28.0959890  32.0714680  28.5384870  29.3611670  18.3641640  32.2390520
  29.3000560  18.9563470  32.9885930  30.3012050  18.2567600  32.0940780
  31.9986230  18.0211700  31.8782810  32.6126640  18.3390990  31.2163890
  32.5435790  17.5360290  32.4978670  38.4161410  33.9203330  29.2844650
  37.9219690  34.3172200  28.5671780  37.8074700  33.2952540  29.6781930
  22.5207490  16.7005960  31.9921870  23.0690480  16.5194010  31.2287980
  22.5862800  15.9100070  32.5278180  23.2939250  33.2911610  30.0022070
  22.6999570  33.1596310  30.7412110  23.2863090  32.4549750  29.5364170
  32.7394270  16.5843840  28.2052100  31.8654110  16.9178950  28.0025030
  32.6305020  16.1117020  29.0303970  33.6466250  18.7914710  29.5893820
  33.3179610  17.9766470  29.2095550  34.5948550  18.7484520  29.4659510
  36.1000860  34.5626750  26.5631390  35.6403830  35.3142560  26.1889410
  35.4713320  33.8433220  26.5046190  22.9251480  30.6569990  28.9530110
  22.1985540  30.0375280  28.8856060  22.9860630  31.0510600  28.0828190
  26.5296580  32.8714990  25.7379520  27.0461600  32.2602350  25.2127780
  27.1793960  33.3743770  26.2290530  29.2692080  33.7623480  26.5648500
  29.5569890  33.5077780  25.6881510  29.7815300  33.2100840  27.1554070
  30.4869090  17.5013680  27.1445010  29.7040880  17.9759180  27.4241770
  30.1932020  16.5968510  27.0358190  35.0390160  18.2036780  25.1894100
  35.4798250  18.1481880  24.3415700  34.7697750  19.1194790  25.2604280
  36.9028730  17.8352020  23.2002920  36.8417130  16.8913240  23.0533940
  37.6820760  17.9432110  23.7456380  21.2081480  33.9744380  22.1626870
  21.0403520  33.3415060  22.8608760  20.3415990  34.1803780  21.8121060
  21.8309500  17.8061160  19.6658730  22.5888860  17.9190040  19.0922760
  21.3686670  18.6430360  19.6202160  28.3723310  19.9200430  22.6561040
  27.5597820  19.5457320  22.3156920  28.8764950  19.1645510  22.9582230
  32.8748290  16.5842880  23.8944110  33.4777660  17.1563090  24.3692630
  32.1341280  17.1482320  23.6718010  36.0182890  16.9864440  19.1684390
  36.2133520  17.8847890  19.4351820  35.2312760  16.7551520  19.6617340
  22.8144180  32.6677610  19.6077010  22.2891800  33.0485640  18.9038970
  22.7388760  33.2928380  20.3286720  24.2034650  18.3325210  18.2060700
  24.7327410  17.5455010  18.0768650  24.8362970  19.0116400  18.4396230
  26.3972490  18.0700350  21.2606090  25.7675230  17.3687660  21.4276220
  25.8577630  18.8304480  21.0439250  29.3364440  34.6839580  33.9316700
  30.2631750  34.4483850  33.9752660  29.3214870  35.5111580  33.4502730
  37.5709500  34.2265150  20.9290950  37.7461690  33.5402890  20.2851870
  36.8731070  34.7512200  20.5367620  26.5228050  17.3484330  33.6958580
  26.2412320  17.8517930  32.9319400  26.9047750  16.5506080  33.3300710
  25.4137150  34.6159990  18.4826260  26.1455970  34.3319270  17.9350150
  25.6730820  34.3773270  19.3725640  24.5751940  30.7324720  18.4872590
  23.9460820  31.2009820  19.0358420  24.6899770  29.8873940  18.9218780
  33.1243510  16.7637910  34.2739050  33.0108960  17.0832520  35.1690570
  33.9413250  17.1650420  33.9776330  35.9042000  33.9109440  33.7557740
  36.6967320  33.4158670  33.5483700  36.1975150  34.5899580  34.3633350
  32.0301660  24.7830380   4.6373790  31.9495710  23.8684990   4.3665500
  31.6166080  25.2797450   3.9313500  30.1619700  26.5609400   6.5183060
  29.3861800  26.0809840   6.8081630  30.8132630  25.8815050   6.3439220
  24.1785530  26.8729210   7.3958820  23.3470410  26.6177920   7.7955330
  24.7866510  26.9439980   8.1316740  34.1827130  30.9669590   5.2982190
  33.7208660  30.1956830   5.6269360  34.9952680  30.9935660   5.8034640
  24.1586790  30.9069300   7.5916840  24.4614830  30.0167040   7.4127060
  24.9030380  31.4639520   7.3639090  20.5510490  24.4336750   7.0640910
  21.1226600  23.6658950   7.0644550  20.5512030  24.7325510   6.1547520
  30.4090440  33.2527600   4.9186180  29.7901880  33.7085100   4.3480620
  31.2642220  33.4079060   4.5175880  29.6028690  29.2366590   6.5253220
  29.5336970  28.2956530   6.3642350  30.3648550  29.3268000   7.0975790
  21.7935360  19.8421110   8.8509840  21.6138200  18.9446860   9.1312600
  21.3915440  20.3892980   9.5256790  30.6333860  22.0436970   6.7522150
  31.0098680  21.1708850   6.6395820  30.5353370  22.3795670   5.8612590
  24.7638870  20.4162600   2.2139590  24.8705620  21.3166330   2.5208350
  23.8531230  20.3680570   1.9234240  34.4157980  19.5387410   3.6850490
  35.2367600  19.0483980   3.7275970  34.4492060  20.1285070   4.4382330
  22.4122030  22.3381610   7.4592180  23.0932140  22.6019980   8.0779580
  22.0970080  21.4982480   7.7930190  26.6046600  23.3848970   6.5464770
  27.1124820  23.8829940   7.1869790  27.1359840  22.6084170   6.3704130
  38.7057530  21.5554160  10.2494120  38.0009700  21.9435870   9.7309230
  38.9715450  22.2504450  10.8515050  24.8882700  18.0247530  10.8128190
  24.8901140  18.5419920  10.0074090  24.0587010  17.5477710  10.7898120
  31.2753790  28.1366840   2.3118090  30.6571060  28.6016290   1.7480810
  31.7877040  28.8294320   2.7287600  26.1385550  27.6642710   8.9901690
  25.8054930  28.2911630   9.6322760  26.3152230  28.1904590   8.2103360
  34.6519460  21.4787790   6.4578030  33.9475030  21.7672680   7.0381140
  35.0131620  22.2887900   6.0977590  24.5698030  19.7357490   8.8198640
  24.9114840  20.5799540   8.5252510  23.6313840  19.8841230   8.9363980
  25.3504650  29.6323510  10.8050870  25.9678650  30.3074590  10.5235320
  24.4897770  30.0411490  10.7138370  36.2682240  31.0962920   8.7205510
  35.5845760  31.7662030   8.7122180  36.8076530  31.2943570   7.9550370
  37.7206380  20.9242580   6.8487240  36.7731290  20.9581560   6.9802670
  38.0456370  21.7381530   7.2336600  28.2525920  17.2239760   5.1443230
  28.5600900  16.6686650   4.4278730  27.3226620  17.3584220   4.9616220
  33.8040980  32.9407050   7.4350690  33.8168140  32.5369340   6.5672950
  33.2516200  33.7154340   7.3312120  35.0986400  29.6623270   2.5240860
  34.9882730  28.7197600   2.6490280  35.0954650  30.0238910   3.4103620
  33.2026420  27.8436890   8.7633300  33.6195210  27.6297000   7.9286760
  33.9266240  28.1009680   9.3341920  30.6406680  25.2888590   1.8803350
  29.7135960  25.2225970   2.1091820  30.7931500  26.2268720   1.7658590
  37.1488520  26.2424110   8.8549540  36.3207150  26.3117200   8.3799670
  37.7439000  26.8278420   8.3865370  34.6703970  26.8508890   2.3838600
  34.0516390  26.5128440   1.7364900  34.6528420  26.2068650   3.0917790
  34.1130530  23.0293430   9.8004410  33.7001710  23.8547140  10.0544400
  33.3806480  22.4438470   9.6080770  26.2463320  25.8153330   4.6623080
  25.8420320  25.1030580   4.1668980  26.3326440  25.4706570   5.5511120
  26.7145020  29.5020890   6.8262290  26.4173310  28.8966360   6.1470070
  27.6644840  29.5398200   6.7151650  24.9591940  22.5896540   8.4422120
  25.5106530  22.6991880   7.6675370  25.4735450  22.9634140   9.1577350
  34.8030630  33.0752760  10.4885390  34.3261190  33.8824950  10.2958000
  34.1192420  32.4231090  10.6411600  25.8063450  29.2402580  13.4770090
  24.9091980  29.4642550  13.7243490  25.8316320  29.3637520  12.5281490
  24.6334670  26.1115900  12.0527460  24.4942440  26.9838700  12.4214860
  23.7516030  25.7688710  11.9075400  30.9564050  31.0291770   3.3592590
  31.3959960  31.7716100   2.9447980  30.8950940  31.2718340   4.2831550
  26.4315020  32.0537600  14.2612610  26.4030450  32.4580550  13.3941040
  26.2679990  31.1247960  14.0984210  38.3829840  32.8364700  15.5576780
  38.8589560  33.3147590  16.2365860  39.0037000  32.7682190  14.8322280
  20.5853320  27.8813450   7.9698370  20.6633740  28.0162220   7.0254090
  21.1995000  27.1729340   8.1626490  21.8300950  29.5813640   4.3804550
  21.4229030  29.7228230   3.5258150  22.7213960  29.2973800   4.1775760
  37.7863090  30.0277550  12.7176790  37.9126150  29.7889430  11.7993970
  37.8284470  29.1962090  13.1898870  31.6479830  33.7305550  11.2871600
  32.1624500  33.6413560  12.0894030  30.8048910  34.0765250  11.5799510
  26.1022610  33.7959420   2.4927220  25.9265090  32.8794960   2.2795020
  25.2478350  34.1546710   2.7325020  32.8910290  33.1511160   3.3502090
  33.3467240  32.3700540   3.6640710  33.2302810  33.8617980   3.8943270
  37.6387100  22.0810010  13.6826530  37.0231370  22.5889680  13.1541990
  37.3183520  21.1808340  13.6252470  20.6412840  28.9227620  10.5092830
  20.8043880  28.4532980   9.6912200  21.1065290  28.4151180  11.1741670
  25.4131610  18.0533380   5.5453400  24.9699760  18.8342920   5.2137920
  25.9716600  18.3763270   6.2524340  29.7001420  20.9201900  11.1488720
  29.2380790  21.1284920  11.9608660  29.2979530  20.1061250  10.8459390
  34.7005930  22.1410850  12.2785380  33.8499520  21.8416600  12.5994450
  34.5407720  22.3852860  11.3669200  31.7955640  23.6412600  14.3784170
  32.1209050  22.8076350  14.0386400  32.5835970  24.1641120  14.5262500
  27.4507510  18.5980710   7.4043000  27.7479840  19.5043540   7.3235020
  27.9993070  18.1099490   6.7902570  25.2045830  23.1766950   3.2734650
  24.9786750  22.9604120   4.1781270  24.4238360  23.6095410   2.9280620
  27.6445040  24.0752530  13.9394920  27.5488640  23.1347260  13.7895320
  28.4877020  24.2967600  13.5442990  31.0408460  21.8193860   3.9028580
  31.4338030  22.1366060   3.0897270  31.4025310  20.9405740   4.0173100
  22.7755580  20.4866200  12.0928700  22.3818970  21.3341410  12.3001480
  22.0873980  19.8492570  12.2837340  29.3500630  20.5701170  15.1625440
  28.6598950  20.3773370  15.7971530  30.0932930  20.8535810  15.6949740
  20.0772630  18.4094660   6.1258780  19.7885680  18.9797520   6.8383760
  20.8218390  17.9299110   6.4890010  31.6263600  24.4099610   7.9979360
  30.8944720  24.9186420   8.3469460  31.2287940  23.5929590   7.6968140
  28.0640990  21.0853810   6.4031850  28.0677050  20.6443760   5.5536390
  28.9592110  21.4071140   6.5103670  23.9143370  20.9680300   5.3626060
  23.5743420  21.4455530   6.1193110  23.1520690  20.5145420   5.0027160
  32.0889510  19.8633290   7.4102300  32.1062250  20.3141940   8.2544150
  31.8405090  18.9638930   7.6235740  35.5160260  17.2765470  13.2488680
  35.8406030  16.5455130  13.7746660  35.5516770  16.9579110  12.3469670
  22.2151820  28.2979050  12.6688640  21.8306610  27.6572720  13.2671600
  22.5264010  29.0015170  13.2383370  28.3648960  25.1455590   8.1497260
  28.7319090  24.6714160   8.8958600  28.1754020  26.0197160   8.4905600
  21.2289450  19.8899280   4.2790730  20.9436370  19.5254950   5.1169350
  21.1668310  19.1579740   3.6653870  26.1548330  24.1864230  10.4681470
  25.8505400  25.0656210  10.6931830  27.1094790  24.2464020  10.5038910
  35.4418100  27.3890580   6.8574710  36.1617220  27.8845870   6.4670820
  35.2399920  26.7108470   6.2128580  30.8236900  27.4599640  12.7443710
  30.7574210  26.5395310  12.4901300  30.1942040  27.5575080  13.4588350
  24.7267520  28.0605600   4.7027130  25.2446190  27.2573860   4.6484020
  24.2751540  27.9984740   5.5443960  22.2112060  25.0266970  11.6152830
  21.8527000  25.6920820  12.2026170  21.9166620  24.1950520  11.9865450
  25.4125180  25.4851210  14.4992380  25.1125320  25.6308390  13.6020200
  26.1836420  24.9256500  14.4065770  30.7553630  30.2820210  12.4947510
  30.7698170  29.3501170  12.2766420  30.0478730  30.3679970  13.1337280
  36.9664840  26.9227550  11.8416090  36.2413030  27.5156330  11.6445480
  37.4940300  26.9151090  11.0429460  32.4964430  28.6487720   5.3399940
  32.8488250  28.0515850   4.6801310  31.6126760  28.3231950   5.5108190
  28.5827710  29.4085410   2.7470350  29.2698840  29.9554620   3.1277940
  27.7960130  29.9526140   2.7819960  27.8854920  26.4131440   2.3595710
  28.3417700  27.2236690   2.5855900  27.5343130  26.0954580   3.1914200
  30.1887530  31.9237780   9.5888010  30.8329750  32.1297160  10.2661430
  30.5516970  31.1626180   9.1358860  23.7866700  16.7569090   2.8318230
  23.6581330  16.7486990   3.7803150  22.9628720  17.0952180   2.4809240
  31.4619610  29.9270130   8.3065460  32.1041840  29.2263290   8.4197630
  31.9868960  30.7068570   8.1262350  33.2357230  30.7265030  11.5101520
  33.5713470  31.3131720  12.1879440  32.3157570  30.5957740  11.7399310
  20.7860630  18.5160210  12.2924930  20.0719150  18.7157130  12.8977540
  21.2055670  17.7399780  12.6639730  21.0733220  32.5040470  13.2791460
  21.1824340  31.5635210  13.1386850  20.4213780  32.7695220  12.6305190
  29.0645810  30.7756360  14.6789580  28.7442680  30.0565600  15.2235270
  28.3904170  31.4511430  14.7525640  32.2799410  21.0082520  10.0426380
  32.6480230  20.1877730  10.3705950  31.4197610  21.0684410  10.4582030
  27.6145470  22.2425410   2.2671820  26.9061620  22.7111750   2.7085430
  27.8989950  21.5847420   2.9017010  29.2401400  23.6622110  10.2664350
  29.7386650  24.1367930  10.9316200  29.3824350  22.7385630  10.4734380
  31.6460900  18.9676070   3.7067610  31.5228680  18.9862200   2.7577120
  32.5945460  19.0155010   3.8266010  28.7337690  34.2031370   2.9795590
  28.9879190  34.1652760   2.0574960  27.7850170  34.0764700   2.9723840
  36.4468260  19.8790070  11.1092740  35.9441860  20.6195470  11.4486550
  37.2624920  20.2674070  10.7929530  34.7390270  25.1223250   4.5554100
  33.7980410  25.1373480   4.7301790  35.0534340  24.3359210   5.0014400
  36.7415850  32.2932100   6.2308360  36.8663270  33.1163270   6.7032170
  37.6081410  32.0822830   5.8832510  24.2133380  34.3863310   5.9025490
  24.9495860  33.8378770   6.1734060  24.5974300  35.2519320   5.7631480
  21.0978860  30.4536880   1.7767000  20.1718640  30.6958020   1.7672410
  21.5635290  31.2811140   1.6551750  23.2191660  33.5709380  15.0911070
  24.0204390  33.8921430  15.5046470  22.7043480  33.2104960  15.8130980
  32.0556290  29.6789250  15.0386480  31.4494450  29.7020850  14.2982230
  31.7510400  28.9472290  15.5753730  33.4856660  33.4069540  13.6495890
  34.4378410  33.3227560  13.5996130  33.3384880  34.0711250  14.3229680
  20.9389470  26.0582840  14.0347120  21.4428490  25.4790120  14.6063350
  20.1996890  26.3423070  14.5723490  27.9927410  27.4653830  13.5682640
  27.2273080  28.0338830  13.4837310  28.1743370  27.1730040  12.6750870
  35.1350760  29.1959160  14.1257660  35.8760230  29.5334920  13.6225120
  34.3723440  29.3651220  13.5727430  22.9712550  24.2012430  14.9297190
  23.0117890  23.9026300  15.8382420  23.8258050  24.6020040  14.7704710
  24.9118360  22.7804530  12.8971680  24.3814820  22.2895480  12.2695020
  25.5806430  23.2088730  12.3629610  33.8096420  27.2473990  12.6612870
  34.2237440  27.4019070  13.5103290  32.8747420  27.3729210  12.8238650
  34.2818590  24.5870150  14.6652020  34.8639360  23.8322470  14.5772500
  34.4580360  25.1177590  13.8883500  25.3990660  19.7466900  12.9768970
  25.3047530  19.1287650  12.2519840  24.8188050  20.4733190  12.7498880
  28.1652100  18.3040140  10.0096360  27.7169400  18.3264400   9.1641910
  27.5317300  17.9059160  10.6066660  28.5711650  27.1994470  10.6308800
  28.9899760  28.0427200  10.4585040  27.6520280  27.3366510  10.4015580
  30.9075550  24.9310650  12.0146640  31.0271760  24.3351790  12.7541480
  31.7669550  24.9680340  11.5947940  33.2463450  25.4847840  10.5909150
  32.7198670  26.0090460   9.9874290  33.5894790  26.1175230  11.2218880
  26.4219070  33.5047480  11.7466530  25.8840160  34.2293540  11.4275230
  26.6753030  33.0277820  10.9563870  27.6744320  21.4732000  13.2722460
  28.2644010  21.1647850  13.9600280  26.8564560  21.0011750  13.4282360
  32.4937750  21.0897810  13.5055480  31.8053270  20.4279350  13.4405470
  33.2143770  20.6436080  13.9503940  29.2781280  34.7398690  12.0053180
  29.2039980  35.6433830  12.3125550  28.3760120  34.4210590  11.9775250
  20.6808570  32.0673280   5.3086800  21.0111580  31.1994340   5.0765440
  21.1099570  32.2731800   6.1391760  25.2770490  30.3982290   2.9688770
  24.9766030  30.2747260   3.8692680  25.1707980  29.5390880   2.5604500
  21.1698780  32.9343870   8.0468430  20.7329770  33.1144670   8.8792580
  21.7376460  33.6918490   7.9050150  36.8060960  32.4360870  12.3345740
  36.2062950  32.4953430  11.5909660  36.9354860  31.4965850  12.4642590
  21.0023210  25.4464100   4.4057310  20.3472050  25.1775740   3.7617010
  21.8401160  25.3368580   3.9559290  38.5078840  27.7776270   5.0191580
  38.8787670  26.9943590   4.6127550  39.1480770  28.4665370   4.8408880
  35.4912600  29.1612850  10.4321900  34.6772440  29.5910010  10.6947690
  35.8986800  29.7731260   9.8190950  37.4503380  25.1529530   2.3251600
  37.0746980  24.3857460   1.8932890  36.7206500  25.5352230   2.8126530
  22.0399140  25.8316670   8.9460650  22.4072180  25.7444070   9.8256670
  21.4709960  25.0683220   8.8467510  36.8403000  24.3001050  11.9591120
  36.6089090  24.0713800  11.0589070  37.1007550  25.2200600  11.9136010
  21.5915140  22.7425760  12.8519070  20.6971190  22.7092520  13.1912780
  22.1312690  22.9412550  13.6170320  35.2791070  19.5257480  14.7370820
  36.1561250  19.5340880  15.1204820  35.2911910  18.7888320  14.1263170
  36.7254340  23.3787020   5.6258840  37.2491820  22.8849670   4.9949010
  37.3113760  23.5137380   6.3706410  36.9044060  23.4626890   9.1478390
  35.9546770  23.4290430   9.2623380  37.0857070  24.3727000   8.9128160
  22.0954850  17.0174090   7.2002290  22.7431040  16.4671470   6.7597450
  22.5156690  17.2717240   8.0218100  37.6441470  21.2721320   4.0988930
  37.5340750  21.1177360   5.0371200  38.4049060  20.7442260   3.8564340
  35.9907190  17.2115450  10.5571930  36.6279410  17.8249590  10.9231120
  36.1382080  17.2476110   9.6121160  35.5488650  33.9131450   3.9590170
  36.1447720  33.5916020   3.2824590  35.8066800  33.4403270   4.7503440
  21.8486850  17.1729760   9.9427610  21.5001670  17.6293580  10.7085790
  21.5174550  16.2786890  10.0250040  23.4551220  30.3449360  14.1080800
  23.4120850  29.9742270  14.9895260  23.5862230  31.2826930  14.2482620
  27.1557250  31.9008950   9.7090520  26.9148610  32.1683510   8.8221040
  28.0959890  32.0714680   9.7641380  29.3611670  18.3641640  13.4647030
  29.3000560  18.9563470  14.2142440  30.3012050  18.2567600  13.3197290
  31.9986230  18.0211700  13.1039320  32.6126640  18.3390990  12.4420400
  32.5435790  17.5360290  13.7235180  38.4161410  33.9203330  10.5101160
  37.9219690  34.3172200   9.7928290  37.8074700  33.2952540  10.9038440
  22.5207490  16.7005960  13.2178380  23.0690480  16.5194010  12.4544490
  22.5862800  15.9100070  13.7534690  23.2939250  33.2911610  11.2278580
  22.6999570  33.1596310  11.9668620  23.2863090  32.4549750  10.7620680
  32.7394270  16.5843840   9.4308610  31.8654110  16.9178950   9.2281540
  32.6305020  16.1117020  10.2560480  33.6466250  18.7914710  10.8150330
  33.3179610  17.9766470  10.4352060  34.5948550  18.7484520  10.6916020
  36.1000860  34.5626750   7.7887900  35.6403830  35.3142560   7.4145920
  35.4713320  33.8433220   7.7302700  22.9251480  30.6569990  10.1786620
  22.1985540  30.0375280  10.1112570  22.9860630  31.0510600   9.3084700
  26.5296580  32.8714990   6.9636030  27.0461600  32.2602350   6.4384290
  27.1793960  33.3743770   7.4547040  29.2692080  33.7623480   7.7905010
  29.5569890  33.5077780   6.9138020  29.7815300  33.2100840   8.3810580
  30.4869090  17.5013680   8.3701520  29.7040880  17.9759180   8.6498280
  30.1932020  16.5968510   8.2614700  35.0390160  18.2036780   6.4150610
  35.4798250  18.1481880   5.5672210  34.7697750  19.1194790   6.4860790
  36.9028730  17.8352020   4.4259430  36.8417130  16.8913240   4.2790450
  37.6820760  17.9432110   4.9712890  21.2081480  33.9744380   3.3883380
  21.0403520  33.3415060   4.0865270  20.3415990  34.1803780   3.0377570
  28.3723310  19.9200430   3.8817550  27.5597820  19.5457320   3.5413430
  28.8764950  19.1645510   4.1838740  32.8748290  16.5842880   5.1200620
  33.4777660  17.1563090   5.5949140  32.1341280  17.1482320   4.8974520
  26.3972490  18.0700350   2.4862600  25.7675230  17.3687660   2.6532730
  25.8577630  18.8304480   2.2695760  29.3364440  34.6839580  15.1573210
  30.2631750  34.4483850  15.2009170  29.3214870  35.5111580  14.6759240
  26.5228050  17.3484330  14.9215090  26.2412320  17.8517930  14.1575910
  26.9047750  16.5506080  14.5557220  33.1243510  16.7637910  15.4995560
  33.0108960  17.0832520  16.3947080  33.9413250  17.1650420  15.2032840
  35.9042000  33.9109440  14.9814250  36.6967320  33.4158670  14.7740210
  36.1975150  34.5899580  15.5889860  32.0301660   6.0086890  79.7347750
  31.9495710   5.0941500  79.4639460  31.6166080   6.5053960  79.0287460
  30.1619700   7.7865910  81.6157020  29.3861800   7.3066350  81.9055590
  30.8132630   7.1071560  81.4413180  24.1785530   8.0985720  82.4932780
  23.3470410   7.8434430  82.8929290  24.7866510   8.1696490  83.2290700
  34.1827130  12.1926100  80.3956150  33.7208660  11.4213340  80.7243320
  34.9952680  12.2192170  80.9008600  24.1586790  12.1325810  82.6890800
  24.4614830  11.2423550  82.5101020  24.9030380  12.6896030  82.4613050
  22.5877480   3.0587610  76.2775170  21.6994180   3.4003580  76.1755050
  22.8718670   2.8587930  75.3856000  20.5510490   5.6593260  82.1614870
  21.1226600   4.8915460  82.1618510  20.5512030   5.9582020  81.2521480
  30.4090440  14.4784110  80.0160140  29.7901880  14.9341610  79.4454580
  31.2642220  14.6335570  79.6149840  29.6028690  10.4623100  81.6227180
  29.5336970   9.5213040  81.4616310  30.3648550  10.5524510  82.1949750
  30.6333860   3.2693480  81.8496110  31.0098680   2.3965360  81.7369780
  30.5353370   3.6052180  80.9586550  22.4122030   3.5638120  82.5566140
  23.0932140   3.8276490  83.1753540  22.0970080   2.7238990  82.8904150
  26.6046600   4.6105480  81.6438730  27.1124820   5.1086450  82.2843750
  27.1359840   3.8340680  81.4678090  38.7057530   2.7810670  85.3468080
  38.0009700   3.1692380  84.8283190  38.9715450   3.4760960  85.9489010
  31.2753790   9.3623350  77.4092050  30.6571060   9.8272800  76.8454770
  31.7877040  10.0550830  77.8261560  26.1385550   8.8899220  84.0875650
  25.8054930   9.5168140  84.7296720  26.3152230   9.4161100  83.3077320
  34.6519460   2.7044300  81.5551990  33.9475030   2.9929190  82.1355100
  35.0131620   3.5144410  81.1951550  25.3504650  10.8580020  85.9024830
  25.9678650  11.5331100  85.6209280  24.4897770  11.2668000  85.8112330
  20.6436990  10.0479880  74.7831680  20.2664970  10.5366980  74.0516580
  20.9010060  10.7205160  75.4138210  36.2682240  12.3219430  83.8179470
  35.5845760  12.9918540  83.8096140  36.8076530  12.5200080  83.0524330
  37.7206380   2.1499090  81.9461200  36.7731290   2.1838070  82.0776630
  38.0456370   2.9638040  82.3310560  33.8040980  14.1663560  82.5324650
  33.8168140  13.7625850  81.6646910  33.2516200  14.9410850  82.4286080
  35.0986400  10.8879780  77.6214820  34.9882730   9.9454110  77.7464240
  35.0954650  11.2495420  78.5077580  33.2026420   9.0693400  83.8607260
  33.6195210   8.8553510  83.0260720  33.9266240   9.3266190  84.4315880
  30.6406680   6.5145100  76.9777310  29.7135960   6.4482480  77.2065780
  30.7931500   7.4525230  76.8632550  30.6275760   2.7862100  73.9744470
  29.6879430   2.9476060  74.0596930  30.9459020   3.5047780  73.4280460
  37.1488520   7.4680620  83.9523500  36.3207150   7.5373710  83.4773630
  37.7439000   8.0534930  83.4839330  34.6703970   8.0765400  77.4812560
  34.0516390   7.7384950  76.8338860  34.6528420   7.4325160  78.1891750
  34.1130530   4.2549940  84.8978370  33.7001710   5.0803650  85.1518360
  33.3806480   3.6694980  84.7054730  26.2463320   7.0409840  79.7597040
  25.8420320   6.3287090  79.2642940  26.3326440   6.6963080  80.6485080
  26.7145020  10.7277400  81.9236250  26.4173310  10.1222870  81.2444030
  27.6644840  10.7654710  81.8125610  24.9591940   3.8153050  83.5396080
  25.5106530   3.9248390  82.7649330  25.4735450   4.1890650  84.2551310
  34.8030630  14.3009270  85.5859350  34.3261190  15.1081460  85.3931960
  34.1192420  13.6487600  85.7385560  32.8468670   7.3152210  74.4885310
  33.2861950   6.4774640  74.3423130  33.5597090   7.9481610  74.5749450
  30.9564050  12.2548280  78.4566550  31.3959960  12.9972610  78.0421940
  30.8950940  12.4974850  79.3805510  22.9467950   5.9354820  77.2603690
  22.8265550   6.6616910  76.6484960  22.6368840   5.1657730  76.7831600
  20.5853320   9.1069960  83.0672330  20.6633740   9.2418730  82.1228050
  21.1995000   8.3985850  83.2600450  21.8300950  10.8070150  79.4778510
  21.4229030  10.9484740  78.6232110  22.7213960  10.5230310  79.2749720
  33.6234230  15.2417400  75.8129560  33.4635370  14.9520340  76.7111390
  33.4580940  14.4657530  75.2774790  26.1022610  15.0215930  77.5901180
  25.9265090  14.1051470  77.3768980  25.2478350  15.3803220  77.8298980
  33.3260360  12.7504960  74.3727560  32.6325520  12.7482250  73.7129840
  34.0683220  12.3264280  73.9421730  32.8910290  14.3767670  78.4476050
  33.3467240  13.5957050  78.7614670  33.2302810  15.0874490  78.9917230
  25.2045830   4.4023460  78.3708610  24.9786750   4.1860630  79.2755230
  24.4238360   4.8351920  78.0254580  32.4343590   4.4086830  76.9699260
  31.8352480   5.1322630  76.7862880  32.9823200   4.3463610  76.1875710
  31.0408460   3.0450370  79.0002540  31.4338030   3.3622570  78.1871230
  31.4025310   2.1662250  79.1147060  20.2642860   3.5771290  72.4335460
  20.1817530   4.5202050  72.5750450  19.9125920   3.4346200  71.5547810
  31.6263600   5.6356120  83.0953320  30.8944720   6.1442930  83.4443420
  31.2287940   4.8186100  82.7942100  28.0640990   2.3110320  81.5005810
  28.0677050   1.8700270  80.6510350  28.9592110   2.6327650  81.6077630
  23.9143370   2.1936810  80.4600020  23.5743420   2.6712040  81.2167070
  23.1520690   1.7401930  80.1001120  28.1261140   3.3122400  74.4912570
  28.2473960   3.2708880  75.4398390  27.7409650   4.1746550  74.3359300
  27.1382640   5.6223540  73.8895870  26.5699540   5.1741790  73.2631780
  27.8471640   5.9816320  73.3561020  28.3648960   6.3712100  83.2471220
  28.7319090   5.8970670  83.9932560  28.1754020   7.2453670  83.5879560
  26.1548330   5.4120740  85.5655430  25.8505400   6.2912720  85.7905790
  27.1094790   5.4720530  85.6012870  24.6830120   9.6181730  76.1622280
  23.9092380   9.0779350  76.0021000  25.4124750   9.0988340  75.8240040
  35.4418100   8.6147090  81.9548670  36.1617220   9.1102380  81.5644780
  35.2399920   7.9364980  81.3102540  33.6176430   4.3804700  74.3940220
  34.5056050   4.6921930  74.2191560  33.5881520   3.5076950  74.0020800
  24.7267520   9.2862110  79.8001090  25.2446190   8.4830370  79.7457980
  24.2751540   9.2241250  80.6417920  29.6137020  10.5528390  75.0728390
  29.9552720  11.2970620  74.5771710  28.7849730  10.8659510  75.4353220
  35.8890700   5.6916540  73.8620080  35.8054420   6.1230760  73.0116520
  36.6084890   6.1514890  74.2946900  36.9177950  12.5458800  76.5902210
  36.2754110  11.8914420  76.8645930  36.5308610  12.9513890  75.8142880
  32.4964430   9.8744230  80.4373900  32.8488250   9.2772360  79.7775270
  31.6126760   9.5488460  80.6082150  28.5827710  10.6341920  77.8444310
  29.2698840  11.1811130  78.2251900  27.7960130  11.1782650  77.8793920
  20.7220110   6.2514740  73.3361390  21.5914960   6.5339540  73.6197310
  20.2310430   7.0650610  73.2210200  27.8854920   7.6387950  77.4569670
  28.3417700   8.4493200  77.6829860  27.5343130   7.3211090  78.2888160
  30.1887530  13.1494290  84.6861970  30.8329750  13.3553670  85.3635390
  30.5516970  12.3882690  84.2332820  31.4619610  11.1526640  83.4039420
  32.1041840  10.4519800  83.5171590  31.9868960  11.9325080  83.2236310
  35.3075330  11.4375260  73.1278560  35.0812910  10.7205700  73.7203200
  34.9171530  11.1887700  72.2900310  21.0891360  15.4642120  73.9023020
  21.4489000  16.0631460  73.2480290  20.9483700  16.0102010  74.6758050
  34.8891580   9.3547200  74.7892720  34.6013280   9.8159890  75.5770600
  35.6843750   8.8944970  75.0576940  27.1059980  12.8473320  74.7196690
  27.0970080  13.5803010  74.1041200  26.1858340  12.6004900  74.8123650
  22.7066620   8.0688210  75.4643450  22.0994570   8.8087110  75.4738750
  23.1815970   8.1587570  74.6381650  30.0919580  12.9101560  73.3821880
  30.1931560  12.7065550  72.4523860  29.1921320  12.6559840  73.5869660
  27.6145470   3.4681920  77.3645780  26.9061620   3.9368260  77.8059390
  27.8989950   2.8103930  77.9990970  28.7337690  15.4287880  78.0769550
  28.9879190  15.3909270  77.1548920  27.7850170  15.3021210  78.0697800
  25.8180490   1.7767000  74.7396490  26.6671020   2.2137150  74.6736680
  25.4511760   2.0887260  75.5668550  34.7390270   6.3479760  79.6528060
  33.7980410   6.3629990  79.8275750  35.0534340   5.5615720  80.0988360
  24.7171910   8.0299360  73.2132020  25.4835180   7.9180720  73.7757450
  24.7946600   7.3337330  72.5608790  23.4118670   5.4624430  73.8964910
  23.4922260   4.5151940  74.0082310  24.3038420   5.7931310  74.0025570
  36.7415850  13.5188610  81.3282320  36.8663270  14.3419780  81.8006130
  37.6081410  13.3079340  80.9806470  24.2133380  15.6119820  80.9999450
  24.9495860  15.0635280  81.2708020  24.5974300  16.4775830  80.8605440
  21.0978860  11.6793390  76.8740960  20.1718640  11.9214530  76.8646370
  21.5635290  12.5067650  76.7525710  27.3235690  14.7850130  72.8225020
  28.1164300  15.0738960  72.3706810  26.8040040  14.3542300  72.1437500
  36.3765860  14.0120260  74.2461760  36.0907370  13.5985400  73.4315940
  36.1785410  14.9407970  74.1262280  27.8413090  10.0053540  72.6867370
  27.7363730   9.3905890  73.4128750  27.6737310   9.4819430  71.9030380
  31.0815820   9.0673570  73.2909360  30.5325920   9.5142870  73.9352100
  31.7035080   8.5622820  73.8147030  26.7490940   8.0264490  75.1874660
  27.1707360   7.8604360  76.0306050  26.8741780   7.2164720  74.6929800
  29.2618580   7.0502100  72.4351760  29.7824240   6.3351120  72.0692910
  29.9086980   7.6887970  72.7352270  28.5711650   8.4250980  85.7282760
  28.9899760   9.2683710  85.5559000  27.6520280   8.5623020  85.4989540
  25.6449840   4.0997720  72.1332820  25.4438900   3.2365080  72.4946160
  25.4741890   4.0131080  71.1954420  29.8266610  15.1313710  74.7253500
  30.7217400  15.4698680  74.7472260  29.8584240  14.4093120  74.0977780
  23.4662770  10.5040760  72.9540500  23.9037640  11.0470430  73.6098080
  23.9510500   9.6787710  72.9636840  20.6808570  13.2929790  80.4060760
  21.0111580  12.4250850  80.1739400  21.1099570  13.4988310  81.2365720
  25.2770490  11.6238800  78.0662730  24.9766030  11.5003770  78.9666640
  25.1707980  10.7647390  77.6578460  21.1698780  14.1600380  83.1442390
  20.7329770  14.3401180  83.9766540  21.7376460  14.9175000  83.0024110
  38.0462410  11.4035200  72.7689410  37.2155370  11.4711850  73.2396640
  38.2234240  12.2939320  72.4656270  37.5018870   8.1482680  75.2723610
  38.2637780   8.7179330  75.3783300  37.5173240   7.5809880  76.0431920
  21.0023210   6.6720610  79.5031270  20.3472050   6.4032250  78.8590970
  21.8401160   6.5625090  79.0533250  38.5078840   9.0032780  80.1165540
  38.8787670   8.2200100  79.7101510  39.1480770   9.6921880  79.9382840
  35.4912600  10.3869360  85.5295860  34.6772440  10.8166520  85.7921650
  35.8986800  10.9987770  84.9164910  37.5538040   8.4417050  72.4296130
  37.8286880   9.3495930  72.3015350  37.3648780   8.3779580  73.3658120
  37.4503380   6.3786040  77.4225560  37.0746980   5.6113970  76.9906850
  36.7206500   6.7608740  77.9100490  22.0399140   7.0573180  84.0434610
  22.4072180   6.9700580  84.9230630  21.4709960   6.2939730  83.9441470
  20.2161290   3.8819540  75.4456600  19.3125370   4.1449740  75.2708260
  20.7001910   4.1530710  74.6656560  36.7254340   4.6043530  80.7232800
  37.2491820   4.1106180  80.0922970  37.3113760   4.7393890  81.4680370
  36.9044060   4.6883400  84.2452350  35.9546770   4.6546940  84.3597340
  37.0857070   5.5983510  84.0102120  22.7588500   2.9385080  73.3550980
  23.4680200   2.5168300  72.8698260  22.0428440   3.0060310  72.7234330
  36.2154310   3.8616880  76.6625210  36.7113430   3.6287750  77.4474090
  36.0170380   3.0228720  76.2462850  37.6441470   2.4977830  79.1962890
  37.5340750   2.3433870  80.1345160  38.4049060   1.9698770  78.9538300
  35.5488650  15.1387960  79.0564130  36.1447720  14.8172530  78.3798550
  35.8066800  14.6659780  79.8477400  27.1557250  13.1265460  84.8064480
  26.9148610  13.3940020  83.9195000  28.0959890  13.2971190  84.8615340
  36.1000860  15.7883260  82.8861860  35.6403830  16.5399070  82.5119880
  35.4713320  15.0689730  82.8276660  22.9251480  11.8826500  85.2760580
  22.1985540  11.2631790  85.2086530  22.9860630  12.2767110  84.4058660
  26.5296580  14.0971500  82.0609990  27.0461600  13.4858860  81.5358250
  27.1793960  14.6000280  82.5521000  29.2692080  14.9879990  82.8878970
  29.5569890  14.7334290  82.0111980  29.7815300  14.4357350  83.4784540
  21.2081480  15.2000890  78.4857340  21.0403520  14.5671570  79.1839230
  20.3415990  15.4060290  78.1351530  22.8144180  13.8934120  75.9307480
  22.2891800  14.2742150  75.2269440  22.7388760  14.5184890  76.6517190
  37.5709500  15.4521660  77.2521420  37.7461690  14.7659400  76.6082340
  36.8731070  15.9768710  76.8598090  25.4137150  15.8416500  74.8056730
  26.1455970  15.5575780  74.2580620  25.6730820  15.6029780  75.6956110
  24.5751940  11.9581230  74.8103060  23.9460820  12.4266330  75.3588890
  24.6899770  11.1130450  75.2449250  32.0301660   6.0086890  60.9604260
  31.9495710   5.0941500  60.6895970  31.6166080   6.5053960  60.2543970
  30.1619700   7.7865910  62.8413530  29.3861800   7.3066350  63.1312100
  30.8132630   7.1071560  62.6669690  24.1785530   8.0985720  63.7189290
  23.3470410   7.8434430  64.1185800  24.7866510   8.1696490  64.4547210
  34.1827130  12.1926100  61.6212660  33.7208660  11.4213340  61.9499830
  34.9952680  12.2192170  62.1265110  24.1586790  12.1325810  63.9147310
  24.4614830  11.2423550  63.7357530  24.9030380  12.6896030  63.6869560
  22.5877480   3.0587610  57.5031680  21.6994180   3.4003580  57.4011560
  22.8718670   2.8587930  56.6112510  20.5510490   5.6593260  63.3871380
  21.1226600   4.8915460  63.3875020  20.5512030   5.9582020  62.4777990
  30.4090440  14.4784110  61.2416650  29.7901880  14.9341610  60.6711090
  31.2642220  14.6335570  60.8406350  29.6028690  10.4623100  62.8483690
  29.5336970   9.5213040  62.6872820  30.3648550  10.5524510  63.4206260
  30.6333860   3.2693480  63.0752620  31.0098680   2.3965360  62.9626290
  30.5353370   3.6052180  62.1843060  22.4122030   3.5638120  63.7822650
  23.0932140   3.8276490  64.4010050  22.0970080   2.7238990  64.1160660
  26.6046600   4.6105480  62.8695240  27.1124820   5.1086450  63.5100260
  27.1359840   3.8340680  62.6934600  38.7057530   2.7810670  66.5724590
  38.0009700   3.1692380  66.0539700  38.9715450   3.4760960  67.1745520
  31.2753790   9.3623350  58.6348560  30.6571060   9.8272800  58.0711280
  31.7877040  10.0550830  59.0518070  26.1385550   8.8899220  65.3132160
  25.8054930   9.5168140  65.9553230  26.3152230   9.4161100  64.5333830
  34.6519460   2.7044300  62.7808500  33.9475030   2.9929190  63.3611610
  35.0131620   3.5144410  62.4208060  25.3504650  10.8580020  67.1281340
  25.9678650  11.5331100  66.8465790  24.4897770  11.2668000  67.0368840
  20.6436990  10.0479880  56.0088190  20.2664970  10.5366980  55.2773090
  20.9010060  10.7205160  56.6394720  36.2682240  12.3219430  65.0435980
  35.5845760  12.9918540  65.0352650  36.8076530  12.5200080  64.2780840
  37.7206380   2.1499090  63.1717710  36.7731290   2.1838070  63.3033140
  38.0456370   2.9638040  63.5567070  33.8040980  14.1663560  63.7581160
  33.8168140  13.7625850  62.8903420  33.2516200  14.9410850  63.6542590
  35.0986400  10.8879780  58.8471330  34.9882730   9.9454110  58.9720750
  35.0954650  11.2495420  59.7334090  33.2026420   9.0693400  65.0863770
  33.6195210   8.8553510  64.2517230  33.9266240   9.3266190  65.6572390
  30.6406680   6.5145100  58.2033820  29.7135960   6.4482480  58.4322290
  30.7931500   7.4525230  58.0889060  30.6275760   2.7862100  55.2000980
  29.6879430   2.9476060  55.2853440  30.9459020   3.5047780  54.6536970
  37.1488520   7.4680620  65.1780010  36.3207150   7.5373710  64.7030140
  37.7439000   8.0534930  64.7095840  34.6703970   8.0765400  58.7069070
  34.0516390   7.7384950  58.0595370  34.6528420   7.4325160  59.4148260
  34.1130530   4.2549940  66.1234880  33.7001710   5.0803650  66.3774870
  33.3806480   3.6694980  65.9311240  26.2463320   7.0409840  60.9853550
  25.8420320   6.3287090  60.4899450  26.3326440   6.6963080  61.8741590
  26.7145020  10.7277400  63.1492760  26.4173310  10.1222870  62.4700540
  27.6644840  10.7654710  63.0382120  24.9591940   3.8153050  64.7652590
  25.5106530   3.9248390  63.9905840  25.4735450   4.1890650  65.4807820
  34.8030630  14.3009270  66.8115860  34.3261190  15.1081460  66.6188470
  34.1192420  13.6487600  66.9642070  25.8063450  10.4659090  69.8000560
  24.9091980  10.6899060  70.0473960  25.8316320  10.5894030  68.8511960
  32.8468670   7.3152210  55.7141820  33.2861950   6.4774640  55.5679640
  33.5597090   7.9481610  55.8005960  24.6334670   7.3372410  68.3757930
  24.4942440   8.2095210  68.7445330  23.7516030   6.9945220  68.2305870
  30.9564050  12.2548280  59.6823060  31.3959960  12.9972610  59.2678450
  30.8950940  12.4974850  60.6062020  26.4315020  13.2794110  70.5843080
  26.4030450  13.6837060  69.7171510  26.2679990  12.3504470  70.4214680
  22.9467950   5.9354820  58.4860200  22.8265550   6.6616910  57.8741470
  22.6368840   5.1657730  58.0088110  38.3829840  14.0621210  71.8807250
  38.8589560  14.5404100  72.5596330  39.0037000  13.9938700  71.1552750
  20.5853320   9.1069960  64.2928840  20.6633740   9.2418730  63.3484560
  21.1995000   8.3985850  64.4856960  21.8300950  10.8070150  60.7035020
  21.4229030  10.9484740  59.8488620  22.7213960  10.5230310  60.5006230
  37.7863090  11.2534060  69.0407260  37.9126150  11.0145940  68.1224440
  37.8284470  10.4218600  69.5129340  31.6479830  14.9562060  67.6102070
  32.1624500  14.8670070  68.4124500  30.8048910  15.3021760  67.9029980
  33.6234230  15.2417400  57.0386070  33.4635370  14.9520340  57.9367900
  33.4580940  14.4657530  56.5031300  26.1022610  15.0215930  58.8157690
  25.9265090  14.1051470  58.6025490  25.2478350  15.3803220  59.0555490
  33.3260360  12.7504960  55.5984070  32.6325520  12.7482250  54.9386350
  34.0683220  12.3264280  55.1678240  32.8910290  14.3767670  59.6732560
  33.3467240  13.5957050  59.9871180  33.2302810  15.0874490  60.2173740
  37.6387100   3.3066520  70.0057000  37.0231370   3.8146190  69.4772460
  37.3183520   2.4064850  69.9482940  20.6412840  10.1484130  66.8323300
  20.8043880   9.6789490  66.0142670  21.1065290   9.6407690  67.4972140
  34.7005930   3.3667360  68.6015850  33.8499520   3.0673110  68.9224920
  34.5407720   3.6109370  67.6899670  31.7955640   4.8669110  70.7014640
  32.1209050   4.0332860  70.3616870  32.5835970   5.3897630  70.8492970
  25.2045830   4.4023460  59.5965120  24.9786750   4.1860630  60.5011740
  24.4238360   4.8351920  59.2511090  32.4343590   4.4086830  58.1955770
  31.8352480   5.1322630  58.0119390  32.9823200   4.3463610  57.4132220
  27.6445040   5.3009040  70.2625390  27.5488640   4.3603770  70.1125790
  28.4877020   5.5224110  69.8673460  31.0408460   3.0450370  60.2259050
  31.4338030   3.3622570  59.4127740  31.4025310   2.1662250  60.3403570
  20.2642860   3.5771290  53.6591970  20.1817530   4.5202050  53.8006960
  19.9125920   3.4346200  52.7804320  31.6263600   5.6356120  64.3209830
  30.8944720   6.1442930  64.6699930  31.2287940   4.8186100  64.0198610
  28.0640990   2.3110320  62.7262320  28.0677050   1.8700270  61.8766860
  28.9592110   2.6327650  62.8334140  23.9143370   2.1936810  61.6856530
  23.5743420   2.6712040  62.4423580  23.1520690   1.7401930  61.3257630
  28.1261140   3.3122400  55.7169080  28.2473960   3.2708880  56.6654900
  27.7409650   4.1746550  55.5615810  27.1382640   5.6223540  55.1152380
  26.5699540   5.1741790  54.4888290  27.8471640   5.9816320  54.5817530
  22.2151820   9.5235560  68.9919110  21.8306610   8.8829230  69.5902070
  22.5264010  10.2271680  69.5613840  28.3648960   6.3712100  64.4727730
  28.7319090   5.8970670  65.2189070  28.1754020   7.2453670  64.8136070
  26.1548330   5.4120740  66.7911940  25.8505400   6.2912720  67.0162300
  27.1094790   5.4720530  66.8269380  24.6830120   9.6181730  57.3878790
  23.9092380   9.0779350  57.2277510  25.4124750   9.0988340  57.0496550
  35.4418100   8.6147090  63.1805180  36.1617220   9.1102380  62.7901290
  35.2399920   7.9364980  62.5359050  30.8236900   8.6856150  69.0674180
  30.7574210   7.7651820  68.8131770  30.1942040   8.7831590  69.7818820
  33.6176430   4.3804700  55.6196730  34.5056050   4.6921930  55.4448070
  33.5881520   3.5076950  55.2277310  24.7267520   9.2862110  61.0257600
  25.2446190   8.4830370  60.9714490  24.2751540   9.2241250  61.8674430
  29.6137020  10.5528390  56.2984900  29.9552720  11.2970620  55.8028220
  28.7849730  10.8659510  56.6609730  22.2112060   6.2523480  67.9383300
  21.8527000   6.9177330  68.5256640  21.9166620   5.4207030  68.3095920
  25.4125180   6.7107720  70.8222850  25.1125320   6.8564900  69.9250670
  26.1836420   6.1513010  70.7296240  30.7553630  11.5076720  68.8177980
  30.7698170  10.5757680  68.5996890  30.0478730  11.5936480  69.4567750
  35.8890700   5.6916540  55.0876590  35.8054420   6.1230760  54.2373030
  36.6084890   6.1514890  55.5203410  36.9664840   8.1484060  68.1646560
  36.2413030   8.7412840  67.9675950  37.4940300   8.1407600  67.3659930
  36.9177950  12.5458800  57.8158720  36.2754110  11.8914420  58.0902440
  36.5308610  12.9513890  57.0399390  32.4964430   9.8744230  61.6630410
  32.8488250   9.2772360  61.0031780  31.6126760   9.5488460  61.8338660
  28.5827710  10.6341920  59.0700820  29.2698840  11.1811130  59.4508410
  27.7960130  11.1782650  59.1050430  20.7220110   6.2514740  54.5617900
  21.5914960   6.5339540  54.8453820  20.2310430   7.0650610  54.4466710
  27.8854920   7.6387950  58.6826180  28.3417700   8.4493200  58.9086370
  27.5343130   7.3211090  59.5144670  30.1887530  13.1494290  65.9118480
  30.8329750  13.3553670  66.5891900  30.5516970  12.3882690  65.4589330
  31.4619610  11.1526640  64.6295930  32.1041840  10.4519800  64.7428100
  31.9868960  11.9325080  64.4492820  35.3075330  11.4375260  54.3535070
  35.0812910  10.7205700  54.9459710  34.9171530  11.1887700  53.5156820
  33.2357230  11.9521540  67.8331990  33.5713470  12.5388230  68.5109910
  32.3157570  11.8214250  68.0629780  21.0891360  15.4642120  55.1279530
  21.4489000  16.0631460  54.4736800  20.9483700  16.0102010  55.9014560
  34.8891580   9.3547200  56.0149230  34.6013280   9.8159890  56.8027110
  35.6843750   8.8944970  56.2833450  21.0733220  13.7296980  69.6021930
  21.1824340  12.7891720  69.4617320  20.4213780  13.9951730  68.9535660
  29.0645810  12.0012870  71.0020050  28.7442680  11.2822110  71.5465740
  28.3904170  12.6767940  71.0756110  27.1059980  12.8473320  55.9453200
  27.0970080  13.5803010  55.3297710  26.1858340  12.6004900  56.0380160
  22.7066620   8.0688210  56.6899960  22.0994570   8.8087110  56.6995260
  23.1815970   8.1587570  55.8638160  30.0919580  12.9101560  54.6078390
  30.1931560  12.7065550  53.6780370  29.1921320  12.6559840  54.8126170
  27.6145470   3.4681920  58.5902290  26.9061620   3.9368260  59.0315900
  27.8989950   2.8103930  59.2247480  29.2401400   4.8878620  66.5894820
  29.7386650   5.3624440  67.2546670  29.3824350   3.9642140  66.7964850
  28.7337690  15.4287880  59.3026060  28.9879190  15.3909270  58.3805430
  27.7850170  15.3021210  59.2954310  25.8180490   1.7767000  55.9653000
  26.6671020   2.2137150  55.8993190  25.4511760   2.0887260  56.7925060
  34.7390270   6.3479760  60.8784570  33.7980410   6.3629990  61.0532260
  35.0534340   5.5615720  61.3244870  24.7171910   8.0299360  54.4388530
  25.4835180   7.9180720  55.0013960  24.7946600   7.3337330  53.7865300
  23.4118670   5.4624430  55.1221420  23.4922260   4.5151940  55.2338820
  24.3038420   5.7931310  55.2282080  36.7415850  13.5188610  62.5538830
  36.8663270  14.3419780  63.0262640  37.6081410  13.3079340  62.2062980
  24.2133380  15.6119820  62.2255960  24.9495860  15.0635280  62.4964530
  24.5974300  16.4775830  62.0861950  21.0978860  11.6793390  58.0997470
  20.1718640  11.9214530  58.0902880  21.5635290  12.5067650  57.9782220
  23.2191660  14.7965890  71.4141540  24.0204390  15.1177940  71.8276940
  22.7043480  14.4361470  72.1361450  27.3235690  14.7850130  54.0481530
  28.1164300  15.0738960  53.5963320  26.8040040  14.3542300  53.3694010
  32.0556290  10.9045760  71.3616950  31.4494450  10.9277360  70.6212700
  31.7510400  10.1728800  71.8984200  33.4856660  14.6326050  69.9726360
  34.4378410  14.5484070  69.9226600  33.3384880  15.2967760  70.6460150
  36.3765860  14.0120260  55.4718270  36.0907370  13.5985400  54.6572450
  36.1785410  14.9407970  55.3518790  20.9389470   7.2839350  70.3577590
  21.4428490   6.7046630  70.9293820  20.1996890   7.5679580  70.8953960
  27.8413090  10.0053540  53.9123880  27.7363730   9.3905890  54.6385260
  27.6737310   9.4819430  53.1286890  27.9927410   8.6910340  69.8913110
  27.2273080   9.2595340  69.8067780  28.1743370   8.3986550  68.9981340
  31.0815820   9.0673570  54.5165870  30.5325920   9.5142870  55.1608610
  31.7035080   8.5622820  55.0403540  35.1350760  10.4215670  70.4488130
  35.8760230  10.7591430  69.9455590  34.3723440  10.5907730  69.8957900
  22.9712550   5.4268940  71.2527660  23.0117890   5.1282810  72.1612890
  23.8258050   5.8276550  71.0935180  26.7490940   8.0264490  56.4131170
  27.1707360   7.8604360  57.2562560  26.8741780   7.2164720  55.9186310
  24.9118360   4.0061040  69.2202150  24.3814820   3.5151990  68.5925490
  25.5806430   4.4345240  68.6860080  29.2618580   7.0502100  53.6608270
  29.7824240   6.3351120  53.2949420  29.9086980   7.6887970  53.9608780
  33.8096420   8.4730500  68.9843340  34.2237440   8.6275580  69.8333760
  32.8747420   8.5985720  69.1469120  34.2818590   5.8126660  70.9882490
  34.8639360   5.0578980  70.9002970  34.4580360   6.3434100  70.2113970
  28.5711650   8.4250980  66.9539270  28.9899760   9.2683710  66.7815510
  27.6520280   8.5623020  66.7246050  30.9075550   6.1567160  68.3377110
  31.0271760   5.5608300  69.0771950  31.7669550   6.1936850  67.9178410
  33.2463450   6.7104350  66.9139620  32.7198670   7.2346970  66.3104760
  33.5894790   7.3431740  67.5449350  25.6449840   4.0997720  53.3589330
  25.4438900   3.2365080  53.7202670  25.4741890   4.0131080  52.4210930
  26.4219070  14.7303990  68.0697000  25.8840160  15.4550050  67.7505700
  26.6753030  14.2534330  67.2794340  27.6744320   2.6988510  69.5952930
  28.2644010   2.3904360  70.2830750  26.8564560   2.2268260  69.7512830
  32.4937750   2.3154320  69.8285950  31.8053270   1.6535860  69.7635940
  33.2143770   1.8692590  70.2734410  29.2781280  15.9655200  68.3283650
  29.2039980  16.8690340  68.6356020  28.3760120  15.6467100  68.3005720
  29.8266610  15.1313710  55.9510010  30.7217400  15.4698680  55.9728770
  29.8584240  14.4093120  55.3234290  23.4662770  10.5040760  54.1797010
  23.9037640  11.0470430  54.8354590  23.9510500   9.6787710  54.1893350
  20.6808570  13.2929790  61.6317270  21.0111580  12.4250850  61.3995910
  21.1099570  13.4988310  62.4622230  25.2770490  11.6238800  59.2919240
  24.9766030  11.5003770  60.1923150  25.1707980  10.7647390  58.8834970
  21.1698780  14.1600380  64.3698900  20.7329770  14.3401180  65.2023050
  21.7376460  14.9175000  64.2280620  36.8060960  13.6617380  68.6576210
  36.2062950  13.7209940  67.9140130  36.9354860  12.7222360  68.7873060
  38.0462410  11.4035200  53.9945920  37.2155370  11.4711850  54.4653150
  38.2234240  12.2939320  53.6912780  37.5018870   8.1482680  56.4980120
  38.2637780   8.7179330  56.6039810  37.5173240   7.5809880  57.2688430
  21.0023210   6.6720610  60.7287780  20.3472050   6.4032250  60.0847480
  21.8401160   6.5625090  60.2789760  38.5078840   9.0032780  61.3422050
  38.8787670   8.2200100  60.9358020  39.1480770   9.6921880  61.1639350
  35.4912600  10.3869360  66.7552370  34.6772440  10.8166520  67.0178160
  35.8986800  10.9987770  66.1421420  37.5538040   8.4417050  53.6552640
  37.8286880   9.3495930  53.5271860  37.3648780   8.3779580  54.5914630
  37.4503380   6.3786040  58.6482070  37.0746980   5.6113970  58.2163360
  36.7206500   6.7608740  59.1357000  22.0399140   7.0573180  65.2691120
  22.4072180   6.9700580  66.1487140  21.4709960   6.2939730  65.1697980
  36.8403000   5.5257560  68.2821590  36.6089090   5.2970310  67.3819540
  37.1007550   6.4457110  68.2366480  21.5915140   3.9682270  69.1749540
  20.6971190   3.9349030  69.5143250  22.1312690   4.1669060  69.9400790
  20.2161290   3.8819540  56.6713110  19.3125370   4.1449740  56.4964770
  20.7001910   4.1530710  55.8913070  36.7254340   4.6043530  61.9489310
  37.2491820   4.1106180  61.3179480  37.3113760   4.7393890  62.6936880
  36.9044060   4.6883400  65.4708860  35.9546770   4.6546940  65.5853850
  37.0857070   5.5983510  65.2358630  22.7588500   2.9385080  54.5807490
  23.4680200   2.5168300  54.0954770  22.0428440   3.0060310  53.9490840
  36.2154310   3.8616880  57.8881720  36.7113430   3.6287750  58.6730600
  36.0170380   3.0228720  57.4719360  37.6441470   2.4977830  60.4219400
  37.5340750   2.3433870  61.3601670  38.4049060   1.9698770  60.1794810
  35.5488650  15.1387960  60.2820640  36.1447720  14.8172530  59.6055060
  35.8066800  14.6659780  61.0733910  23.4551220  11.5705870  70.4311270
  23.4120850  11.1998780  71.3125730  23.5862230  12.5083440  70.5713090
  27.1557250  13.1265460  66.0320990  26.9148610  13.3940020  65.1451510
  28.0959890  13.2971190  66.0871850  38.4161410  15.1459840  66.8331630
  37.9219690  15.5428710  66.1158760  37.8074700  14.5209050  67.2268910
  23.2939250  14.5168120  67.5509050  22.6999570  14.3852820  68.2899090
  23.2863090  13.6806260  67.0851150  36.1000860  15.7883260  64.1118370
  35.6403830  16.5399070  63.7376390  35.4713320  15.0689730  64.0533170
  22.9251480  11.8826500  66.5017090  22.1985540  11.2631790  66.4343040
  22.9860630  12.2767110  65.6315170  26.5296580  14.0971500  63.2866500
  27.0461600  13.4858860  62.7614760  27.1793960  14.6000280  63.7777510
  29.2692080  14.9879990  64.1135480  29.5569890  14.7334290  63.2368490
  29.7815300  14.4357350  64.7041050  21.2081480  15.2000890  59.7113850
  21.0403520  14.5671570  60.4095740  20.3415990  15.4060290  59.3608040
  22.8144180  13.8934120  57.1563990  22.2891800  14.2742150  56.4525950
  22.7388760  14.5184890  57.8773700  29.3364440  15.9096090  71.4803680
  30.2631750  15.6740360  71.5239640  29.3214870  16.7368090  70.9989710
  37.5709500  15.4521660  58.4777930  37.7461690  14.7659400  57.8338850
  36.8731070  15.9768710  58.0854600  25.4137150  15.8416500  56.0313240
  26.1455970  15.5575780  55.4837130  25.6730820  15.6029780  56.9212620
  24.5751940  11.9581230  56.0359570  23.9460820  12.4266330  56.5845400
  24.6899770  11.1130450  56.4705760  35.9042000  15.1365950  71.3044720
  36.6967320  14.6415180  71.0970680  36.1975150  15.8156090  71.9120330
  32.0301660   6.0086890  42.1860770  31.9495710   5.0941500  41.9152480
  31.6166080   6.5053960  41.4800480  30.1619700   7.7865910  44.0670040
  29.3861800   7.3066350  44.3568610  30.8132630   7.1071560  43.8926200
  24.1785530   8.0985720  44.9445800  23.3470410   7.8434430  45.3442310
  24.7866510   8.1696490  45.6803720  34.1827130  12.1926100  42.8469170
  33.7208660  11.4213340  43.1756340  34.9952680  12.2192170  43.3521620
  24.1586790  12.1325810  45.1403820  24.4614830  11.2423550  44.9614040
  24.9030380  12.6896030  44.9126070  22.5877480   3.0587610  38.7288190
  21.6994180   3.4003580  38.6268070  22.8718670   2.8587930  37.8369020
  20.5510490   5.6593260  44.6127890  21.1226600   4.8915460  44.6131530
  20.5512030   5.9582020  43.7034500  30.4090440  14.4784110  42.4673160
  29.7901880  14.9341610  41.8967600  31.2642220  14.6335570  42.0662860
  29.6028690  10.4623100  44.0740200  29.5336970   9.5213040  43.9129330
  30.3648550  10.5524510  44.6462770  30.6333860   3.2693480  44.3009130
  31.0098680   2.3965360  44.1882800  30.5353370   3.6052180  43.4099570
  22.4122030   3.5638120  45.0079160  23.0932140   3.8276490  45.6266560
  22.0970080   2.7238990  45.3417170  26.6046600   4.6105480  44.0951750
  27.1124820   5.1086450  44.7356770  27.1359840   3.8340680  43.9191110
  38.7057530   2.7810670  47.7981100  38.0009700   3.1692380  47.2796210
  38.9715450   3.4760960  48.4002030  31.2753790   9.3623350  39.8605070
  30.6571060   9.8272800  39.2967790  31.7877040  10.0550830  40.2774580
  26.1385550   8.8899220  46.5388670  25.8054930   9.5168140  47.1809740
  26.3152230   9.4161100  45.7590340  34.6519460   2.7044300  44.0065010
  33.9475030   2.9929190  44.5868120  35.0131620   3.5144410  43.6464570
  25.3504650  10.8580020  48.3537850  25.9678650  11.5331100  48.0722300
  24.4897770  11.2668000  48.2625350  20.6436990  10.0479880  37.2344700
  20.2664970  10.5366980  36.5029600  20.9010060  10.7205160  37.8651230
  36.2682240  12.3219430  46.2692490  35.5845760  12.9918540  46.2609160
  36.8076530  12.5200080  45.5037350  37.7206380   2.1499090  44.3974220
  36.7731290   2.1838070  44.5289650  38.0456370   2.9638040  44.7823580
  33.8040980  14.1663560  44.9837670  33.8168140  13.7625850  44.1159930
  33.2516200  14.9410850  44.8799100  35.0986400  10.8879780  40.0727840
  34.9882730   9.9454110  40.1977260  35.0954650  11.2495420  40.9590600
  33.2026420   9.0693400  46.3120280  33.6195210   8.8553510  45.4773740
  33.9266240   9.3266190  46.8828900  30.6406680   6.5145100  39.4290330
  29.7135960   6.4482480  39.6578800  30.7931500   7.4525230  39.3145570
  30.6275760   2.7862100  36.4257490  29.6879430   2.9476060  36.5109950
  30.9459020   3.5047780  35.8793480  37.1488520   7.4680620  46.4036520
  36.3207150   7.5373710  45.9286650  37.7439000   8.0534930  45.9352350
  34.6703970   8.0765400  39.9325580  34.0516390   7.7384950  39.2851880
  34.6528420   7.4325160  40.6404770  34.1130530   4.2549940  47.3491390
  33.7001710   5.0803650  47.6031380  33.3806480   3.6694980  47.1567750
  26.2463320   7.0409840  42.2110060  25.8420320   6.3287090  41.7155960
  26.3326440   6.6963080  43.0998100  26.7145020  10.7277400  44.3749270
  26.4173310  10.1222870  43.6957050  27.6644840  10.7654710  44.2638630
  24.9591940   3.8153050  45.9909100  25.5106530   3.9248390  45.2162350
  25.4735450   4.1890650  46.7064330  34.8030630  14.3009270  48.0372370
  34.3261190  15.1081460  47.8444980  34.1192420  13.6487600  48.1898580
  25.8063450  10.4659090  51.0257070  24.9091980  10.6899060  51.2730470
  25.8316320  10.5894030  50.0768470  32.8468670   7.3152210  36.9398330
  33.2861950   6.4774640  36.7936150  33.5597090   7.9481610  37.0262470
  24.6334670   7.3372410  49.6014440  24.4942440   8.2095210  49.9701840
  23.7516030   6.9945220  49.4562380  30.9564050  12.2548280  40.9079570
  31.3959960  12.9972610  40.4934960  30.8950940  12.4974850  41.8318530
  26.4315020  13.2794110  51.8099590  26.4030450  13.6837060  50.9428020
  26.2679990  12.3504470  51.6471190  22.9467950   5.9354820  39.7116710
  22.8265550   6.6616910  39.0997980  22.6368840   5.1657730  39.2344620
  38.3829840  14.0621210  53.1063760  38.8589560  14.5404100  53.7852840
  39.0037000  13.9938700  52.3809260  20.5853320   9.1069960  45.5185350
  20.6633740   9.2418730  44.5741070  21.1995000   8.3985850  45.7113470
  21.8300950  10.8070150  41.9291530  21.4229030  10.9484740  41.0745130
  22.7213960  10.5230310  41.7262740  37.7863090  11.2534060  50.2663770
  37.9126150  11.0145940  49.3480950  37.8284470  10.4218600  50.7385850
  31.6479830  14.9562060  48.8358580  32.1624500  14.8670070  49.6381010
  30.8048910  15.3021760  49.1286490  33.6234230  15.2417400  38.2642580
  33.4635370  14.9520340  39.1624410  33.4580940  14.4657530  37.7287810
  26.1022610  15.0215930  40.0414200  25.9265090  14.1051470  39.8282000
  25.2478350  15.3803220  40.2812000  33.3260360  12.7504960  36.8240580
  32.6325520  12.7482250  36.1642860  34.0683220  12.3264280  36.3934750
  32.8910290  14.3767670  40.8989070  33.3467240  13.5957050  41.2127690
  33.2302810  15.0874490  41.4430250  37.6387100   3.3066520  51.2313510
  37.0231370   3.8146190  50.7028970  37.3183520   2.4064850  51.1739450
  20.6412840  10.1484130  48.0579810  20.8043880   9.6789490  47.2399180
  21.1065290   9.6407690  48.7228650  34.7005930   3.3667360  49.8272360
  33.8499520   3.0673110  50.1481430  34.5407720   3.6109370  48.9156180
  31.7955640   4.8669110  51.9271150  32.1209050   4.0332860  51.5873380
  32.5835970   5.3897630  52.0749480  25.2045830   4.4023460  40.8221630
  24.9786750   4.1860630  41.7268250  24.4238360   4.8351920  40.4767600
  32.4343590   4.4086830  39.4212280  31.8352480   5.1322630  39.2375900
  32.9823200   4.3463610  38.6388730  27.6445040   5.3009040  51.4881900
  27.5488640   4.3603770  51.3382300  28.4877020   5.5224110  51.0929970
  31.0408460   3.0450370  41.4515560  31.4338030   3.3622570  40.6384250
  31.4025310   2.1662250  41.5660080  20.2642860   3.5771290  34.8848480
  20.1817530   4.5202050  35.0263470  19.9125920   3.4346200  34.0060830
  31.6263600   5.6356120  45.5466340  30.8944720   6.1442930  45.8956440
  31.2287940   4.8186100  45.2455120  28.0640990   2.3110320  43.9518830
  28.0677050   1.8700270  43.1023370  28.9592110   2.6327650  44.0590650
  23.9143370   2.1936810  42.9113040  23.5743420   2.6712040  43.6680090
  23.1520690   1.7401930  42.5514140  28.1261140   3.3122400  36.9425590
  28.2473960   3.2708880  37.8911410  27.7409650   4.1746550  36.7872320
  27.1382640   5.6223540  36.3408890  26.5699540   5.1741790  35.7144800
  27.8471640   5.9816320  35.8074040  22.2151820   9.5235560  50.2175620
  21.8306610   8.8829230  50.8158580  22.5264010  10.2271680  50.7870350
  28.3648960   6.3712100  45.6984240  28.7319090   5.8970670  46.4445580
  28.1754020   7.2453670  46.0392580  26.1548330   5.4120740  48.0168450
  25.8505400   6.2912720  48.2418810  27.1094790   5.4720530  48.0525890
  24.6830120   9.6181730  38.6135300  23.9092380   9.0779350  38.4534020
  25.4124750   9.0988340  38.2753060  35.4418100   8.6147090  44.4061690
  36.1617220   9.1102380  44.0157800  35.2399920   7.9364980  43.7615560
  30.8236900   8.6856150  50.2930690  30.7574210   7.7651820  50.0388280
  30.1942040   8.7831590  51.0075330  33.6176430   4.3804700  36.8453240
  34.5056050   4.6921930  36.6704580  33.5881520   3.5076950  36.4533820
  24.7267520   9.2862110  42.2514110  25.2446190   8.4830370  42.1971000
  24.2751540   9.2241250  43.0930940  29.6137020  10.5528390  37.5241410
  29.9552720  11.2970620  37.0284730  28.7849730  10.8659510  37.8866240
  22.2112060   6.2523480  49.1639810  21.8527000   6.9177330  49.7513150
  21.9166620   5.4207030  49.5352430  25.4125180   6.7107720  52.0479360
  25.1125320   6.8564900  51.1507180  26.1836420   6.1513010  51.9552750
  30.7553630  11.5076720  50.0434490  30.7698170  10.5757680  49.8253400
  30.0478730  11.5936480  50.6824260  35.8890700   5.6916540  36.3133100
  35.8054420   6.1230760  35.4629540  36.6084890   6.1514890  36.7459920
  36.9664840   8.1484060  49.3903070  36.2413030   8.7412840  49.1932460
  37.4940300   8.1407600  48.5916440  36.9177950  12.5458800  39.0415230
  36.2754110  11.8914420  39.3158950  36.5308610  12.9513890  38.2655900
  32.4964430   9.8744230  42.8886920  32.8488250   9.2772360  42.2288290
  31.6126760   9.5488460  43.0595170  28.5827710  10.6341920  40.2957330
  29.2698840  11.1811130  40.6764920  27.7960130  11.1782650  40.3306940
  20.7220110   6.2514740  35.7874410  21.5914960   6.5339540  36.0710330
  20.2310430   7.0650610  35.6723220  27.8854920   7.6387950  39.9082690
  28.3417700   8.4493200  40.1342880  27.5343130   7.3211090  40.7401180
  30.1887530  13.1494290  47.1374990  30.8329750  13.3553670  47.8148410
  30.5516970  12.3882690  46.6845840  31.4619610  11.1526640  45.8552440
  32.1041840  10.4519800  45.9684610  31.9868960  11.9325080  45.6749330
  35.3075330  11.4375260  35.5791580  35.0812910  10.7205700  36.1716220
  34.9171530  11.1887700  34.7413330  33.2357230  11.9521540  49.0588500
  33.5713470  12.5388230  49.7366420  32.3157570  11.8214250  49.2886290
  21.0891360  15.4642120  36.3536040  21.4489000  16.0631460  35.6993310
  20.9483700  16.0102010  37.1271070  34.8891580   9.3547200  37.2405740
  34.6013280   9.8159890  38.0283620  35.6843750   8.8944970  37.5089960
  21.0733220  13.7296980  50.8278440  21.1824340  12.7891720  50.6873830
  20.4213780  13.9951730  50.1792170  29.0645810  12.0012870  52.2276560
  28.7442680  11.2822110  52.7722250  28.3904170  12.6767940  52.3012620
  27.1059980  12.8473320  37.1709710  27.0970080  13.5803010  36.5554220
  26.1858340  12.6004900  37.2636670  22.7066620   8.0688210  37.9156470
  22.0994570   8.8087110  37.9251770  23.1815970   8.1587570  37.0894670
  30.0919580  12.9101560  35.8334900  30.1931560  12.7065550  34.9036880
  29.1921320  12.6559840  36.0382680  27.6145470   3.4681920  39.8158800
  26.9061620   3.9368260  40.2572410  27.8989950   2.8103930  40.4503990
  29.2401400   4.8878620  47.8151330  29.7386650   5.3624440  48.4803180
  29.3824350   3.9642140  48.0221360  28.7337690  15.4287880  40.5282570
  28.9879190  15.3909270  39.6061940  27.7850170  15.3021210  40.5210820
  25.8180490   1.7767000  37.1909510  26.6671020   2.2137150  37.1249700
  25.4511760   2.0887260  38.0181570  34.7390270   6.3479760  42.1041080
  33.7980410   6.3629990  42.2788770  35.0534340   5.5615720  42.5501380
  24.7171910   8.0299360  35.6645040  25.4835180   7.9180720  36.2270470
  24.7946600   7.3337330  35.0121810  23.4118670   5.4624430  36.3477930
  23.4922260   4.5151940  36.4595330  24.3038420   5.7931310  36.4538590
  36.7415850  13.5188610  43.7795340  36.8663270  14.3419780  44.2519150
  37.6081410  13.3079340  43.4319490  24.2133380  15.6119820  43.4512470
  24.9495860  15.0635280  43.7221040  24.5974300  16.4775830  43.3118460
  21.0978860  11.6793390  39.3253980  20.1718640  11.9214530  39.3159390
  21.5635290  12.5067650  39.2038730  23.2191660  14.7965890  52.6398050
  24.0204390  15.1177940  53.0533450  22.7043480  14.4361470  53.3617960
  27.3235690  14.7850130  35.2738040  28.1164300  15.0738960  34.8219830
  26.8040040  14.3542300  34.5950520  32.0556290  10.9045760  52.5873460
  31.4494450  10.9277360  51.8469210  31.7510400  10.1728800  53.1240710
  33.4856660  14.6326050  51.1982870  34.4378410  14.5484070  51.1483110
  33.3384880  15.2967760  51.8716660  36.3765860  14.0120260  36.6974780
  36.0907370  13.5985400  35.8828960  36.1785410  14.9407970  36.5775300
  20.9389470   7.2839350  51.5834100  21.4428490   6.7046630  52.1550330
  20.1996890   7.5679580  52.1210470  27.8413090  10.0053540  35.1380390
  27.7363730   9.3905890  35.8641770  27.6737310   9.4819430  34.3543400
  27.9927410   8.6910340  51.1169620  27.2273080   9.2595340  51.0324290
  28.1743370   8.3986550  50.2237850  31.0815820   9.0673570  35.7422380
  30.5325920   9.5142870  36.3865120  31.7035080   8.5622820  36.2660050
  35.1350760  10.4215670  51.6744640  35.8760230  10.7591430  51.1712100
  34.3723440  10.5907730  51.1214410  22.9712550   5.4268940  52.4784170
  23.0117890   5.1282810  53.3869400  23.8258050   5.8276550  52.3191690
  26.7490940   8.0264490  37.6387680  27.1707360   7.8604360  38.4819070
  26.8741780   7.2164720  37.1442820  24.9118360   4.0061040  50.4458660
  24.3814820   3.5151990  49.8182000  25.5806430   4.4345240  49.9116590
  29.2618580   7.0502100  34.8864780  29.7824240   6.3351120  34.5205930
  29.9086980   7.6887970  35.1865290  33.8096420   8.4730500  50.2099850
  34.2237440   8.6275580  51.0590270  32.8747420   8.5985720  50.3725630
  34.2818590   5.8126660  52.2139000  34.8639360   5.0578980  52.1259480
  34.4580360   6.3434100  51.4370480  28.5711650   8.4250980  48.1795780
  28.9899760   9.2683710  48.0072020  27.6520280   8.5623020  47.9502560
  30.9075550   6.1567160  49.5633620  31.0271760   5.5608300  50.3028460
  31.7669550   6.1936850  49.1434920  33.2463450   6.7104350  48.1396130
  32.7198670   7.2346970  47.5361270  33.5894790   7.3431740  48.7705860
  25.6449840   4.0997720  34.5845840  25.4438900   3.2365080  34.9459180
  25.4741890   4.0131080  33.6467440  26.4219070  14.7303990  49.2953510
  25.8840160  15.4550050  48.9762210  26.6753030  14.2534330  48.5050850
  27.6744320   2.6988510  50.8209440  28.2644010   2.3904360  51.5087260
  26.8564560   2.2268260  50.9769340  32.4937750   2.3154320  51.0542460
  31.8053270   1.6535860  50.9892450  33.2143770   1.8692590  51.4990920
  29.2781280  15.9655200  49.5540160  29.2039980  16.8690340  49.8612530
  28.3760120  15.6467100  49.5262230  29.8266610  15.1313710  37.1766520
  30.7217400  15.4698680  37.1985280  29.8584240  14.4093120  36.5490800
  23.4662770  10.5040760  35.4053520  23.9037640  11.0470430  36.0611100
  23.9510500   9.6787710  35.4149860  20.6808570  13.2929790  42.8573780
  21.0111580  12.4250850  42.6252420  21.1099570  13.4988310  43.6878740
  25.2770490  11.6238800  40.5175750  24.9766030  11.5003770  41.4179660
  25.1707980  10.7647390  40.1091480  21.1698780  14.1600380  45.5955410
  20.7329770  14.3401180  46.4279560  21.7376460  14.9175000  45.4537130
  36.8060960  13.6617380  49.8832720  36.2062950  13.7209940  49.1396640
  36.9354860  12.7222360  50.0129570  38.0462410  11.4035200  35.2202430
  37.2155370  11.4711850  35.6909660  38.2234240  12.2939320  34.9169290
  37.5018870   8.1482680  37.7236630  38.2637780   8.7179330  37.8296320
  37.5173240   7.5809880  38.4944940  21.0023210   6.6720610  41.9544290
  20.3472050   6.4032250  41.3103990  21.8401160   6.5625090  41.5046270
  38.5078840   9.0032780  42.5678560  38.8787670   8.2200100  42.1614530
  39.1480770   9.6921880  42.3895860  35.4912600  10.3869360  47.9808880
  34.6772440  10.8166520  48.2434670  35.8986800  10.9987770  47.3677930
  37.5538040   8.4417050  34.8809150  37.8286880   9.3495930  34.7528370
  37.3648780   8.3779580  35.8171140  37.4503380   6.3786040  39.8738580
  37.0746980   5.6113970  39.4419870  36.7206500   6.7608740  40.3613510
  22.0399140   7.0573180  46.4947630  22.4072180   6.9700580  47.3743650
  21.4709960   6.2939730  46.3954490  36.8403000   5.5257560  49.5078100
  36.6089090   5.2970310  48.6076050  37.1007550   6.4457110  49.4622990
  21.5915140   3.9682270  50.4006050  20.6971190   3.9349030  50.7399760
  22.1312690   4.1669060  51.1657300  20.2161290   3.8819540  37.8969620
  19.3125370   4.1449740  37.7221280  20.7001910   4.1530710  37.1169580
  36.7254340   4.6043530  43.1745820  37.2491820   4.1106180  42.5435990
  37.3113760   4.7393890  43.9193390  36.9044060   4.6883400  46.6965370
  35.9546770   4.6546940  46.8110360  37.0857070   5.5983510  46.4615140
  22.7588500   2.9385080  35.8064000  23.4680200   2.5168300  35.3211280
  22.0428440   3.0060310  35.1747350  36.2154310   3.8616880  39.1138230
  36.7113430   3.6287750  39.8987110  36.0170380   3.0228720  38.6975870
  37.6441470   2.4977830  41.6475910  37.5340750   2.3433870  42.5858180
  38.4049060   1.9698770  41.4051320  35.5488650  15.1387960  41.5077150
  36.1447720  14.8172530  40.8311570  35.8066800  14.6659780  42.2990420
  23.4551220  11.5705870  51.6567780  23.4120850  11.1998780  52.5382240
  23.5862230  12.5083440  51.7969600  27.1557250  13.1265460  47.2577500
  26.9148610  13.3940020  46.3708020  28.0959890  13.2971190  47.3128360
  38.4161410  15.1459840  48.0588140  37.9219690  15.5428710  47.3415270
  37.8074700  14.5209050  48.4525420  23.2939250  14.5168120  48.7765560
  22.6999570  14.3852820  49.5155600  23.2863090  13.6806260  48.3107660
  36.1000860  15.7883260  45.3374880  35.6403830  16.5399070  44.9632900
  35.4713320  15.0689730  45.2789680  22.9251480  11.8826500  47.7273600
  22.1985540  11.2631790  47.6599550  22.9860630  12.2767110  46.8571680
  26.5296580  14.0971500  44.5123010  27.0461600  13.4858860  43.9871270
  27.1793960  14.6000280  45.0034020  29.2692080  14.9879990  45.3391990
  29.5569890  14.7334290  44.4625000  29.7815300  14.4357350  45.9297560
  21.2081480  15.2000890  40.9370360  21.0403520  14.5671570  41.6352250
  20.3415990  15.4060290  40.5864550  22.8144180  13.8934120  38.3820500
  22.2891800  14.2742150  37.6782460  22.7388760  14.5184890  39.1030210
  29.3364440  15.9096090  52.7060190  30.2631750  15.6740360  52.7496150
  29.3214870  16.7368090  52.2246220  37.5709500  15.4521660  39.7034440
  37.7461690  14.7659400  39.0595360  36.8731070  15.9768710  39.3111110
  25.4137150  15.8416500  37.2569750  26.1455970  15.5575780  36.7093640
  25.6730820  15.6029780  38.1469130  24.5751940  11.9581230  37.2616080
  23.9460820  12.4266330  37.8101910  24.6899770  11.1130450  37.6962270
  35.9042000  15.1365950  52.5301230  36.6967320  14.6415180  52.3227190
  36.1975150  15.8156090  53.1376840  32.0301660   6.0086890  23.4117280
  31.9495710   5.0941500  23.1408990  31.6166080   6.5053960  22.7056990
  30.1619700   7.7865910  25.2926550  29.3861800   7.3066350  25.5825120
  30.8132630   7.1071560  25.1182710  24.1785530   8.0985720  26.1702310
  23.3470410   7.8434430  26.5698820  24.7866510   8.1696490  26.9060230
  34.1827130  12.1926100  24.0725680  33.7208660  11.4213340  24.4012850
  34.9952680  12.2192170  24.5778130  24.1586790  12.1325810  26.3660330
  24.4614830  11.2423550  26.1870550  24.9030380  12.6896030  26.1382580
  22.5877480   3.0587610  19.9544700  21.6994180   3.4003580  19.8524580
  22.8718670   2.8587930  19.0625530  20.5510490   5.6593260  25.8384400
  21.1226600   4.8915460  25.8388040  20.5512030   5.9582020  24.9291010
  30.4090440  14.4784110  23.6929670  29.7901880  14.9341610  23.1224110
  31.2642220  14.6335570  23.2919370  29.6028690  10.4623100  25.2996710
  29.5336970   9.5213040  25.1385840  30.3648550  10.5524510  25.8719280
  30.6333860   3.2693480  25.5265640  31.0098680   2.3965360  25.4139310
  30.5353370   3.6052180  24.6356080  22.4122030   3.5638120  26.2335670
  23.0932140   3.8276490  26.8523070  22.0970080   2.7238990  26.5673680
  26.6046600   4.6105480  25.3208260  27.1124820   5.1086450  25.9613280
  27.1359840   3.8340680  25.1447620  38.7057530   2.7810670  29.0237610
  38.0009700   3.1692380  28.5052720  38.9715450   3.4760960  29.6258540
  31.2753790   9.3623350  21.0861580  30.6571060   9.8272800  20.5224300
  31.7877040  10.0550830  21.5031090  26.1385550   8.8899220  27.7645180
  25.8054930   9.5168140  28.4066250  26.3152230   9.4161100  26.9846850
  34.6519460   2.7044300  25.2321520  33.9475030   2.9929190  25.8124630
  35.0131620   3.5144410  24.8721080  25.3504650  10.8580020  29.5794360
  25.9678650  11.5331100  29.2978810  24.4897770  11.2668000  29.4881860
  20.6436990  10.0479880  18.4601210  20.2664970  10.5366980  17.7286110
  20.9010060  10.7205160  19.0907740  36.2682240  12.3219430  27.4949000
  35.5845760  12.9918540  27.4865670  36.8076530  12.5200080  26.7293860
  37.7206380   2.1499090  25.6230730  36.7731290   2.1838070  25.7546160
  38.0456370   2.9638040  26.0080090  33.8040980  14.1663560  26.2094180
  33.8168140  13.7625850  25.3416440  33.2516200  14.9410850  26.1055610
  35.0986400  10.8879780  21.2984350  34.9882730   9.9454110  21.4233770
  35.0954650  11.2495420  22.1847110  33.2026420   9.0693400  27.5376790
  33.6195210   8.8553510  26.7030250  33.9266240   9.3266190  28.1085410
  30.6406680   6.5145100  20.6546840  29.7135960   6.4482480  20.8835310
  30.7931500   7.4525230  20.5402080  30.6275760   2.7862100  17.6514000
  29.6879430   2.9476060  17.7366460  30.9459020   3.5047780  17.1049990
  37.1488520   7.4680620  27.6293030  36.3207150   7.5373710  27.1543160
  37.7439000   8.0534930  27.1608860  34.6703970   8.0765400  21.1582090
  34.0516390   7.7384950  20.5108390  34.6528420   7.4325160  21.8661280
  34.1130530   4.2549940  28.5747900  33.7001710   5.0803650  28.8287890
  33.3806480   3.6694980  28.3824260  26.2463320   7.0409840  23.4366570
  25.8420320   6.3287090  22.9412470  26.3326440   6.6963080  24.3254610
  26.7145020  10.7277400  25.6005780  26.4173310  10.1222870  24.9213560
  27.6644840  10.7654710  25.4895140  24.9591940   3.8153050  27.2165610
  25.5106530   3.9248390  26.4418860  25.4735450   4.1890650  27.9320840
  34.8030630  14.3009270  29.2628880  34.3261190  15.1081460  29.0701490
  34.1192420  13.6487600  29.4155090  25.8063450  10.4659090  32.2513580
  24.9091980  10.6899060  32.4986980  25.8316320  10.5894030  31.3024980
  32.8468670   7.3152210  18.1654840  33.2861950   6.4774640  18.0192660
  33.5597090   7.9481610  18.2518980  24.6334670   7.3372410  30.8270950
  24.4942440   8.2095210  31.1958350  23.7516030   6.9945220  30.6818890
  30.9564050  12.2548280  22.1336080  31.3959960  12.9972610  21.7191470
  30.8950940  12.4974850  23.0575040  26.4315020  13.2794110  33.0356100
  26.4030450  13.6837060  32.1684530  26.2679990  12.3504470  32.8727700
  22.9467950   5.9354820  20.9373220  22.8265550   6.6616910  20.3254490
  22.6368840   5.1657730  20.4601130  38.3829840  14.0621210  34.3320270
  38.8589560  14.5404100  35.0109350  39.0037000  13.9938700  33.6065770
  20.5853320   9.1069960  26.7441860  20.6633740   9.2418730  25.7997580
  21.1995000   8.3985850  26.9369980  21.8300950  10.8070150  23.1548040
  21.4229030  10.9484740  22.3001640  22.7213960  10.5230310  22.9519250
  37.7863090  11.2534060  31.4920280  37.9126150  11.0145940  30.5737460
  37.8284470  10.4218600  31.9642360  31.6479830  14.9562060  30.0615090
  32.1624500  14.8670070  30.8637520  30.8048910  15.3021760  30.3543000
  33.6234230  15.2417400  19.4899090  33.4635370  14.9520340  20.3880920
  33.4580940  14.4657530  18.9544320  26.1022610  15.0215930  21.2670710
  25.9265090  14.1051470  21.0538510  25.2478350  15.3803220  21.5068510
  33.3260360  12.7504960  18.0497090  32.6325520  12.7482250  17.3899370
  34.0683220  12.3264280  17.6191260  32.8910290  14.3767670  22.1245580
  33.3467240  13.5957050  22.4384200  33.2302810  15.0874490  22.6686760
  37.6387100   3.3066520  32.4570020  37.0231370   3.8146190  31.9285480
  37.3183520   2.4064850  32.3995960  20.6412840  10.1484130  29.2836320
  20.8043880   9.6789490  28.4655690  21.1065290   9.6407690  29.9485160
  34.7005930   3.3667360  31.0528870  33.8499520   3.0673110  31.3737940
  34.5407720   3.6109370  30.1412690  31.7955640   4.8669110  33.1527660
  32.1209050   4.0332860  32.8129890  32.5835970   5.3897630  33.3005990
  25.2045830   4.4023460  22.0478140  24.9786750   4.1860630  22.9524760
  24.4238360   4.8351920  21.7024110  32.4343590   4.4086830  20.6468790
  31.8352480   5.1322630  20.4632410  32.9823200   4.3463610  19.8645240
  27.6445040   5.3009040  32.7138410  27.5488640   4.3603770  32.5638810
  28.4877020   5.5224110  32.3186480  31.0408460   3.0450370  22.6772070
  31.4338030   3.3622570  21.8640760  31.4025310   2.1662250  22.7916590
  20.2642860   3.5771290  16.1104990  20.1817530   4.5202050  16.2519980
  19.9125920   3.4346200  15.2317340  31.6263600   5.6356120  26.7722850
  30.8944720   6.1442930  27.1212950  31.2287940   4.8186100  26.4711630
  28.0640990   2.3110320  25.1775340  28.0677050   1.8700270  24.3279880
  28.9592110   2.6327650  25.2847160  23.9143370   2.1936810  24.1369550
  23.5743420   2.6712040  24.8936600  23.1520690   1.7401930  23.7770650
  28.1261140   3.3122400  18.1682100  28.2473960   3.2708880  19.1167920
  27.7409650   4.1746550  18.0128830  27.1382640   5.6223540  17.5665400
  26.5699540   5.1741790  16.9401310  27.8471640   5.9816320  17.0330550
  22.2151820   9.5235560  31.4432130  21.8306610   8.8829230  32.0415090
  22.5264010  10.2271680  32.0126860  28.3648960   6.3712100  26.9240750
  28.7319090   5.8970670  27.6702090  28.1754020   7.2453670  27.2649090
  26.1548330   5.4120740  29.2424960  25.8505400   6.2912720  29.4675320
  27.1094790   5.4720530  29.2782400  24.6830120   9.6181730  19.8391810
  23.9092380   9.0779350  19.6790530  25.4124750   9.0988340  19.5009570
  35.4418100   8.6147090  25.6318200  36.1617220   9.1102380  25.2414310
  35.2399920   7.9364980  24.9872070  30.8236900   8.6856150  31.5187200
  30.7574210   7.7651820  31.2644790  30.1942040   8.7831590  32.2331840
  33.6176430   4.3804700  18.0709750  34.5056050   4.6921930  17.8961090
  33.5881520   3.5076950  17.6790330  24.7267520   9.2862110  23.4770620
  25.2446190   8.4830370  23.4227510  24.2751540   9.2241250  24.3187450
  29.6137020  10.5528390  18.7497920  29.9552720  11.2970620  18.2541240
  28.7849730  10.8659510  19.1122750  22.2112060   6.2523480  30.3896320
  21.8527000   6.9177330  30.9769660  21.9166620   5.4207030  30.7608940
  25.4125180   6.7107720  33.2735870  25.1125320   6.8564900  32.3763690
  26.1836420   6.1513010  33.1809260  30.7553630  11.5076720  31.2691000
  30.7698170  10.5757680  31.0509910  30.0478730  11.5936480  31.9080770
  35.8890700   5.6916540  17.5389610  35.8054420   6.1230760  16.6886050
  36.6084890   6.1514890  17.9716430  36.9664840   8.1484060  30.6159580
  36.2413030   8.7412840  30.4188970  37.4940300   8.1407600  29.8172950
  36.9177950  12.5458800  20.2671740  36.2754110  11.8914420  20.5415460
  36.5308610  12.9513890  19.4912410  32.4964430   9.8744230  24.1143430
  32.8488250   9.2772360  23.4544800  31.6126760   9.5488460  24.2851680
  28.5827710  10.6341920  21.5213840  29.2698840  11.1811130  21.9021430
  27.7960130  11.1782650  21.5563450  20.7220110   6.2514740  17.0130920
  21.5914960   6.5339540  17.2966840  20.2310430   7.0650610  16.8979730
  27.8854920   7.6387950  21.1339200  28.3417700   8.4493200  21.3599390
  27.5343130   7.3211090  21.9657690  30.1887530  13.1494290  28.3631500
  30.8329750  13.3553670  29.0404920  30.5516970  12.3882690  27.9102350
  31.4619610  11.1526640  27.0808950  32.1041840  10.4519800  27.1941120
  31.9868960  11.9325080  26.9005840  35.3075330  11.4375260  16.8048090
  35.0812910  10.7205700  17.3972730  34.9171530  11.1887700  15.9669840
  33.2357230  11.9521540  30.2845010  33.5713470  12.5388230  30.9622930
  32.3157570  11.8214250  30.5142800  21.0891360  15.4642120  17.5792550
  21.4489000  16.0631460  16.9249820  20.9483700  16.0102010  18.3527580
  34.8891580   9.3547200  18.4662250  34.6013280   9.8159890  19.2540130
  35.6843750   8.8944970  18.7346470  21.0733220  13.7296980  32.0534950
  21.1824340  12.7891720  31.9130340  20.4213780  13.9951730  31.4048680
  29.0645810  12.0012870  33.4533070  28.7442680  11.2822110  33.9978760
  28.3904170  12.6767940  33.5269130  27.1059980  12.8473320  18.3966220
  27.0970080  13.5803010  17.7810730  26.1858340  12.6004900  18.4893180
  22.7066620   8.0688210  19.1412980  22.0994570   8.8087110  19.1508280
  23.1815970   8.1587570  18.3151180  30.0919580  12.9101560  17.0591410
  30.1931560  12.7065550  16.1293390  29.1921320  12.6559840  17.2639190
  27.6145470   3.4681920  21.0415310  26.9061620   3.9368260  21.4828920
  27.8989950   2.8103930  21.6760500  29.2401400   4.8878620  29.0407840
  29.7386650   5.3624440  29.7059690  29.3824350   3.9642140  29.2477870
  28.7337690  15.4287880  21.7539080  28.9879190  15.3909270  20.8318450
  27.7850170  15.3021210  21.7467330  25.8180490   1.7767000  18.4166020
  26.6671020   2.2137150  18.3506210  25.4511760   2.0887260  19.2438080
  34.7390270   6.3479760  23.3297590  33.7980410   6.3629990  23.5045280
  35.0534340   5.5615720  23.7757890  24.7171910   8.0299360  16.8901550
  25.4835180   7.9180720  17.4526980  24.7946600   7.3337330  16.2378320
  23.4118670   5.4624430  17.5734440  23.4922260   4.5151940  17.6851840
  24.3038420   5.7931310  17.6795100  36.7415850  13.5188610  25.0051850
  36.8663270  14.3419780  25.4775660  37.6081410  13.3079340  24.6576000
  24.2133380  15.6119820  24.6768980  24.9495860  15.0635280  24.9477550
  24.5974300  16.4775830  24.5374970  21.0978860  11.6793390  20.5510490
  20.1718640  11.9214530  20.5415900  21.5635290  12.5067650  20.4295240
  23.2191660  14.7965890  33.8654560  24.0204390  15.1177940  34.2789960
  22.7043480  14.4361470  34.5874470  27.3235690  14.7850130  16.4994550
  28.1164300  15.0738960  16.0476340  26.8040040  14.3542300  15.8207030
  32.0556290  10.9045760  33.8129970  31.4494450  10.9277360  33.0725720
  31.7510400  10.1728800  34.3497220  33.4856660  14.6326050  32.4239380
  34.4378410  14.5484070  32.3739620  33.3384880  15.2967760  33.0973170
  36.3765860  14.0120260  17.9231290  36.0907370  13.5985400  17.1085470
  36.1785410  14.9407970  17.8031810  20.9389470   7.2839350  32.8090610
  21.4428490   6.7046630  33.3806840  20.1996890   7.5679580  33.3466980
  27.8413090  10.0053540  16.3636900  27.7363730   9.3905890  17.0898280
  27.6737310   9.4819430  15.5799910  27.9927410   8.6910340  32.3426130
  27.2273080   9.2595340  32.2580800  28.1743370   8.3986550  31.4494360
  31.0815820   9.0673570  16.9678890  30.5325920   9.5142870  17.6121630
  31.7035080   8.5622820  17.4916560  35.1350760  10.4215670  32.9001150
  35.8760230  10.7591430  32.3968610  34.3723440  10.5907730  32.3470920
  22.9712550   5.4268940  33.7040680  23.0117890   5.1282810  34.6125910
  23.8258050   5.8276550  33.5448200  26.7490940   8.0264490  18.8644190
  27.1707360   7.8604360  19.7075580  26.8741780   7.2164720  18.3699330
  24.9118360   4.0061040  31.6715170  24.3814820   3.5151990  31.0438510
  25.5806430   4.4345240  31.1373100  29.2618580   7.0502100  16.1121290
  29.7824240   6.3351120  15.7462440  29.9086980   7.6887970  16.4121800
  33.8096420   8.4730500  31.4356360  34.2237440   8.6275580  32.2846780
  32.8747420   8.5985720  31.5982140  34.2818590   5.8126660  33.4395510
  34.8639360   5.0578980  33.3515990  34.4580360   6.3434100  32.6626990
  28.5711650   8.4250980  29.4052290  28.9899760   9.2683710  29.2328530
  27.6520280   8.5623020  29.1759070  30.9075550   6.1567160  30.7890130
  31.0271760   5.5608300  31.5284970  31.7669550   6.1936850  30.3691430
  33.2463450   6.7104350  29.3652640  32.7198670   7.2346970  28.7617780
  33.5894790   7.3431740  29.9962370  25.6449840   4.0997720  15.8102350
  25.4438900   3.2365080  16.1715690  25.4741890   4.0131080  14.8723950
  26.4219070  14.7303990  30.5210020  25.8840160  15.4550050  30.2018720
  26.6753030  14.2534330  29.7307360  27.6744320   2.6988510  32.0465950
  28.2644010   2.3904360  32.7343770  26.8564560   2.2268260  32.2025850
  32.4937750   2.3154320  32.2798970  31.8053270   1.6535860  32.2148960
  33.2143770   1.8692590  32.7247430  29.2781280  15.9655200  30.7796670
  29.2039980  16.8690340  31.0869040  28.3760120  15.6467100  30.7518740
  29.8266610  15.1313710  18.4023030  30.7217400  15.4698680  18.4241790
  29.8584240  14.4093120  17.7747310  23.4662770  10.5040760  16.6310030
  23.9037640  11.0470430  17.2867610  23.9510500   9.6787710  16.6406370
  20.6808570  13.2929790  24.0830290  21.0111580  12.4250850  23.8508930
  21.1099570  13.4988310  24.9135250  25.2770490  11.6238800  21.7432260
  24.9766030  11.5003770  22.6436170  25.1707980  10.7647390  21.3347990
  21.1698780  14.1600380  26.8211920  20.7329770  14.3401180  27.6536070
  21.7376460  14.9175000  26.6793640  36.8060960  13.6617380  31.1089230
  36.2062950  13.7209940  30.3653150  36.9354860  12.7222360  31.2386080
  38.0462410  11.4035200  16.4458940  37.2155370  11.4711850  16.9166170
  38.2234240  12.2939320  16.1425800  37.5018870   8.1482680  18.9493140
  38.2637780   8.7179330  19.0552830  37.5173240   7.5809880  19.7201450
  21.0023210   6.6720610  23.1800800  20.3472050   6.4032250  22.5360500
  21.8401160   6.5625090  22.7302780  38.5078840   9.0032780  23.7935070
  38.8787670   8.2200100  23.3871040  39.1480770   9.6921880  23.6152370
  35.4912600  10.3869360  29.2065390  34.6772440  10.8166520  29.4691180
  35.8986800  10.9987770  28.5934440  37.5538040   8.4417050  16.1065660
  37.8286880   9.3495930  15.9784880  37.3648780   8.3779580  17.0427650
  37.4503380   6.3786040  21.0995090  37.0746980   5.6113970  20.6676380
  36.7206500   6.7608740  21.5870020  22.0399140   7.0573180  27.7204140
  22.4072180   6.9700580  28.6000160  21.4709960   6.2939730  27.6211000
  36.8403000   5.5257560  30.7334610  36.6089090   5.2970310  29.8332560
  37.1007550   6.4457110  30.6879500  21.5915140   3.9682270  31.6262560
  20.6971190   3.9349030  31.9656270  22.1312690   4.1669060  32.3913810
  20.2161290   3.8819540  19.1226130  19.3125370   4.1449740  18.9477790
  20.7001910   4.1530710  18.3426090  36.7254340   4.6043530  24.4002330
  37.2491820   4.1106180  23.7692500  37.3113760   4.7393890  25.1449900
  36.9044060   4.6883400  27.9221880  35.9546770   4.6546940  28.0366870
  37.0857070   5.5983510  27.6871650  22.7588500   2.9385080  17.0320510
  23.4680200   2.5168300  16.5467790  22.0428440   3.0060310  16.4003860
  36.2154310   3.8616880  20.3394740  36.7113430   3.6287750  21.1243620
  36.0170380   3.0228720  19.9232380  37.6441470   2.4977830  22.8732420
  37.5340750   2.3433870  23.8114690  38.4049060   1.9698770  22.6307830
  35.5488650  15.1387960  22.7333660  36.1447720  14.8172530  22.0568080
  35.8066800  14.6659780  23.5246930  23.4551220  11.5705870  32.8824290
  23.4120850  11.1998780  33.7638750  23.5862230  12.5083440  33.0226110
  27.1557250  13.1265460  28.4834010  26.9148610  13.3940020  27.5964530
  28.0959890  13.2971190  28.5384870  38.4161410  15.1459840  29.2844650
  37.9219690  15.5428710  28.5671780  37.8074700  14.5209050  29.6781930
  23.2939250  14.5168120  30.0022070  22.6999570  14.3852820  30.7412110
  23.2863090  13.6806260  29.5364170  36.1000860  15.7883260  26.5631390
  35.6403830  16.5399070  26.1889410  35.4713320  15.0689730  26.5046190
  22.9251480  11.8826500  28.9530110  22.1985540  11.2631790  28.8856060
  22.9860630  12.2767110  28.0828190  26.5296580  14.0971500  25.7379520
  27.0461600  13.4858860  25.2127780  27.1793960  14.6000280  26.2290530
  29.2692080  14.9879990  26.5648500  29.5569890  14.7334290  25.6881510
  29.7815300  14.4357350  27.1554070  21.2081480  15.2000890  22.1626870
  21.0403520  14.5671570  22.8608760  20.3415990  15.4060290  21.8121060
  22.8144180  13.8934120  19.6077010  22.2891800  14.2742150  18.9038970
  22.7388760  14.5184890  20.3286720  29.3364440  15.9096090  33.9316700
  30.2631750  15.6740360  33.9752660  29.3214870  16.7368090  33.4502730
  37.5709500  15.4521660  20.9290950  37.7461690  14.7659400  20.2851870
  36.8731070  15.9768710  20.5367620  25.4137150  15.8416500  18.4826260
  26.1455970  15.5575780  17.9350150  25.6730820  15.6029780  19.3725640
  24.5751940  11.9581230  18.4872590  23.9460820  12.4266330  19.0358420
  24.6899770  11.1130450  18.9218780  35.9042000  15.1365950  33.7557740
  36.6967320  14.6415180  33.5483700  36.1975150  15.8156090  34.3633350
  32.0301660   6.0086890   4.6373790  31.9495710   5.0941500   4.3665500
  31.6166080   6.5053960   3.9313500  30.1619700   7.7865910   6.5183060
  29.3861800   7.3066350   6.8081630  30.8132630   7.1071560   6.3439220
  24.1785530   8.0985720   7.3958820  23.3470410   7.8434430   7.7955330
  24.7866510   8.1696490   8.1316740  34.1827130  12.1926100   5.2982190
  33.7208660  11.4213340   5.6269360  34.9952680  12.2192170   5.8034640
  24.1586790  12.1325810   7.5916840  24.4614830  11.2423550   7.4127060
  24.9030380  12.6896030   7.3639090  20.5510490   5.6593260   7.0640910
  21.1226600   4.8915460   7.0644550  20.5512030   5.9582020   6.1547520
  30.4090440  14.4784110   4.9186180  29.7901880  14.9341610   4.3480620
  31.2642220  14.6335570   4.5175880  29.6028690  10.4623100   6.5253220
  29.5336970   9.5213040   6.3642350  30.3648550  10.5524510   7.0975790
  30.6333860   3.2693480   6.7522150  31.0098680   2.3965360   6.6395820
  30.5353370   3.6052180   5.8612590  22.4122030   3.5638120   7.4592180
  23.0932140   3.8276490   8.0779580  22.0970080   2.7238990   7.7930190
  26.6046600   4.6105480   6.5464770  27.1124820   5.1086450   7.1869790
  27.1359840   3.8340680   6.3704130  38.7057530   2.7810670  10.2494120
  38.0009700   3.1692380   9.7309230  38.9715450   3.4760960  10.8515050
  31.2753790   9.3623350   2.3118090  30.6571060   9.8272800   1.7480810
  31.7877040  10.0550830   2.7287600  26.1385550   8.8899220   8.9901690
  25.8054930   9.5168140   9.6322760  26.3152230   9.4161100   8.2103360
  34.6519460   2.7044300   6.4578030  33.9475030   2.9929190   7.0381140
  35.0131620   3.5144410   6.0977590  25.3504650  10.8580020  10.8050870
  25.9678650  11.5331100  10.5235320  24.4897770  11.2668000  10.7138370
  36.2682240  12.3219430   8.7205510  35.5845760  12.9918540   8.7122180
  36.8076530  12.5200080   7.9550370  37.7206380   2.1499090   6.8487240
  36.7731290   2.1838070   6.9802670  38.0456370   2.9638040   7.2336600
  33.8040980  14.1663560   7.4350690  33.8168140  13.7625850   6.5672950
  33.2516200  14.9410850   7.3312120  35.0986400  10.8879780   2.5240860
  34.9882730   9.9454110   2.6490280  35.0954650  11.2495420   3.4103620
  33.2026420   9.0693400   8.7633300  33.6195210   8.8553510   7.9286760
  33.9266240   9.3266190   9.3341920  30.6406680   6.5145100   1.8803350
  29.7135960   6.4482480   2.1091820  30.7931500   7.4525230   1.7658590
  37.1488520   7.4680620   8.8549540  36.3207150   7.5373710   8.3799670
  37.7439000   8.0534930   8.3865370  34.6703970   8.0765400   2.3838600
  34.0516390   7.7384950   1.7364900  34.6528420   7.4325160   3.0917790
  34.1130530   4.2549940   9.8004410  33.7001710   5.0803650  10.0544400
  33.3806480   3.6694980   9.6080770  26.2463320   7.0409840   4.6623080
  25.8420320   6.3287090   4.1668980  26.3326440   6.6963080   5.5511120
  26.7145020  10.7277400   6.8262290  26.4173310  10.1222870   6.1470070
  27.6644840  10.7654710   6.7151650  24.9591940   3.8153050   8.4422120
  25.5106530   3.9248390   7.6675370  25.4735450   4.1890650   9.1577350
  34.8030630  14.3009270  10.4885390  34.3261190  15.1081460  10.2958000
  34.1192420  13.6487600  10.6411600  25.8063450  10.4659090  13.4770090
  24.9091980  10.6899060  13.7243490  25.8316320  10.5894030  12.5281490
  24.6334670   7.3372410  12.0527460  24.4942440   8.2095210  12.4214860
  23.7516030   6.9945220  11.9075400  30.9564050  12.2548280   3.3592590
  31.3959960  12.9972610   2.9447980  30.8950940  12.4974850   4.2831550
  26.4315020  13.2794110  14.2612610  26.4030450  13.6837060  13.3941040
  26.2679990  12.3504470  14.0984210  38.3829840  14.0621210  15.5576780
  38.8589560  14.5404100  16.2365860  39.0037000  13.9938700  14.8322280
  20.5853320   9.1069960   7.9698370  20.6633740   9.2418730   7.0254090
  21.1995000   8.3985850   8.1626490  21.8300950  10.8070150   4.3804550
  21.4229030  10.9484740   3.5258150  22.7213960  10.5230310   4.1775760
  37.7863090  11.2534060  12.7176790  37.9126150  11.0145940  11.7993970
  37.8284470  10.4218600  13.1898870  31.6479830  14.9562060  11.2871600
  32.1624500  14.8670070  12.0894030  30.8048910  15.3021760  11.5799510
  26.1022610  15.0215930   2.4927220  25.9265090  14.1051470   2.2795020
  25.2478350  15.3803220   2.7325020  32.8910290  14.3767670   3.3502090
  33.3467240  13.5957050   3.6640710  33.2302810  15.0874490   3.8943270
  37.6387100   3.3066520  13.6826530  37.0231370   3.8146190  13.1541990
  37.3183520   2.4064850  13.6252470  20.6412840  10.1484130  10.5092830
  20.8043880   9.6789490   9.6912200  21.1065290   9.6407690  11.1741670
  34.7005930   3.3667360  12.2785380  33.8499520   3.0673110  12.5994450
  34.5407720   3.6109370  11.3669200  31.7955640   4.8669110  14.3784170
  32.1209050   4.0332860  14.0386400  32.5835970   5.3897630  14.5262500
  25.2045830   4.4023460   3.2734650  24.9786750   4.1860630   4.1781270
  24.4238360   4.8351920   2.9280620  27.6445040   5.3009040  13.9394920
  27.5488640   4.3603770  13.7895320  28.4877020   5.5224110  13.5442990
  31.0408460   3.0450370   3.9028580  31.4338030   3.3622570   3.0897270
  31.4025310   2.1662250   4.0173100  31.6263600   5.6356120   7.9979360
  30.8944720   6.1442930   8.3469460  31.2287940   4.8186100   7.6968140
  28.0640990   2.3110320   6.4031850  28.0677050   1.8700270   5.5536390
  28.9592110   2.6327650   6.5103670  23.9143370   2.1936810   5.3626060
  23.5743420   2.6712040   6.1193110  23.1520690   1.7401930   5.0027160
  22.2151820   9.5235560  12.6688640  21.8306610   8.8829230  13.2671600
  22.5264010  10.2271680  13.2383370  28.3648960   6.3712100   8.1497260
  28.7319090   5.8970670   8.8958600  28.1754020   7.2453670   8.4905600
  26.1548330   5.4120740  10.4681470  25.8505400   6.2912720  10.6931830
  27.1094790   5.4720530  10.5038910  35.4418100   8.6147090   6.8574710
  36.1617220   9.1102380   6.4670820  35.2399920   7.9364980   6.2128580
  30.8236900   8.6856150  12.7443710  30.7574210   7.7651820  12.4901300
  30.1942040   8.7831590  13.4588350  24.7267520   9.2862110   4.7027130
  25.2446190   8.4830370   4.6484020  24.2751540   9.2241250   5.5443960
  22.2112060   6.2523480  11.6152830  21.8527000   6.9177330  12.2026170
  21.9166620   5.4207030  11.9865450  25.4125180   6.7107720  14.4992380
  25.1125320   6.8564900  13.6020200  26.1836420   6.1513010  14.4065770
  30.7553630  11.5076720  12.4947510  30.7698170  10.5757680  12.2766420
  30.0478730  11.5936480  13.1337280  36.9664840   8.1484060  11.8416090
  36.2413030   8.7412840  11.6445480  37.4940300   8.1407600  11.0429460
  32.4964430   9.8744230   5.3399940  32.8488250   9.2772360   4.6801310
  31.6126760   9.5488460   5.5108190  28.5827710  10.6341920   2.7470350
  29.2698840  11.1811130   3.1277940  27.7960130  11.1782650   2.7819960
  27.8854920   7.6387950   2.3595710  28.3417700   8.4493200   2.5855900
  27.5343130   7.3211090   3.1914200  30.1887530  13.1494290   9.5888010
  30.8329750  13.3553670  10.2661430  30.5516970  12.3882690   9.1358860
  31.4619610  11.1526640   8.3065460  32.1041840  10.4519800   8.4197630
  31.9868960  11.9325080   8.1262350  33.2357230  11.9521540  11.5101520
  33.5713470  12.5388230  12.1879440  32.3157570  11.8214250  11.7399310
  21.0733220  13.7296980  13.2791460  21.1824340  12.7891720  13.1386850
  20.4213780  13.9951730  12.6305190  29.0645810  12.0012870  14.6789580
  28.7442680  11.2822110  15.2235270  28.3904170  12.6767940  14.7525640
  27.6145470   3.4681920   2.2671820  26.9061620   3.9368260   2.7085430
  27.8989950   2.8103930   2.9017010  29.2401400   4.8878620  10.2664350
  29.7386650   5.3624440  10.9316200  29.3824350   3.9642140  10.4734380
  28.7337690  15.4287880   2.9795590  28.9879190  15.3909270   2.0574960
  27.7850170  15.3021210   2.9723840  34.7390270   6.3479760   4.5554100
  33.7980410   6.3629990   4.7301790  35.0534340   5.5615720   5.0014400
  36.7415850  13.5188610   6.2308360  36.8663270  14.3419780   6.7032170
  37.6081410  13.3079340   5.8832510  24.2133380  15.6119820   5.9025490
  24.9495860  15.0635280   6.1734060  24.5974300  16.4775830   5.7631480
  21.0978860  11.6793390   1.7767000  20.1718640  11.9214530   1.7672410
  21.5635290  12.5067650   1.6551750  23.2191660  14.7965890  15.0911070
  24.0204390  15.1177940  15.5046470  22.7043480  14.4361470  15.8130980
  32.0556290  10.9045760  15.0386480  31.4494450  10.9277360  14.2982230
  31.7510400  10.1728800  15.5753730  33.4856660  14.6326050  13.6495890
  34.4378410  14.5484070  13.5996130  33.3384880  15.2967760  14.3229680
  20.9389470   7.2839350  14.0347120  21.4428490   6.7046630  14.6063350
  20.1996890   7.5679580  14.5723490  27.9927410   8.6910340  13.5682640
  27.2273080   9.2595340  13.4837310  28.1743370   8.3986550  12.6750870
  35.1350760  10.4215670  14.1257660  35.8760230  10.7591430  13.6225120
  34.3723440  10.5907730  13.5727430  22.9712550   5.4268940  14.9297190
  23.0117890   5.1282810  15.8382420  23.8258050   5.8276550  14.7704710
  24.9118360   4.0061040  12.8971680  24.3814820   3.5151990  12.2695020
  25.5806430   4.4345240  12.3629610  33.8096420   8.4730500  12.6612870
  34.2237440   8.6275580  13.5103290  32.8747420   8.5985720  12.8238650
  34.2818590   5.8126660  14.6652020  34.8639360   5.0578980  14.5772500
  34.4580360   6.3434100  13.8883500  28.5711650   8.4250980  10.6308800
  28.9899760   9.2683710  10.4585040  27.6520280   8.5623020  10.4015580
  30.9075550   6.1567160  12.0146640  31.0271760   5.5608300  12.7541480
  31.7669550   6.1936850  11.5947940  33.2463450   6.7104350  10.5909150
  32.7198670   7.2346970   9.9874290  33.5894790   7.3431740  11.2218880
  26.4219070  14.7303990  11.7466530  25.8840160  15.4550050  11.4275230
  26.6753030  14.2534330  10.9563870  27.6744320   2.6988510  13.2722460
  28.2644010   2.3904360  13.9600280  26.8564560   2.2268260  13.4282360
  32.4937750   2.3154320  13.5055480  31.8053270   1.6535860  13.4405470
  33.2143770   1.8692590  13.9503940  29.2781280  15.9655200  12.0053180
  29.2039980  16.8690340  12.3125550  28.3760120  15.6467100  11.9775250
  20.6808570  13.2929790   5.3086800  21.0111580  12.4250850   5.0765440
  21.1099570  13.4988310   6.1391760  25.2770490  11.6238800   2.9688770
  24.9766030  11.5003770   3.8692680  25.1707980  10.7647390   2.5604500
  21.1698780  14.1600380   8.0468430  20.7329770  14.3401180   8.8792580
  21.7376460  14.9175000   7.9050150  36.8060960  13.6617380  12.3345740
  36.2062950  13.7209940  11.5909660  36.9354860  12.7222360  12.4642590
  21.0023210   6.6720610   4.4057310  20.3472050   6.4032250   3.7617010
  21.8401160   6.5625090   3.9559290  38.5078840   9.0032780   5.0191580
  38.8787670   8.2200100   4.6127550  39.1480770   9.6921880   4.8408880
  35.4912600  10.3869360  10.4321900  34.6772440  10.8166520  10.6947690
  35.8986800  10.9987770   9.8190950  37.4503380   6.3786040   2.3251600
  37.0746980   5.6113970   1.8932890  36.7206500   6.7608740   2.8126530
  22.0399140   7.0573180   8.9460650  22.4072180   6.9700580   9.8256670
  21.4709960   6.2939730   8.8467510  36.8403000   5.5257560  11.9591120
  36.6089090   5.2970310  11.0589070  37.1007550   6.4457110  11.9136010
  21.5915140   3.9682270  12.8519070  20.6971190   3.9349030  13.1912780
  22.1312690   4.1669060  13.6170320  36.7254340   4.6043530   5.6258840
  37.2491820   4.1106180   4.9949010  37.3113760   4.7393890   6.3706410
  36.9044060   4.6883400   9.1478390  35.9546770   4.6546940   9.2623380
  37.0857070   5.5983510   8.9128160  37.6441470   2.4977830   4.0988930
  37.5340750   2.3433870   5.0371200  38.4049060   1.9698770   3.8564340
  35.5488650  15.1387960   3.9590170  36.1447720  14.8172530   3.2824590
  35.8066800  14.6659780   4.7503440  23.4551220  11.5705870  14.1080800
  23.4120850  11.1998780  14.9895260  23.5862230  12.5083440  14.2482620
  27.1557250  13.1265460   9.7090520  26.9148610  13.3940020   8.8221040
  28.0959890  13.2971190   9.7641380  38.4161410  15.1459840  10.5101160
  37.9219690  15.5428710   9.7928290  37.8074700  14.5209050  10.9038440
  23.2939250  14.5168120  11.2278580  22.6999570  14.3852820  11.9668620
  23.2863090  13.6806260  10.7620680  36.1000860  15.7883260   7.7887900
  35.6403830  16.5399070   7.4145920  35.4713320  15.0689730   7.7302700
  22.9251480  11.8826500  10.1786620  22.1985540  11.2631790  10.1112570
  22.9860630  12.2767110   9.3084700  26.5296580  14.0971500   6.9636030
  27.0461600  13.4858860   6.4384290  27.1793960  14.6000280   7.4547040
  29.2692080  14.9879990   7.7905010  29.5569890  14.7334290   6.9138020
  29.7815300  14.4357350   8.3810580  21.2081480  15.2000890   3.3883380
  21.0403520  14.5671570   4.0865270  20.3415990  15.4060290   3.0377570
  29.3364440  15.9096090  15.1573210  30.2631750  15.6740360  15.2009170
  29.3214870  16.7368090  14.6759240  35.9042000  15.1365950  14.9814250
  36.6967320  14.6415180  14.7740210  36.1975150  15.8156090  15.5889860
  13.2558170  81.1060850  79.7347750  13.1752220  80.1915460  79.4639460
  12.8422590  81.6027920  79.0287460  11.3876210  82.8839870  81.6157020
  10.6118310  82.4040310  81.9055590  12.0389140  82.2045520  81.4413180
   5.4042040  83.1959680  82.4932780   4.5726920  82.9408390  82.8929290
   6.0123020  83.2670450  83.2290700   3.8133990  78.1561570  76.2775170
   2.9250690  78.4977540  76.1755050   4.0975180  77.9561890  75.3856000
   1.7767000  80.7567220  82.1614870   2.3483110  79.9889420  82.1618510
   1.7768540  81.0555980  81.2521480  10.8285200  85.5597060  81.6227180
  10.7593480  84.6187000  81.4616310  11.5905060  85.6498470  82.1949750
   3.0191870  76.1651580  83.9483800   2.8394710  75.2677330  84.2286560
   2.6171950  76.7123450  84.6230750  11.8590370  78.3667440  81.8496110
  12.2355190  77.4939320  81.7369780  11.7609880  78.7026140  80.9586550
   5.9895380  76.7393070  77.3113550   6.0962130  77.6396800  77.6182310
   5.0787740  76.6911040  77.0208200  15.6414490  75.8617880  78.7824450
  16.4624110  75.3714450  78.8249930  15.6748570  76.4515540  79.5356290
   3.6378540  78.6612080  82.5566140   4.3188650  78.9250450  83.1753540
   3.3226590  77.8212950  82.8904150   7.8303110  79.7079440  81.6438730
   8.3381330  80.2060410  82.2843750   8.3616350  78.9314640  81.4678090
  19.9314040  77.8784630  85.3468080  19.2266210  78.2666340  84.8283190
  20.1971960  78.5734920  85.9489010   6.1139210  74.3478000  85.9102150
   6.1157650  74.8650390  85.1048050   5.2843520  73.8708180  85.8872080
  12.5010300  84.4597310  77.4092050  11.8827570  84.9246760  76.8454770
  13.0133550  85.1524790  77.8261560   7.3642060  83.9873180  84.0875650
   7.0311440  84.6142100  84.7296720   7.5408740  84.5135060  83.3077320
  15.8775970  77.8018260  81.5551990  15.1731540  78.0903150  82.1355100
  16.2388130  78.6118370  81.1951550   5.7954540  76.0587960  83.9172600
   6.1371350  76.9030010  83.6226470   4.8570350  76.2071700  84.0337940
   6.5761160  85.9553980  85.9024830   7.1935160  86.6305060  85.6209280
   5.7154280  86.3641960  85.8112330  18.9462890  77.2473050  81.9461200
  17.9987800  77.2812030  82.0776630  19.2712880  78.0612000  82.3310560
   9.4782430  73.5470230  80.2417190   9.7857410  72.9917120  79.5252690
   8.5483130  73.6814690  80.0590180  16.3242910  85.9853740  77.6214820
  16.2139240  85.0428070  77.7464240  16.3211160  86.3469380  78.5077580
  14.4282930  84.1667360  83.8607260  14.8451720  83.9527470  83.0260720
  15.1522750  84.4240150  84.4315880  11.8663190  81.6119060  76.9777310
  10.9392470  81.5456440  77.2065780  12.0188010  82.5499190  76.8632550
  11.8532270  77.8836060  73.9744470  10.9135940  78.0450020  74.0596930
  12.1715530  78.6021740  73.4280460  18.3745030  82.5654580  83.9523500
  17.5463660  82.6347670  83.4773630  18.9695510  83.1508890  83.4839330
  15.8960480  83.1739360  77.4812560  15.2772900  82.8358910  76.8338860
  15.8784930  82.5299120  78.1891750  15.3387040  79.3523900  84.8978370
  14.9258220  80.1777610  85.1518360  14.6062990  78.7668940  84.7054730
   7.4719830  82.1383800  79.7597040   7.0676830  81.4261050  79.2642940
   7.5582950  81.7937040  80.6485080   7.9401530  85.8251360  81.9236250
   7.6429820  85.2196830  81.2444030   8.8901350  85.8628670  81.8125610
   6.1848450  78.9127010  83.5396080   6.7363040  79.0222350  82.7649330
   6.6991960  79.2864610  84.2551310  14.0725180  82.4126170  74.4885310
  14.5118460  81.5748600  74.3423130  14.7853600  83.0455570  74.5749450
  17.6542320  73.6668980  72.8026350  17.3414980  73.7595810  73.7025420
  18.4154790  74.2450010  72.7523780   4.1724460  81.0328780  77.2603690
   4.0522060  81.7590870  76.6484960   3.8625350  80.2631690  76.7831600
   1.8109830  84.2043920  83.0672330   1.8890250  84.3392690  82.1228050
   2.4251510  83.4959810  83.2600450   3.0557460  85.9044110  79.4778510
   2.6485540  86.0458700  78.6232110   3.9470470  85.6204270  79.2749720
   6.6388120  74.3763850  80.6427360   6.1956270  75.1573390  80.3111880
   7.1973110  74.6993740  81.3498300   9.7546940  73.9974550  75.5233190
   9.1301120  73.9934420  76.2486500   9.6677060  73.1305510  75.1269160
   8.6764020  74.9211180  82.5016960   8.9736350  75.8274010  82.4208980
   9.2249580  74.4329960  81.8876530   6.4302340  79.4997420  78.3708610
   6.2043260  79.2834590  79.2755230   5.6494870  79.9325880  78.0254580
  13.6600100  79.5060790  76.9699260  13.0608990  80.2296590  76.7862880
  14.2079710  79.4437570  76.1875710  12.2664970  78.1424330  79.0002540
  12.6594540  78.4596530  78.1871230  12.6281820  77.2636210  79.1147060
  12.8520110  80.7330080  83.0953320  12.1201230  81.2416890  83.4443420
  12.4544450  79.9160060  82.7942100   9.2897500  77.4084280  81.5005810
   9.2933560  76.9674230  80.6510350  10.1848620  77.7301610  81.6077630
   5.1399880  77.2910770  80.4600020   4.7999930  77.7686000  81.2167070
   4.3777200  76.8375890  80.1001120   9.3517650  78.4096360  74.4912570
   9.4730470  78.3682840  75.4398390   8.9666160  79.2720510  74.3359300
  13.3146020  76.1863760  82.5076260  13.3318760  76.6372410  83.3518110
  13.0661600  75.2869400  82.7209700   8.3639150  80.7197500  73.8895870
   7.7956050  80.2715750  73.2631780   9.0728150  81.0790280  73.3561020
   9.5905470  81.4686060  83.2471220   9.9575600  80.9944630  83.9932560
   9.4010530  82.3427630  83.5879560   2.4545960  76.2129750  79.3764690
   2.1692880  75.8485420  80.2143310   2.3924820  75.4810210  78.7627830
   7.3804840  80.5094700  85.5655430   7.0761910  81.3886680  85.7905790
   8.3351300  80.5694490  85.6012870   5.9086630  84.7155690  76.1622280
   5.1348890  84.1753310  76.0021000   6.6381260  84.1962300  75.8240040
  16.6674610  83.7121050  81.9548670  17.3873730  84.2076340  81.5644780
  16.4656430  83.0338940  81.3102540  12.1284550  75.1059010  76.0978060
  11.3149160  74.6072180  76.0223370  11.9346500  75.9457260  75.6814410
  14.8432940  79.4778660  74.3940220  15.7312560  79.7895890  74.2191560
  14.8138030  78.6050910  74.0020800   5.9524030  84.3836070  79.8001090
   6.4702700  83.5804330  79.7457980   5.5008050  84.3215210  80.6417920
  10.8393530  85.6502350  75.0728390  11.1809230  86.3944580  74.5771710
  10.0106240  85.9633470  75.4353220  17.1147210  80.7890500  73.8620080
  17.0310930  81.2204720  73.0116520  17.8341400  81.2488850  74.2946900
  13.7220940  84.9718190  80.4373900  14.0744760  84.3746320  79.7775270
  12.8383270  84.6462420  80.6082150   9.8084220  85.7315880  77.8444310
  10.4955350  86.2785090  78.2251900   9.0216640  86.2756610  77.8793920
   9.1111430  82.7361910  77.4569670   9.5674210  83.5467160  77.6829860
   8.7599640  82.4185050  78.2888160   5.0123210  73.0799560  77.9292190
   4.8837840  73.0717460  78.8777110   4.1885230  73.4182650  77.5783200
  12.6876120  86.2500600  83.4039420  13.3298350  85.5493760  83.5171590
  13.2125470  87.0299040  83.2236310  16.5331840  86.5349220  73.1278560
  16.3069420  85.8179660  73.7203200  16.1428040  86.2861660  72.2900310
  16.1148090  84.4521160  74.7892720  15.8269790  84.9133850  75.5770600
  16.9100260  83.9918930  75.0576940   3.9323130  83.1662170  75.4643450
   3.3251080  83.9061070  75.4738750   4.4072480  83.2561530  74.6381650
  13.5055920  77.3312990  85.1400340  13.8736740  76.5108200  85.4679910
  12.6454120  77.3914880  85.5555990  16.8717950  76.2869930  75.9487900
  16.2431110  76.3915600  75.2346130  16.3769870  76.5066710  76.7381780
   8.8401980  78.5655880  77.3645780   8.1318130  79.0342220  77.8059390
   9.1246460  77.9077890  77.9990970  12.8717410  75.2906540  78.8041570
  12.7485190  75.3092670  77.8551080  13.8201970  75.3385480  78.9239970
   7.0437000  76.8740960  74.7396490   7.8927530  77.3111110  74.6736680
   6.6768270  77.1861220  75.5668550  15.9646780  81.4453720  79.6528060
  15.0236920  81.4603950  79.8275750  16.2790850  80.6589680  80.0988360
   5.9428420  83.1273320  73.2132020   6.7091690  83.0154680  73.7757450
   6.0203110  82.4311290  72.5608790   4.6375180  80.5598390  73.8964910
   4.7178770  79.6125900  74.0082310   5.5294930  80.8905270  74.0025570
   9.0669600  85.1027500  72.6867370   8.9620240  84.4879850  73.4128750
   8.8993820  84.5793390  71.9030380  12.3072330  84.1647530  73.2909360
  11.7582430  84.6116830  73.9352100  12.9291590  83.6596780  73.8147030
   7.9747450  83.1238450  75.1874660   8.3963870  82.9578320  76.0306050
   8.0998290  82.3138680  74.6929800  10.4875090  82.1476060  72.4351760
  11.0080750  81.4325080  72.0692910  11.1343490  82.7861930  72.7352270
   9.3908610  74.6270610  85.1070320   8.9425910  74.6494870  84.2615870
   8.7573810  74.2289630  85.7040620   9.7968160  83.5224940  85.7282760
  10.2156270  84.3657670  85.5559000   8.8776790  83.6596980  85.4989540
   6.8706350  79.1971680  72.1332820   6.6695410  78.3339040  72.4946160
   6.6998400  79.1105040  71.1954420  14.3494660  74.0079910  74.6619700
  14.6296950  73.1647810  75.0179120  13.5760390  74.2403020  75.1758450
   5.6689150  76.2972300  72.1210700   5.9715050  76.3039730  71.2129850
   6.4083740  75.9470160  72.6178360   8.8874080  75.2406920  73.1066900
   8.5396080  74.5630910  72.5269350   9.0886850  74.7796430  73.9210290
   4.6919280  85.6014720  72.9540500   5.1294150  86.1444390  73.6098080
   5.1767010  84.7761670  72.9636840   6.5027000  86.7212760  78.0662730
   6.2022540  86.5977730  78.9666640   6.3964490  85.8621350  77.6578460
  18.7275380  83.2456640  75.2723610  19.4894290  83.8153290  75.3783300
  18.7429750  82.6783840  76.0431920   2.2279720  81.7694570  79.5031270
   1.5728560  81.5006210  78.8590970   3.0657670  81.6599050  79.0533250
  19.7335350  84.1006740  80.1165540  20.1044180  83.3174060  79.7101510
  20.3737280  84.7895840  79.9382840  16.7169110  85.4843320  85.5295860
  15.9028950  85.9140480  85.7921650  17.1243310  86.0961730  84.9164910
  18.7794550  83.5391010  72.4296130  19.0543390  84.4469890  72.3015350
  18.5905290  83.4753540  73.3658120  15.1770160  76.5635860  73.7249760
  15.5955040  76.3766840  72.8846420  14.8706220  75.7114910  74.0352690
  18.6759890  81.4760000  77.4225560  18.3003490  80.7087930  76.9906850
  17.9463010  81.8582700  77.9100490   3.2655650  82.1547140  84.0434610
   3.6328690  82.0674540  84.9230630   2.6966470  81.3913690  83.9441470
  17.9510850  79.7017490  80.7232800  18.4748330  79.2080140  80.0922970
  18.5370270  79.8367850  81.4680370  18.1300570  79.7857360  84.2452350
  17.1803280  79.7520900  84.3597340  18.3113580  80.6957470  84.0102120
   3.9845010  78.0359040  73.3550980   4.6936710  77.6142260  72.8698260
   3.2684950  78.1034270  72.7234330   3.6319170  74.0898370  72.3953630
   4.3547300  74.6307310  72.7134850   3.9043690  73.8161790  71.5195170
  17.4410820  78.9590840  76.6625210  17.9369940  78.7261710  77.4474090
  17.2426890  78.1202680  76.2462850   3.3211360  73.3404560  82.2976250
   3.9687550  72.7901940  81.8571410   3.7413200  73.5947710  83.1192060
  18.8697980  77.5951790  79.1962890  18.7597260  77.4407830  80.1345160
  19.6305570  77.0672730  78.9538300  19.7588250  75.4259710  72.4369030
  20.6837560  75.2940890  72.2287320  19.7364040  75.5052530  73.3905480
  19.8326740  76.1970370  75.0625740  19.0378240  76.1315490  75.5918650
  20.0370020  77.1321010  75.0511090   3.0743360  73.4960230  85.0401570
   2.7258180  73.9524050  85.8059750   2.7431060  72.6017360  85.1224000
  13.9650780  72.9074310  84.5282570  13.0910620  73.2409420  84.3255500
  13.8561530  72.4347490  85.3534440  14.8722760  75.1145180  85.9124290
  14.5436120  74.2996940  85.5326020  15.8205060  75.0714990  85.7889980
  11.7125600  73.8244150  83.4675480  10.9297390  74.2989650  83.7472240
  11.4188530  72.9198980  83.3588660  16.2646670  74.5267250  81.5124570
  16.7054760  74.4712350  80.6646170  15.9954260  75.4425260  81.5834750
  18.1285240  74.1582490  79.5233390  18.0673640  73.2143710  79.3764410
  18.9077270  74.2662580  80.0686850   3.0566010  74.1291630  75.9889200
   3.8145370  74.2420510  75.4153230   2.5943180  74.9660830  75.9432630
   9.5979820  76.2430900  78.9791510   8.7854330  75.8687790  78.6387390
  10.1021460  75.4875980  79.2812700  14.1004800  72.9073350  80.2174580
  14.7034170  73.4793560  80.6923100  13.3597790  73.4712790  79.9948480
  17.2439400  73.3094910  75.4914860  17.4390030  74.2078360  75.7582290
  16.4569270  73.0781990  75.9847810   5.4291160  74.6555680  74.5291170
   5.9583920  73.8685480  74.3999120   6.0619480  75.3346870  74.7626700
   7.6229000  74.3930820  77.5836560   6.9931740  73.6918130  77.7506690
   7.0834140  75.1534950  77.3669720  13.2558170  81.1060850  60.9604260
  13.1752220  80.1915460  60.6895970  12.8422590  81.6027920  60.2543970
  11.3876210  82.8839870  62.8413530  10.6118310  82.4040310  63.1312100
  12.0389140  82.2045520  62.6669690   5.4042040  83.1959680  63.7189290
   4.5726920  82.9408390  64.1185800   6.0123020  83.2670450  64.4547210
   3.8133990  78.1561570  57.5031680   2.9250690  78.4977540  57.4011560
   4.0975180  77.9561890  56.6112510   1.7767000  80.7567220  63.3871380
   2.3483110  79.9889420  63.3875020   1.7768540  81.0555980  62.4777990
  10.8285200  85.5597060  62.8483690  10.7593480  84.6187000  62.6872820
  11.5905060  85.6498470  63.4206260   3.0191870  76.1651580  65.1740310
   2.8394710  75.2677330  65.4543070   2.6171950  76.7123450  65.8487260
  11.8590370  78.3667440  63.0752620  12.2355190  77.4939320  62.9626290
  11.7609880  78.7026140  62.1843060   5.9895380  76.7393070  58.5370060
   6.0962130  77.6396800  58.8438820   5.0787740  76.6911040  58.2464710
  15.6414490  75.8617880  60.0080960  16.4624110  75.3714450  60.0506440
  15.6748570  76.4515540  60.7612800   3.6378540  78.6612080  63.7822650
   4.3188650  78.9250450  64.4010050   3.3226590  77.8212950  64.1160660
   7.8303110  79.7079440  62.8695240   8.3381330  80.2060410  63.5100260
   8.3616350  78.9314640  62.6934600  19.9314040  77.8784630  66.5724590
  19.2266210  78.2666340  66.0539700  20.1971960  78.5734920  67.1745520
   6.1139210  74.3478000  67.1358660   6.1157650  74.8650390  66.3304560
   5.2843520  73.8708180  67.1128590  12.5010300  84.4597310  58.6348560
  11.8827570  84.9246760  58.0711280  13.0133550  85.1524790  59.0518070
   7.3642060  83.9873180  65.3132160   7.0311440  84.6142100  65.9553230
   7.5408740  84.5135060  64.5333830  15.8775970  77.8018260  62.7808500
  15.1731540  78.0903150  63.3611610  16.2388130  78.6118370  62.4208060
   5.7954540  76.0587960  65.1429110   6.1371350  76.9030010  64.8482980
   4.8570350  76.2071700  65.2594450   6.5761160  85.9553980  67.1281340
   7.1935160  86.6305060  66.8465790   5.7154280  86.3641960  67.0368840
  18.9462890  77.2473050  63.1717710  17.9987800  77.2812030  63.3033140
  19.2712880  78.0612000  63.5567070   9.4782430  73.5470230  61.4673700
   9.7857410  72.9917120  60.7509200   8.5483130  73.6814690  61.2846690
  16.3242910  85.9853740  58.8471330  16.2139240  85.0428070  58.9720750
  16.3211160  86.3469380  59.7334090  14.4282930  84.1667360  65.0863770
  14.8451720  83.9527470  64.2517230  15.1522750  84.4240150  65.6572390
  11.8663190  81.6119060  58.2033820  10.9392470  81.5456440  58.4322290
  12.0188010  82.5499190  58.0889060  11.8532270  77.8836060  55.2000980
  10.9135940  78.0450020  55.2853440  12.1715530  78.6021740  54.6536970
  18.3745030  82.5654580  65.1780010  17.5463660  82.6347670  64.7030140
  18.9695510  83.1508890  64.7095840  15.8960480  83.1739360  58.7069070
  15.2772900  82.8358910  58.0595370  15.8784930  82.5299120  59.4148260
  15.3387040  79.3523900  66.1234880  14.9258220  80.1777610  66.3774870
  14.6062990  78.7668940  65.9311240   7.4719830  82.1383800  60.9853550
   7.0676830  81.4261050  60.4899450   7.5582950  81.7937040  61.8741590
   7.9401530  85.8251360  63.1492760   7.6429820  85.2196830  62.4700540
   8.8901350  85.8628670  63.0382120   6.1848450  78.9127010  64.7652590
   6.7363040  79.0222350  63.9905840   6.6991960  79.2864610  65.4807820
   7.0319960  85.5633050  69.8000560   6.1348490  85.7873020  70.0473960
   7.0572830  85.6867990  68.8511960  14.0725180  82.4126170  55.7141820
  14.5118460  81.5748600  55.5679640  14.7853600  83.0455570  55.8005960
   5.8591180  82.4346370  68.3757930   5.7198950  83.3069170  68.7445330
   4.9772540  82.0919180  68.2305870  17.6542320  73.6668980  54.0282860
  17.3414980  73.7595810  54.9281930  18.4154790  74.2450010  53.9780290
   4.1724460  81.0328780  58.4860200   4.0522060  81.7590870  57.8741470
   3.8625350  80.2631690  58.0088110   1.8109830  84.2043920  64.2928840
   1.8890250  84.3392690  63.3484560   2.4251510  83.4959810  64.4856960
   3.0557460  85.9044110  60.7035020   2.6485540  86.0458700  59.8488620
   3.9470470  85.6204270  60.5006230  19.0119600  86.3508020  69.0407260
  19.1382660  86.1119900  68.1224440  19.0540980  85.5192560  69.5129340
  18.8643610  78.4040480  70.0057000  18.2487880  78.9120150  69.4772460
  18.5440030  77.5038810  69.9482940   1.8669350  85.2458090  66.8323300
   2.0300390  84.7763450  66.0142670   2.3321800  84.7381650  67.4972140
   6.6388120  74.3763850  61.8683870   6.1956270  75.1573390  61.5368390
   7.1973110  74.6993740  62.5754810  10.9257930  77.2432370  67.4719190
  10.4637300  77.4515390  68.2839130  10.5236040  76.4291720  67.1689860
  15.9262440  78.4641320  68.6015850  15.0756030  78.1647070  68.9224920
  15.7664230  78.7083330  67.6899670  13.0212150  79.9643070  70.7014640
  13.3465560  79.1306820  70.3616870  13.8092480  80.4871590  70.8492970
   9.7546940  73.9974550  56.7489700   9.1301120  73.9934420  57.4743010
   9.6677060  73.1305510  56.3525670   8.6764020  74.9211180  63.7273470
   8.9736350  75.8274010  63.6465490   9.2249580  74.4329960  63.1133040
   6.4302340  79.4997420  59.5965120   6.2043260  79.2834590  60.5011740
   5.6494870  79.9325880  59.2511090  13.6600100  79.5060790  58.1955770
  13.0608990  80.2296590  58.0119390  14.2079710  79.4437570  57.4132220
   8.8701550  80.3983000  70.2625390   8.7745150  79.4577730  70.1125790
   9.7133530  80.6198070  69.8673460  12.2664970  78.1424330  60.2259050
  12.6594540  78.4596530  59.4127740  12.6281820  77.2636210  60.3403570
   4.0012090  76.8096670  68.4159170   3.6075480  77.6571880  68.6231950
   3.3130490  76.1723040  68.6067810  10.5757140  76.8931640  71.4855910
   9.8855460  76.7003840  72.1202000  11.3189440  77.1766280  72.0180210
  12.8520110  80.7330080  64.3209830  12.1201230  81.2416890  64.6699930
  12.4544450  79.9160060  64.0198610   9.2897500  77.4084280  62.7262320
   9.2933560  76.9674230  61.8766860  10.1848620  77.7301610  62.8334140
   5.1399880  77.2910770  61.6856530   4.7999930  77.7686000  62.4423580
   4.3777200  76.8375890  61.3257630   9.3517650  78.4096360  55.7169080
   9.4730470  78.3682840  56.6654900   8.9666160  79.2720510  55.5615810
  13.3146020  76.1863760  63.7332770  13.3318760  76.6372410  64.5774620
  13.0661600  75.2869400  63.9466210   8.3639150  80.7197500  55.1152380
   7.7956050  80.2715750  54.4888290   9.0728150  81.0790280  54.5817530
  16.7416770  73.5995940  69.5719150  17.0662540  72.8685600  70.0977130
  16.7773280  73.2809580  68.6700140   3.4408330  84.6209520  68.9919110
   3.0563120  83.9803190  69.5902070   3.7520520  85.3245640  69.5613840
   9.5905470  81.4686060  64.4727730   9.9575600  80.9944630  65.2189070
   9.4010530  82.3427630  64.8136070   2.4545960  76.2129750  60.6021200
   2.1692880  75.8485420  61.4399820   2.3924820  75.4810210  59.9884340
   7.3804840  80.5094700  66.7911940   7.0761910  81.3886680  67.0162300
   8.3351300  80.5694490  66.8269380   5.9086630  84.7155690  57.3878790
   5.1348890  84.1753310  57.2277510   6.6381260  84.1962300  57.0496550
  16.6674610  83.7121050  63.1805180  17.3873730  84.2076340  62.7901290
  16.4656430  83.0338940  62.5359050  12.1284550  75.1059010  57.3234570
  11.3149160  74.6072180  57.2479880  11.9346500  75.9457260  56.9070920
  12.0493410  83.7830110  69.0674180  11.9830720  82.8625780  68.8131770
  11.4198550  83.8805550  69.7818820  14.8432940  79.4778660  55.6196730
  15.7312560  79.7895890  55.4448070  14.8138030  78.6050910  55.2277310
   5.9524030  84.3836070  61.0257600   6.4702700  83.5804330  60.9714490
   5.5008050  84.3215210  61.8674430  10.8393530  85.6502350  56.2984900
  11.1809230  86.3944580  55.8028220  10.0106240  85.9633470  56.6609730
   3.4368570  81.3497440  67.9383300   3.0783510  82.0151290  68.5256640
   3.1423130  80.5180990  68.3095920   6.6381690  81.8081680  70.8222850
   6.3381830  81.9538860  69.9250670   7.4092930  81.2486970  70.7296240
  11.9810140  86.6050680  68.8177980  11.9954680  85.6731640  68.5996890
  11.2735240  86.6910440  69.4567750  17.1147210  80.7890500  55.0876590
  17.0310930  81.2204720  54.2373030  17.8341400  81.2488850  55.5203410
  18.1921350  83.2458020  68.1646560  17.4669540  83.8386800  67.9675950
  18.7196810  83.2381560  67.3659930  13.7220940  84.9718190  61.6630410
  14.0744760  84.3746320  61.0031780  12.8383270  84.6462420  61.8338660
   9.8084220  85.7315880  59.0700820  10.4955350  86.2785090  59.4508410
   9.0216640  86.2756610  59.1050430   9.1111430  82.7361910  58.6826180
   9.5674210  83.5467160  58.9086370   8.7599640  82.4185050  59.5144670
   5.0123210  73.0799560  59.1548700   4.8837840  73.0717460  60.1033620
   4.1885230  73.4182650  58.8039710  12.6876120  86.2500600  64.6295930
  13.3298350  85.5493760  64.7428100  13.2125470  87.0299040  64.4492820
  16.5331840  86.5349220  54.3535070  16.3069420  85.8179660  54.9459710
  16.1428040  86.2861660  53.5156820  16.1148090  84.4521160  56.0149230
  15.8269790  84.9133850  56.8027110  16.9100260  83.9918930  56.2833450
   3.9323130  83.1662170  56.6899960   3.3251080  83.9061070  56.6995260
   4.4072480  83.2561530  55.8638160  13.5055920  77.3312990  66.3656850
  13.8736740  76.5108200  66.6936420  12.6454120  77.3914880  66.7812500
  16.8717950  76.2869930  57.1744410  16.2431110  76.3915600  56.4602640
  16.3769870  76.5066710  57.9638290   8.8401980  78.5655880  58.5902290
   8.1318130  79.0342220  59.0315900   9.1246460  77.9077890  59.2247480
  10.4657910  79.9852580  66.5894820  10.9643160  80.4598400  67.2546670
  10.6080860  79.0616100  66.7964850  12.8717410  75.2906540  60.0298080
  12.7485190  75.3092670  59.0807590  13.8201970  75.3385480  60.1496480
   7.0437000  76.8740960  55.9653000   7.8927530  77.3111110  55.8993190
   6.6768270  77.1861220  56.7925060  17.6724770  76.2020540  67.4323210
  17.1698370  76.9425940  67.7717020  18.4881430  76.5904540  67.1160000
  15.9646780  81.4453720  60.8784570  15.0236920  81.4603950  61.0532260
  16.2790850  80.6589680  61.3244870   5.9428420  83.1273320  54.4388530
   6.7091690  83.0154680  55.0013960   6.0203110  82.4311290  53.7865300
   4.6375180  80.5598390  55.1221420   4.7178770  79.6125900  55.2338820
   5.5294930  80.8905270  55.2282080  13.2812800  86.0019720  71.3616950
  12.6750960  86.0251320  70.6212700  12.9766910  85.2702760  71.8984200
   9.0669600  85.1027500  53.9123880   8.9620240  84.4879850  54.6385260
   8.8993820  84.5793390  53.1286890   9.2183920  83.7884300  69.8913110
   8.4529590  84.3569300  69.8067780   9.3999880  83.4960510  68.9981340
  12.3072330  84.1647530  54.5165870  11.7582430  84.6116830  55.1608610
  12.9291590  83.6596780  55.0403540  16.3607270  85.5189630  70.4488130
  17.1016740  85.8565390  69.9455590  15.5979950  85.6881690  69.8957900
   4.1969060  80.5242900  71.2527660   4.2374400  80.2256770  72.1612890
   5.0514560  80.9250510  71.0935180   7.9747450  83.1238450  56.4131170
   8.3963870  82.9578320  57.2562560   8.0998290  82.3138680  55.9186310
   6.1374870  79.1035000  69.2202150   5.6071330  78.6125950  68.5925490
   6.8062940  79.5319200  68.6860080  10.4875090  82.1476060  53.6608270
  11.0080750  81.4325080  53.2949420  11.1343490  82.7861930  53.9608780
  15.0352930  83.5704460  68.9843340  15.4493950  83.7249540  69.8333760
  14.1003930  83.6959680  69.1469120  15.5075100  80.9100620  70.9882490
  16.0895870  80.1552940  70.9002970  15.6836870  81.4408060  70.2113970
   6.6247170  76.0697370  69.2999440   6.5304040  75.4518120  68.5750310
   6.0444560  76.7963660  69.0729350   9.3908610  74.6270610  66.3326830
   8.9425910  74.6494870  65.4872380   8.7573810  74.2289630  66.9297130
   9.7968160  83.5224940  66.9539270  10.2156270  84.3657670  66.7815510
   8.8776790  83.6596980  66.7246050  12.1332060  81.2541120  68.3377110
  12.2528270  80.6582260  69.0771950  12.9926060  81.2910810  67.9178410
  14.4719960  81.8078310  66.9139620  13.9455180  82.3320930  66.3104760
  14.8151300  82.4405700  67.5449350   6.8706350  79.1971680  53.3589330
   6.6695410  78.3339040  53.7202670   6.6998400  79.1105040  52.4210930
   8.9000830  77.7962470  69.5952930   9.4900520  77.4878320  70.2830750
   8.0821070  77.3242220  69.7512830  13.7194260  77.4128280  69.8285950
  13.0309780  76.7509820  69.7635940  14.4400280  76.9666550  70.2734410
  14.3494660  74.0079910  55.8876210  14.6296950  73.1647810  56.2435630
  13.5760390  74.2403020  56.4014960   5.6689150  76.2972300  53.3467210
   5.9715050  76.3039730  52.4386360   6.4083740  75.9470160  53.8434870
   8.8874080  75.2406920  54.3323410   8.5396080  74.5630910  53.7525860
   9.0886850  74.7796430  55.1466800   4.6919280  85.6014720  54.1797010
   5.1294150  86.1444390  54.8354590   5.1767010  84.7761670  54.1893350
   6.5027000  86.7212760  59.2919240   6.2022540  86.5977730  60.1923150
   6.3964490  85.8621350  58.8834970  18.7275380  83.2456640  56.4980120
  19.4894290  83.8153290  56.6039810  18.7429750  82.6783840  57.2688430
   2.2279720  81.7694570  60.7287780   1.5728560  81.5006210  60.0847480
   3.0657670  81.6599050  60.2789760  19.7335350  84.1006740  61.3422050
  20.1044180  83.3174060  60.9358020  20.3737280  84.7895840  61.1639350
  16.7169110  85.4843320  66.7552370  15.9028950  85.9140480  67.0178160
  17.1243310  86.0961730  66.1421420  18.7794550  83.5391010  53.6552640
  19.0543390  84.4469890  53.5271860  18.5905290  83.4753540  54.5914630
  15.1770160  76.5635860  54.9506270  15.5955040  76.3766840  54.1102930
  14.8706220  75.7114910  55.2609200  18.6759890  81.4760000  58.6482070
  18.3003490  80.7087930  58.2163360  17.9463010  81.8582700  59.1357000
   3.2655650  82.1547140  65.2691120   3.6328690  82.0674540  66.1487140
   2.6966470  81.3913690  65.1697980  18.0659510  80.6231520  68.2821590
  17.8345600  80.3944270  67.3819540  18.3264060  81.5431070  68.2366480
   2.8171650  79.0656230  69.1749540   1.9227700  79.0322990  69.5143250
   3.3569200  79.2643020  69.9400790  16.5047580  75.8487950  71.0601290
  17.3817760  75.8571350  71.4435290  16.5168420  75.1118790  70.4493640
  17.9510850  79.7017490  61.9489310  18.4748330  79.2080140  61.3179480
  18.5370270  79.8367850  62.6936880  18.1300570  79.7857360  65.4708860
  17.1803280  79.7520900  65.5853850  18.3113580  80.6957470  65.2358630
   3.9845010  78.0359040  54.5807490   4.6936710  77.6142260  54.0954770
   3.2684950  78.1034270  53.9490840   3.6319170  74.0898370  53.6210140
   4.3547300  74.6307310  53.9391360   3.9043690  73.8161790  52.7451680
  17.4410820  78.9590840  57.8881720  17.9369940  78.7261710  58.6730600
  17.2426890  78.1202680  57.4719360   3.3211360  73.3404560  63.5232760
   3.9687550  72.7901940  63.0827920   3.7413200  73.5947710  64.3448570
  18.8697980  77.5951790  60.4219400  18.7597260  77.4407830  61.3601670
  19.6305570  77.0672730  60.1794810  17.2163700  73.5345920  66.8802400
  17.8535920  74.1480060  67.2461590  17.3638590  73.5706580  65.9351630
  19.7588250  75.4259710  53.6625540  20.6837560  75.2940890  53.4543830
  19.7364040  75.5052530  54.6161990  19.8326740  76.1970370  56.2882250
  19.0378240  76.1315490  56.8175160  20.0370020  77.1321010  56.2767600
   3.0743360  73.4960230  66.2658080   2.7258180  73.9524050  67.0316260
   2.7431060  72.6017360  66.3480510  10.5868180  74.6872110  69.7877500
  10.5257070  75.2793940  70.5372910  11.5268560  74.5798070  69.6427760
  13.2242740  74.3442170  69.4269790  13.8383150  74.6621460  68.7650870
  13.7692300  73.8590760  70.0465650   3.7464000  73.0236430  69.5408850
   4.2946990  72.8424480  68.7774960   3.8119310  72.2330540  70.0765160
  13.9650780  72.9074310  65.7539080  13.0910620  73.2409420  65.5512010
  13.8561530  72.4347490  66.5790950  14.8722760  75.1145180  67.1380800
  14.5436120  74.2996940  66.7582530  15.8205060  75.0714990  67.0146490
  11.7125600  73.8244150  64.6931990  10.9297390  74.2989650  64.9728750
  11.4188530  72.9198980  64.5845170  16.2646670  74.5267250  62.7381080
  16.7054760  74.4712350  61.8902680  15.9954260  75.4425260  62.8091260
  18.1285240  74.1582490  60.7489900  18.0673640  73.2143710  60.6020920
  18.9077270  74.2662580  61.2943360   3.0566010  74.1291630  57.2145710
   3.8145370  74.2420510  56.6409740   2.5943180  74.9660830  57.1689140
   9.5979820  76.2430900  60.2048020   8.7854330  75.8687790  59.8643900
  10.1021460  75.4875980  60.5069210  14.1004800  72.9073350  61.4431090
  14.7034170  73.4793560  61.9179610  13.3597790  73.4712790  61.2204990
  17.2439400  73.3094910  56.7171370  17.4390030  74.2078360  56.9838800
  16.4569270  73.0781990  57.2104320   5.4291160  74.6555680  55.7547680
   5.9583920  73.8685480  55.6255630   6.0619480  75.3346870  55.9883210
   7.6229000  74.3930820  58.8093070   6.9931740  73.6918130  58.9763200
   7.0834140  75.1534950  58.5926230   7.7484560  73.6714800  71.2445560
   7.4668830  74.1748400  70.4806380   8.1304260  72.8736550  70.8787690
  14.3500020  73.0868380  71.8226030  14.2365470  73.4062990  72.7177550
  15.1669760  73.4880890  71.5263310  13.2558170  81.1060850  42.1860770
  13.1752220  80.1915460  41.9152480  12.8422590  81.6027920  41.4800480
  11.3876210  82.8839870  44.0670040  10.6118310  82.4040310  44.3568610
  12.0389140  82.2045520  43.8926200   5.4042040  83.1959680  44.9445800
   4.5726920  82.9408390  45.3442310   6.0123020  83.2670450  45.6803720
   3.8133990  78.1561570  38.7288190   2.9250690  78.4977540  38.6268070
   4.0975180  77.9561890  37.8369020   1.7767000  80.7567220  44.6127890
   2.3483110  79.9889420  44.6131530   1.7768540  81.0555980  43.7034500
  10.8285200  85.5597060  44.0740200  10.7593480  84.6187000  43.9129330
  11.5905060  85.6498470  44.6462770   3.0191870  76.1651580  46.3996820
   2.8394710  75.2677330  46.6799580   2.6171950  76.7123450  47.0743770
  11.8590370  78.3667440  44.3009130  12.2355190  77.4939320  44.1882800
  11.7609880  78.7026140  43.4099570   5.9895380  76.7393070  39.7626570
   6.0962130  77.6396800  40.0695330   5.0787740  76.6911040  39.4721220
  15.6414490  75.8617880  41.2337470  16.4624110  75.3714450  41.2762950
  15.6748570  76.4515540  41.9869310   3.6378540  78.6612080  45.0079160
   4.3188650  78.9250450  45.6266560   3.3226590  77.8212950  45.3417170
   7.8303110  79.7079440  44.0951750   8.3381330  80.2060410  44.7356770
   8.3616350  78.9314640  43.9191110  19.9314040  77.8784630  47.7981100
  19.2266210  78.2666340  47.2796210  20.1971960  78.5734920  48.4002030
   6.1139210  74.3478000  48.3615170   6.1157650  74.8650390  47.5561070
   5.2843520  73.8708180  48.3385100  12.5010300  84.4597310  39.8605070
  11.8827570  84.9246760  39.2967790  13.0133550  85.1524790  40.2774580
   7.3642060  83.9873180  46.5388670   7.0311440  84.6142100  47.1809740
   7.5408740  84.5135060  45.7590340  15.8775970  77.8018260  44.0065010
  15.1731540  78.0903150  44.5868120  16.2388130  78.6118370  43.6464570
   5.7954540  76.0587960  46.3685620   6.1371350  76.9030010  46.0739490
   4.8570350  76.2071700  46.4850960   6.5761160  85.9553980  48.3537850
   7.1935160  86.6305060  48.0722300   5.7154280  86.3641960  48.2625350
  18.9462890  77.2473050  44.3974220  17.9987800  77.2812030  44.5289650
  19.2712880  78.0612000  44.7823580   9.4782430  73.5470230  42.6930210
   9.7857410  72.9917120  41.9765710   8.5483130  73.6814690  42.5103200
  16.3242910  85.9853740  40.0727840  16.2139240  85.0428070  40.1977260
  16.3211160  86.3469380  40.9590600  14.4282930  84.1667360  46.3120280
  14.8451720  83.9527470  45.4773740  15.1522750  84.4240150  46.8828900
  11.8663190  81.6119060  39.4290330  10.9392470  81.5456440  39.6578800
  12.0188010  82.5499190  39.3145570  11.8532270  77.8836060  36.4257490
  10.9135940  78.0450020  36.5109950  12.1715530  78.6021740  35.8793480
  18.3745030  82.5654580  46.4036520  17.5463660  82.6347670  45.9286650
  18.9695510  83.1508890  45.9352350  15.8960480  83.1739360  39.9325580
  15.2772900  82.8358910  39.2851880  15.8784930  82.5299120  40.6404770
  15.3387040  79.3523900  47.3491390  14.9258220  80.1777610  47.6031380
  14.6062990  78.7668940  47.1567750   7.4719830  82.1383800  42.2110060
   7.0676830  81.4261050  41.7155960   7.5582950  81.7937040  43.0998100
   7.9401530  85.8251360  44.3749270   7.6429820  85.2196830  43.6957050
   8.8901350  85.8628670  44.2638630   6.1848450  78.9127010  45.9909100
   6.7363040  79.0222350  45.2162350   6.6991960  79.2864610  46.7064330
   7.0319960  85.5633050  51.0257070   6.1348490  85.7873020  51.2730470
   7.0572830  85.6867990  50.0768470  14.0725180  82.4126170  36.9398330
  14.5118460  81.5748600  36.7936150  14.7853600  83.0455570  37.0262470
   5.8591180  82.4346370  49.6014440   5.7198950  83.3069170  49.9701840
   4.9772540  82.0919180  49.4562380  17.6542320  73.6668980  35.2539370
  17.3414980  73.7595810  36.1538440  18.4154790  74.2450010  35.2036800
   4.1724460  81.0328780  39.7116710   4.0522060  81.7590870  39.0997980
   3.8625350  80.2631690  39.2344620   1.8109830  84.2043920  45.5185350
   1.8890250  84.3392690  44.5741070   2.4251510  83.4959810  45.7113470
   3.0557460  85.9044110  41.9291530   2.6485540  86.0458700  41.0745130
   3.9470470  85.6204270  41.7262740  19.0119600  86.3508020  50.2663770
  19.1382660  86.1119900  49.3480950  19.0540980  85.5192560  50.7385850
  18.8643610  78.4040480  51.2313510  18.2487880  78.9120150  50.7028970
  18.5440030  77.5038810  51.1739450   1.8669350  85.2458090  48.0579810
   2.0300390  84.7763450  47.2399180   2.3321800  84.7381650  48.7228650
   6.6388120  74.3763850  43.0940380   6.1956270  75.1573390  42.7624900
   7.1973110  74.6993740  43.8011320  10.9257930  77.2432370  48.6975700
  10.4637300  77.4515390  49.5095640  10.5236040  76.4291720  48.3946370
  15.9262440  78.4641320  49.8272360  15.0756030  78.1647070  50.1481430
  15.7664230  78.7083330  48.9156180  13.0212150  79.9643070  51.9271150
  13.3465560  79.1306820  51.5873380  13.8092480  80.4871590  52.0749480
   9.7546940  73.9974550  37.9746210   9.1301120  73.9934420  38.6999520
   9.6677060  73.1305510  37.5782180   8.6764020  74.9211180  44.9529980
   8.9736350  75.8274010  44.8722000   9.2249580  74.4329960  44.3389550
   6.4302340  79.4997420  40.8221630   6.2043260  79.2834590  41.7268250
   5.6494870  79.9325880  40.4767600  13.6600100  79.5060790  39.4212280
  13.0608990  80.2296590  39.2375900  14.2079710  79.4437570  38.6388730
   8.8701550  80.3983000  51.4881900   8.7745150  79.4577730  51.3382300
   9.7133530  80.6198070  51.0929970  12.2664970  78.1424330  41.4515560
  12.6594540  78.4596530  40.6384250  12.6281820  77.2636210  41.5660080
   4.0012090  76.8096670  49.6415680   3.6075480  77.6571880  49.8488460
   3.3130490  76.1723040  49.8324320  10.5757140  76.8931640  52.7112420
   9.8855460  76.7003840  53.3458510  11.3189440  77.1766280  53.2436720
  12.8520110  80.7330080  45.5466340  12.1201230  81.2416890  45.8956440
  12.4544450  79.9160060  45.2455120   9.2897500  77.4084280  43.9518830
   9.2933560  76.9674230  43.1023370  10.1848620  77.7301610  44.0590650
   5.1399880  77.2910770  42.9113040   4.7999930  77.7686000  43.6680090
   4.3777200  76.8375890  42.5514140   9.3517650  78.4096360  36.9425590
   9.4730470  78.3682840  37.8911410   8.9666160  79.2720510  36.7872320
  13.3146020  76.1863760  44.9589280  13.3318760  76.6372410  45.8031130
  13.0661600  75.2869400  45.1722720   8.3639150  80.7197500  36.3408890
   7.7956050  80.2715750  35.7144800   9.0728150  81.0790280  35.8074040
  16.7416770  73.5995940  50.7975660  17.0662540  72.8685600  51.3233640
  16.7773280  73.2809580  49.8956650   3.4408330  84.6209520  50.2175620
   3.0563120  83.9803190  50.8158580   3.7520520  85.3245640  50.7870350
   9.5905470  81.4686060  45.6984240   9.9575600  80.9944630  46.4445580
   9.4010530  82.3427630  46.0392580   2.4545960  76.2129750  41.8277710
   2.1692880  75.8485420  42.6656330   2.3924820  75.4810210  41.2140850
   7.3804840  80.5094700  48.0168450   7.0761910  81.3886680  48.2418810
   8.3351300  80.5694490  48.0525890   5.9086630  84.7155690  38.6135300
   5.1348890  84.1753310  38.4534020   6.6381260  84.1962300  38.2753060
  16.6674610  83.7121050  44.4061690  17.3873730  84.2076340  44.0157800
  16.4656430  83.0338940  43.7615560  12.1284550  75.1059010  38.5491080
  11.3149160  74.6072180  38.4736390  11.9346500  75.9457260  38.1327430
  12.0493410  83.7830110  50.2930690  11.9830720  82.8625780  50.0388280
  11.4198550  83.8805550  51.0075330  14.8432940  79.4778660  36.8453240
  15.7312560  79.7895890  36.6704580  14.8138030  78.6050910  36.4533820
   5.9524030  84.3836070  42.2514110   6.4702700  83.5804330  42.1971000
   5.5008050  84.3215210  43.0930940  10.8393530  85.6502350  37.5241410
  11.1809230  86.3944580  37.0284730  10.0106240  85.9633470  37.8866240
   3.4368570  81.3497440  49.1639810   3.0783510  82.0151290  49.7513150
   3.1423130  80.5180990  49.5352430   6.6381690  81.8081680  52.0479360
   6.3381830  81.9538860  51.1507180   7.4092930  81.2486970  51.9552750
  11.9810140  86.6050680  50.0434490  11.9954680  85.6731640  49.8253400
  11.2735240  86.6910440  50.6824260  17.1147210  80.7890500  36.3133100
  17.0310930  81.2204720  35.4629540  17.8341400  81.2488850  36.7459920
  18.1921350  83.2458020  49.3903070  17.4669540  83.8386800  49.1932460
  18.7196810  83.2381560  48.5916440  13.7220940  84.9718190  42.8886920
  14.0744760  84.3746320  42.2288290  12.8383270  84.6462420  43.0595170
   9.8084220  85.7315880  40.2957330  10.4955350  86.2785090  40.6764920
   9.0216640  86.2756610  40.3306940   9.1111430  82.7361910  39.9082690
   9.5674210  83.5467160  40.1342880   8.7599640  82.4185050  40.7401180
   5.0123210  73.0799560  40.3805210   4.8837840  73.0717460  41.3290130
   4.1885230  73.4182650  40.0296220  12.6876120  86.2500600  45.8552440
  13.3298350  85.5493760  45.9684610  13.2125470  87.0299040  45.6749330
  16.5331840  86.5349220  35.5791580  16.3069420  85.8179660  36.1716220
  16.1428040  86.2861660  34.7413330  16.1148090  84.4521160  37.2405740
  15.8269790  84.9133850  38.0283620  16.9100260  83.9918930  37.5089960
   3.9323130  83.1662170  37.9156470   3.3251080  83.9061070  37.9251770
   4.4072480  83.2561530  37.0894670  13.5055920  77.3312990  47.5913360
  13.8736740  76.5108200  47.9192930  12.6454120  77.3914880  48.0069010
  16.8717950  76.2869930  38.4000920  16.2431110  76.3915600  37.6859150
  16.3769870  76.5066710  39.1894800   8.8401980  78.5655880  39.8158800
   8.1318130  79.0342220  40.2572410   9.1246460  77.9077890  40.4503990
  10.4657910  79.9852580  47.8151330  10.9643160  80.4598400  48.4803180
  10.6080860  79.0616100  48.0221360  12.8717410  75.2906540  41.2554590
  12.7485190  75.3092670  40.3064100  13.8201970  75.3385480  41.3752990
   7.0437000  76.8740960  37.1909510   7.8927530  77.3111110  37.1249700
   6.6768270  77.1861220  38.0181570  17.6724770  76.2020540  48.6579720
  17.1698370  76.9425940  48.9973530  18.4881430  76.5904540  48.3416510
  15.9646780  81.4453720  42.1041080  15.0236920  81.4603950  42.2788770
  16.2790850  80.6589680  42.5501380   5.9428420  83.1273320  35.6645040
   6.7091690  83.0154680  36.2270470   6.0203110  82.4311290  35.0121810
   4.6375180  80.5598390  36.3477930   4.7178770  79.6125900  36.4595330
   5.5294930  80.8905270  36.4538590  13.2812800  86.0019720  52.5873460
  12.6750960  86.0251320  51.8469210  12.9766910  85.2702760  53.1240710
   9.0669600  85.1027500  35.1380390   8.9620240  84.4879850  35.8641770
   8.8993820  84.5793390  34.3543400   9.2183920  83.7884300  51.1169620
   8.4529590  84.3569300  51.0324290   9.3999880  83.4960510  50.2237850
  12.3072330  84.1647530  35.7422380  11.7582430  84.6116830  36.3865120
  12.9291590  83.6596780  36.2660050  16.3607270  85.5189630  51.6744640
  17.1016740  85.8565390  51.1712100  15.5979950  85.6881690  51.1214410
   4.1969060  80.5242900  52.4784170   4.2374400  80.2256770  53.3869400
   5.0514560  80.9250510  52.3191690   7.9747450  83.1238450  37.6387680
   8.3963870  82.9578320  38.4819070   8.0998290  82.3138680  37.1442820
   6.1374870  79.1035000  50.4458660   5.6071330  78.6125950  49.8182000
   6.8062940  79.5319200  49.9116590  10.4875090  82.1476060  34.8864780
  11.0080750  81.4325080  34.5205930  11.1343490  82.7861930  35.1865290
  15.0352930  83.5704460  50.2099850  15.4493950  83.7249540  51.0590270
  14.1003930  83.6959680  50.3725630  15.5075100  80.9100620  52.2139000
  16.0895870  80.1552940  52.1259480  15.6836870  81.4408060  51.4370480
   6.6247170  76.0697370  50.5255950   6.5304040  75.4518120  49.8006820
   6.0444560  76.7963660  50.2985860   9.3908610  74.6270610  47.5583340
   8.9425910  74.6494870  46.7128890   8.7573810  74.2289630  48.1553640
   9.7968160  83.5224940  48.1795780  10.2156270  84.3657670  48.0072020
   8.8776790  83.6596980  47.9502560  12.1332060  81.2541120  49.5633620
  12.2528270  80.6582260  50.3028460  12.9926060  81.2910810  49.1434920
  14.4719960  81.8078310  48.1396130  13.9455180  82.3320930  47.5361270
  14.8151300  82.4405700  48.7705860   6.8706350  79.1971680  34.5845840
   6.6695410  78.3339040  34.9459180   6.6998400  79.1105040  33.6467440
   8.9000830  77.7962470  50.8209440   9.4900520  77.4878320  51.5087260
   8.0821070  77.3242220  50.9769340  13.7194260  77.4128280  51.0542460
  13.0309780  76.7509820  50.9892450  14.4400280  76.9666550  51.4990920
  14.3494660  74.0079910  37.1132720  14.6296950  73.1647810  37.4692140
  13.5760390  74.2403020  37.6271470   5.6689150  76.2972300  34.5723720
   5.9715050  76.3039730  33.6642870   6.4083740  75.9470160  35.0691380
   8.8874080  75.2406920  35.5579920   8.5396080  74.5630910  34.9782370
   9.0886850  74.7796430  36.3723310   4.6919280  85.6014720  35.4053520
   5.1294150  86.1444390  36.0611100   5.1767010  84.7761670  35.4149860
   6.5027000  86.7212760  40.5175750   6.2022540  86.5977730  41.4179660
   6.3964490  85.8621350  40.1091480  18.7275380  83.2456640  37.7236630
  19.4894290  83.8153290  37.8296320  18.7429750  82.6783840  38.4944940
   2.2279720  81.7694570  41.9544290   1.5728560  81.5006210  41.3103990
   3.0657670  81.6599050  41.5046270  19.7335350  84.1006740  42.5678560
  20.1044180  83.3174060  42.1614530  20.3737280  84.7895840  42.3895860
  16.7169110  85.4843320  47.9808880  15.9028950  85.9140480  48.2434670
  17.1243310  86.0961730  47.3677930  18.7794550  83.5391010  34.8809150
  19.0543390  84.4469890  34.7528370  18.5905290  83.4753540  35.8171140
  15.1770160  76.5635860  36.1762780  15.5955040  76.3766840  35.3359440
  14.8706220  75.7114910  36.4865710  18.6759890  81.4760000  39.8738580
  18.3003490  80.7087930  39.4419870  17.9463010  81.8582700  40.3613510
   3.2655650  82.1547140  46.4947630   3.6328690  82.0674540  47.3743650
   2.6966470  81.3913690  46.3954490  18.0659510  80.6231520  49.5078100
  17.8345600  80.3944270  48.6076050  18.3264060  81.5431070  49.4622990
   2.8171650  79.0656230  50.4006050   1.9227700  79.0322990  50.7399760
   3.3569200  79.2643020  51.1657300  16.5047580  75.8487950  52.2857800
  17.3817760  75.8571350  52.6691800  16.5168420  75.1118790  51.6750150
  17.9510850  79.7017490  43.1745820  18.4748330  79.2080140  42.5435990
  18.5370270  79.8367850  43.9193390  18.1300570  79.7857360  46.6965370
  17.1803280  79.7520900  46.8110360  18.3113580  80.6957470  46.4615140
   3.9845010  78.0359040  35.8064000   4.6936710  77.6142260  35.3211280
   3.2684950  78.1034270  35.1747350   3.6319170  74.0898370  34.8466650
   4.3547300  74.6307310  35.1647870   3.9043690  73.8161790  33.9708190
  17.4410820  78.9590840  39.1138230  17.9369940  78.7261710  39.8987110
  17.2426890  78.1202680  38.6975870   3.3211360  73.3404560  44.7489270
   3.9687550  72.7901940  44.3084430   3.7413200  73.5947710  45.5705080
  18.8697980  77.5951790  41.6475910  18.7597260  77.4407830  42.5858180
  19.6305570  77.0672730  41.4051320  17.2163700  73.5345920  48.1058910
  17.8535920  74.1480060  48.4718100  17.3638590  73.5706580  47.1608140
  19.7588250  75.4259710  34.8882050  20.6837560  75.2940890  34.6800340
  19.7364040  75.5052530  35.8418500  19.8326740  76.1970370  37.5138760
  19.0378240  76.1315490  38.0431670  20.0370020  77.1321010  37.5024110
   3.0743360  73.4960230  47.4914590   2.7258180  73.9524050  48.2572770
   2.7431060  72.6017360  47.5737020  10.5868180  74.6872110  51.0134010
  10.5257070  75.2793940  51.7629420  11.5268560  74.5798070  50.8684270
  13.2242740  74.3442170  50.6526300  13.8383150  74.6621460  49.9907380
  13.7692300  73.8590760  51.2722160   3.7464000  73.0236430  50.7665360
   4.2946990  72.8424480  50.0031470   3.8119310  72.2330540  51.3021670
  13.9650780  72.9074310  46.9795590  13.0910620  73.2409420  46.7768520
  13.8561530  72.4347490  47.8047460  14.8722760  75.1145180  48.3637310
  14.5436120  74.2996940  47.9839040  15.8205060  75.0714990  48.2403000
  11.7125600  73.8244150  45.9188500  10.9297390  74.2989650  46.1985260
  11.4188530  72.9198980  45.8101680  16.2646670  74.5267250  43.9637590
  16.7054760  74.4712350  43.1159190  15.9954260  75.4425260  44.0347770
  18.1285240  74.1582490  41.9746410  18.0673640  73.2143710  41.8277430
  18.9077270  74.2662580  42.5199870   3.0566010  74.1291630  38.4402220
   3.8145370  74.2420510  37.8666250   2.5943180  74.9660830  38.3945650
   9.5979820  76.2430900  41.4304530   8.7854330  75.8687790  41.0900410
  10.1021460  75.4875980  41.7325720  14.1004800  72.9073350  42.6687600
  14.7034170  73.4793560  43.1436120  13.3597790  73.4712790  42.4461500
  17.2439400  73.3094910  37.9427880  17.4390030  74.2078360  38.2095310
  16.4569270  73.0781990  38.4360830   5.4291160  74.6555680  36.9804190
   5.9583920  73.8685480  36.8512140   6.0619480  75.3346870  37.2139720
   7.6229000  74.3930820  40.0349580   6.9931740  73.6918130  40.2019710
   7.0834140  75.1534950  39.8182740   7.7484560  73.6714800  52.4702070
   7.4668830  74.1748400  51.7062890   8.1304260  72.8736550  52.1044200
  14.3500020  73.0868380  53.0482540  14.2365470  73.4062990  53.9434060
  15.1669760  73.4880890  52.7519820  13.2558170  81.1060850  23.4117280
  13.1752220  80.1915460  23.1408990  12.8422590  81.6027920  22.7056990
  11.3876210  82.8839870  25.2926550  10.6118310  82.4040310  25.5825120
  12.0389140  82.2045520  25.1182710   5.4042040  83.1959680  26.1702310
   4.5726920  82.9408390  26.5698820   6.0123020  83.2670450  26.9060230
   3.8133990  78.1561570  19.9544700   2.9250690  78.4977540  19.8524580
   4.0975180  77.9561890  19.0625530   1.7767000  80.7567220  25.8384400
   2.3483110  79.9889420  25.8388040   1.7768540  81.0555980  24.9291010
  10.8285200  85.5597060  25.2996710  10.7593480  84.6187000  25.1385840
  11.5905060  85.6498470  25.8719280   3.0191870  76.1651580  27.6253330
   2.8394710  75.2677330  27.9056090   2.6171950  76.7123450  28.3000280
  11.8590370  78.3667440  25.5265640  12.2355190  77.4939320  25.4139310
  11.7609880  78.7026140  24.6356080   5.9895380  76.7393070  20.9883080
   6.0962130  77.6396800  21.2951840   5.0787740  76.6911040  20.6977730
  15.6414490  75.8617880  22.4593980  16.4624110  75.3714450  22.5019460
  15.6748570  76.4515540  23.2125820   3.6378540  78.6612080  26.2335670
   4.3188650  78.9250450  26.8523070   3.3226590  77.8212950  26.5673680
   7.8303110  79.7079440  25.3208260   8.3381330  80.2060410  25.9613280
   8.3616350  78.9314640  25.1447620  19.9314040  77.8784630  29.0237610
  19.2266210  78.2666340  28.5052720  20.1971960  78.5734920  29.6258540
   6.1139210  74.3478000  29.5871680   6.1157650  74.8650390  28.7817580
   5.2843520  73.8708180  29.5641610  12.5010300  84.4597310  21.0861580
  11.8827570  84.9246760  20.5224300  13.0133550  85.1524790  21.5031090
   7.3642060  83.9873180  27.7645180   7.0311440  84.6142100  28.4066250
   7.5408740  84.5135060  26.9846850  15.8775970  77.8018260  25.2321520
  15.1731540  78.0903150  25.8124630  16.2388130  78.6118370  24.8721080
   5.7954540  76.0587960  27.5942130   6.1371350  76.9030010  27.2996000
   4.8570350  76.2071700  27.7107470   6.5761160  85.9553980  29.5794360
   7.1935160  86.6305060  29.2978810   5.7154280  86.3641960  29.4881860
  18.9462890  77.2473050  25.6230730  17.9987800  77.2812030  25.7546160
  19.2712880  78.0612000  26.0080090   9.4782430  73.5470230  23.9186720
   9.7857410  72.9917120  23.2022220   8.5483130  73.6814690  23.7359710
  16.3242910  85.9853740  21.2984350  16.2139240  85.0428070  21.4233770
  16.3211160  86.3469380  22.1847110  14.4282930  84.1667360  27.5376790
  14.8451720  83.9527470  26.7030250  15.1522750  84.4240150  28.1085410
  11.8663190  81.6119060  20.6546840  10.9392470  81.5456440  20.8835310
  12.0188010  82.5499190  20.5402080  11.8532270  77.8836060  17.6514000
  10.9135940  78.0450020  17.7366460  12.1715530  78.6021740  17.1049990
  18.3745030  82.5654580  27.6293030  17.5463660  82.6347670  27.1543160
  18.9695510  83.1508890  27.1608860  15.8960480  83.1739360  21.1582090
  15.2772900  82.8358910  20.5108390  15.8784930  82.5299120  21.8661280
  15.3387040  79.3523900  28.5747900  14.9258220  80.1777610  28.8287890
  14.6062990  78.7668940  28.3824260   7.4719830  82.1383800  23.4366570
   7.0676830  81.4261050  22.9412470   7.5582950  81.7937040  24.3254610
   7.9401530  85.8251360  25.6005780   7.6429820  85.2196830  24.9213560
   8.8901350  85.8628670  25.4895140   6.1848450  78.9127010  27.2165610
   6.7363040  79.0222350  26.4418860   6.6991960  79.2864610  27.9320840
   7.0319960  85.5633050  32.2513580   6.1348490  85.7873020  32.4986980
   7.0572830  85.6867990  31.3024980  14.0725180  82.4126170  18.1654840
  14.5118460  81.5748600  18.0192660  14.7853600  83.0455570  18.2518980
   5.8591180  82.4346370  30.8270950   5.7198950  83.3069170  31.1958350
   4.9772540  82.0919180  30.6818890  17.6542320  73.6668980  16.4795880
  17.3414980  73.7595810  17.3794950  18.4154790  74.2450010  16.4293310
   4.1724460  81.0328780  20.9373220   4.0522060  81.7590870  20.3254490
   3.8625350  80.2631690  20.4601130   1.8109830  84.2043920  26.7441860
   1.8890250  84.3392690  25.7997580   2.4251510  83.4959810  26.9369980
   3.0557460  85.9044110  23.1548040   2.6485540  86.0458700  22.3001640
   3.9470470  85.6204270  22.9519250  19.0119600  86.3508020  31.4920280
  19.1382660  86.1119900  30.5737460  19.0540980  85.5192560  31.9642360
  18.8643610  78.4040480  32.4570020  18.2487880  78.9120150  31.9285480
  18.5440030  77.5038810  32.3995960   1.8669350  85.2458090  29.2836320
   2.0300390  84.7763450  28.4655690   2.3321800  84.7381650  29.9485160
   6.6388120  74.3763850  24.3196890   6.1956270  75.1573390  23.9881410
   7.1973110  74.6993740  25.0267830  10.9257930  77.2432370  29.9232210
  10.4637300  77.4515390  30.7352150  10.5236040  76.4291720  29.6202880
  15.9262440  78.4641320  31.0528870  15.0756030  78.1647070  31.3737940
  15.7664230  78.7083330  30.1412690  13.0212150  79.9643070  33.1527660
  13.3465560  79.1306820  32.8129890  13.8092480  80.4871590  33.3005990
   9.7546940  73.9974550  19.2002720   9.1301120  73.9934420  19.9256030
   9.6677060  73.1305510  18.8038690   8.6764020  74.9211180  26.1786490
   8.9736350  75.8274010  26.0978510   9.2249580  74.4329960  25.5646060
   6.4302340  79.4997420  22.0478140   6.2043260  79.2834590  22.9524760
   5.6494870  79.9325880  21.7024110  13.6600100  79.5060790  20.6468790
  13.0608990  80.2296590  20.4632410  14.2079710  79.4437570  19.8645240
   8.8701550  80.3983000  32.7138410   8.7745150  79.4577730  32.5638810
   9.7133530  80.6198070  32.3186480  12.2664970  78.1424330  22.6772070
  12.6594540  78.4596530  21.8640760  12.6281820  77.2636210  22.7916590
   4.0012090  76.8096670  30.8672190   3.6075480  77.6571880  31.0744970
   3.3130490  76.1723040  31.0580830  10.5757140  76.8931640  33.9368930
   9.8855460  76.7003840  34.5715020  11.3189440  77.1766280  34.4693230
  12.8520110  80.7330080  26.7722850  12.1201230  81.2416890  27.1212950
  12.4544450  79.9160060  26.4711630   9.2897500  77.4084280  25.1775340
   9.2933560  76.9674230  24.3279880  10.1848620  77.7301610  25.2847160
   5.1399880  77.2910770  24.1369550   4.7999930  77.7686000  24.8936600
   4.3777200  76.8375890  23.7770650   9.3517650  78.4096360  18.1682100
   9.4730470  78.3682840  19.1167920   8.9666160  79.2720510  18.0128830
  13.3146020  76.1863760  26.1845790  13.3318760  76.6372410  27.0287640
  13.0661600  75.2869400  26.3979230   8.3639150  80.7197500  17.5665400
   7.7956050  80.2715750  16.9401310   9.0728150  81.0790280  17.0330550
  16.7416770  73.5995940  32.0232170  17.0662540  72.8685600  32.5490150
  16.7773280  73.2809580  31.1213160   3.4408330  84.6209520  31.4432130
   3.0563120  83.9803190  32.0415090   3.7520520  85.3245640  32.0126860
   9.5905470  81.4686060  26.9240750   9.9575600  80.9944630  27.6702090
   9.4010530  82.3427630  27.2649090   2.4545960  76.2129750  23.0534220
   2.1692880  75.8485420  23.8912840   2.3924820  75.4810210  22.4397360
   7.3804840  80.5094700  29.2424960   7.0761910  81.3886680  29.4675320
   8.3351300  80.5694490  29.2782400   5.9086630  84.7155690  19.8391810
   5.1348890  84.1753310  19.6790530   6.6381260  84.1962300  19.5009570
  16.6674610  83.7121050  25.6318200  17.3873730  84.2076340  25.2414310
  16.4656430  83.0338940  24.9872070  12.1284550  75.1059010  19.7747590
  11.3149160  74.6072180  19.6992900  11.9346500  75.9457260  19.3583940
  12.0493410  83.7830110  31.5187200  11.9830720  82.8625780  31.2644790
  11.4198550  83.8805550  32.2331840  14.8432940  79.4778660  18.0709750
  15.7312560  79.7895890  17.8961090  14.8138030  78.6050910  17.6790330
   5.9524030  84.3836070  23.4770620   6.4702700  83.5804330  23.4227510
   5.5008050  84.3215210  24.3187450  10.8393530  85.6502350  18.7497920
  11.1809230  86.3944580  18.2541240  10.0106240  85.9633470  19.1122750
   3.4368570  81.3497440  30.3896320   3.0783510  82.0151290  30.9769660
   3.1423130  80.5180990  30.7608940   6.6381690  81.8081680  33.2735870
   6.3381830  81.9538860  32.3763690   7.4092930  81.2486970  33.1809260
  11.9810140  86.6050680  31.2691000  11.9954680  85.6731640  31.0509910
  11.2735240  86.6910440  31.9080770  17.1147210  80.7890500  17.5389610
  17.0310930  81.2204720  16.6886050  17.8341400  81.2488850  17.9716430
  18.1921350  83.2458020  30.6159580  17.4669540  83.8386800  30.4188970
  18.7196810  83.2381560  29.8172950  13.7220940  84.9718190  24.1143430
  14.0744760  84.3746320  23.4544800  12.8383270  84.6462420  24.2851680
   9.8084220  85.7315880  21.5213840  10.4955350  86.2785090  21.9021430
   9.0216640  86.2756610  21.5563450   9.1111430  82.7361910  21.1339200
   9.5674210  83.5467160  21.3599390   8.7599640  82.4185050  21.9657690
   5.0123210  73.0799560  21.6061720   4.8837840  73.0717460  22.5546640
   4.1885230  73.4182650  21.2552730  12.6876120  86.2500600  27.0808950
  13.3298350  85.5493760  27.1941120  13.2125470  87.0299040  26.9005840
  16.5331840  86.5349220  16.8048090  16.3069420  85.8179660  17.3972730
  16.1428040  86.2861660  15.9669840  16.1148090  84.4521160  18.4662250
  15.8269790  84.9133850  19.2540130  16.9100260  83.9918930  18.7346470
   3.9323130  83.1662170  19.1412980   3.3251080  83.9061070  19.1508280
   4.4072480  83.2561530  18.3151180  13.5055920  77.3312990  28.8169870
  13.8736740  76.5108200  29.1449440  12.6454120  77.3914880  29.2325520
  16.8717950  76.2869930  19.6257430  16.2431110  76.3915600  18.9115660
  16.3769870  76.5066710  20.4151310   8.8401980  78.5655880  21.0415310
   8.1318130  79.0342220  21.4828920   9.1246460  77.9077890  21.6760500
  10.4657910  79.9852580  29.0407840  10.9643160  80.4598400  29.7059690
  10.6080860  79.0616100  29.2477870  12.8717410  75.2906540  22.4811100
  12.7485190  75.3092670  21.5320610  13.8201970  75.3385480  22.6009500
   7.0437000  76.8740960  18.4166020   7.8927530  77.3111110  18.3506210
   6.6768270  77.1861220  19.2438080  17.6724770  76.2020540  29.8836230
  17.1698370  76.9425940  30.2230040  18.4881430  76.5904540  29.5673020
  15.9646780  81.4453720  23.3297590  15.0236920  81.4603950  23.5045280
  16.2790850  80.6589680  23.7757890   5.9428420  83.1273320  16.8901550
   6.7091690  83.0154680  17.4526980   6.0203110  82.4311290  16.2378320
   4.6375180  80.5598390  17.5734440   4.7178770  79.6125900  17.6851840
   5.5294930  80.8905270  17.6795100  13.2812800  86.0019720  33.8129970
  12.6750960  86.0251320  33.0725720  12.9766910  85.2702760  34.3497220
   9.0669600  85.1027500  16.3636900   8.9620240  84.4879850  17.0898280
   8.8993820  84.5793390  15.5799910   9.2183920  83.7884300  32.3426130
   8.4529590  84.3569300  32.2580800   9.3999880  83.4960510  31.4494360
  12.3072330  84.1647530  16.9678890  11.7582430  84.6116830  17.6121630
  12.9291590  83.6596780  17.4916560  16.3607270  85.5189630  32.9001150
  17.1016740  85.8565390  32.3968610  15.5979950  85.6881690  32.3470920
   4.1969060  80.5242900  33.7040680   4.2374400  80.2256770  34.6125910
   5.0514560  80.9250510  33.5448200   7.9747450  83.1238450  18.8644190
   8.3963870  82.9578320  19.7075580   8.0998290  82.3138680  18.3699330
   6.1374870  79.1035000  31.6715170   5.6071330  78.6125950  31.0438510
   6.8062940  79.5319200  31.1373100  10.4875090  82.1476060  16.1121290
  11.0080750  81.4325080  15.7462440  11.1343490  82.7861930  16.4121800
  15.0352930  83.5704460  31.4356360  15.4493950  83.7249540  32.2846780
  14.1003930  83.6959680  31.5982140  15.5075100  80.9100620  33.4395510
  16.0895870  80.1552940  33.3515990  15.6836870  81.4408060  32.6626990
   6.6247170  76.0697370  31.7512460   6.5304040  75.4518120  31.0263330
   6.0444560  76.7963660  31.5242370   9.3908610  74.6270610  28.7839850
   8.9425910  74.6494870  27.9385400   8.7573810  74.2289630  29.3810150
   9.7968160  83.5224940  29.4052290  10.2156270  84.3657670  29.2328530
   8.8776790  83.6596980  29.1759070  12.1332060  81.2541120  30.7890130
  12.2528270  80.6582260  31.5284970  12.9926060  81.2910810  30.3691430
  14.4719960  81.8078310  29.3652640  13.9455180  82.3320930  28.7617780
  14.8151300  82.4405700  29.9962370   6.8706350  79.1971680  15.8102350
   6.6695410  78.3339040  16.1715690   6.6998400  79.1105040  14.8723950
   8.9000830  77.7962470  32.0465950   9.4900520  77.4878320  32.7343770
   8.0821070  77.3242220  32.2025850  13.7194260  77.4128280  32.2798970
  13.0309780  76.7509820  32.2148960  14.4400280  76.9666550  32.7247430
  14.3494660  74.0079910  18.3389230  14.6296950  73.1647810  18.6948650
  13.5760390  74.2403020  18.8527980   5.6689150  76.2972300  15.7980230
   5.9715050  76.3039730  14.8899380   6.4083740  75.9470160  16.2947890
   8.8874080  75.2406920  16.7836430   8.5396080  74.5630910  16.2038880
   9.0886850  74.7796430  17.5979820   4.6919280  85.6014720  16.6310030
   5.1294150  86.1444390  17.2867610   5.1767010  84.7761670  16.6406370
   6.5027000  86.7212760  21.7432260   6.2022540  86.5977730  22.6436170
   6.3964490  85.8621350  21.3347990  18.7275380  83.2456640  18.9493140
  19.4894290  83.8153290  19.0552830  18.7429750  82.6783840  19.7201450
   2.2279720  81.7694570  23.1800800   1.5728560  81.5006210  22.5360500
   3.0657670  81.6599050  22.7302780  19.7335350  84.1006740  23.7935070
  20.1044180  83.3174060  23.3871040  20.3737280  84.7895840  23.6152370
  16.7169110  85.4843320  29.2065390  15.9028950  85.9140480  29.4691180
  17.1243310  86.0961730  28.5934440  18.7794550  83.5391010  16.1065660
  19.0543390  84.4469890  15.9784880  18.5905290  83.4753540  17.0427650
  15.1770160  76.5635860  17.4019290  15.5955040  76.3766840  16.5615950
  14.8706220  75.7114910  17.7122220  18.6759890  81.4760000  21.0995090
  18.3003490  80.7087930  20.6676380  17.9463010  81.8582700  21.5870020
   3.2655650  82.1547140  27.7204140   3.6328690  82.0674540  28.6000160
   2.6966470  81.3913690  27.6211000  18.0659510  80.6231520  30.7334610
  17.8345600  80.3944270  29.8332560  18.3264060  81.5431070  30.6879500
   2.8171650  79.0656230  31.6262560   1.9227700  79.0322990  31.9656270
   3.3569200  79.2643020  32.3913810  16.5047580  75.8487950  33.5114310
  17.3817760  75.8571350  33.8948310  16.5168420  75.1118790  32.9006660
  17.9510850  79.7017490  24.4002330  18.4748330  79.2080140  23.7692500
  18.5370270  79.8367850  25.1449900  18.1300570  79.7857360  27.9221880
  17.1803280  79.7520900  28.0366870  18.3113580  80.6957470  27.6871650
   3.9845010  78.0359040  17.0320510   4.6936710  77.6142260  16.5467790
   3.2684950  78.1034270  16.4003860   3.6319170  74.0898370  16.0723160
   4.3547300  74.6307310  16.3904380   3.9043690  73.8161790  15.1964700
  17.4410820  78.9590840  20.3394740  17.9369940  78.7261710  21.1243620
  17.2426890  78.1202680  19.9232380   3.3211360  73.3404560  25.9745780
   3.9687550  72.7901940  25.5340940   3.7413200  73.5947710  26.7961590
  18.8697980  77.5951790  22.8732420  18.7597260  77.4407830  23.8114690
  19.6305570  77.0672730  22.6307830  17.2163700  73.5345920  29.3315420
  17.8535920  74.1480060  29.6974610  17.3638590  73.5706580  28.3864650
  19.7588250  75.4259710  16.1138560  20.6837560  75.2940890  15.9056850
  19.7364040  75.5052530  17.0675010  19.8326740  76.1970370  18.7395270
  19.0378240  76.1315490  19.2688180  20.0370020  77.1321010  18.7280620
   3.0743360  73.4960230  28.7171100   2.7258180  73.9524050  29.4829280
   2.7431060  72.6017360  28.7993530  10.5868180  74.6872110  32.2390520
  10.5257070  75.2793940  32.9885930  11.5268560  74.5798070  32.0940780
  13.2242740  74.3442170  31.8782810  13.8383150  74.6621460  31.2163890
  13.7692300  73.8590760  32.4978670   3.7464000  73.0236430  31.9921870
   4.2946990  72.8424480  31.2287980   3.8119310  72.2330540  32.5278180
  13.9650780  72.9074310  28.2052100  13.0910620  73.2409420  28.0025030
  13.8561530  72.4347490  29.0303970  14.8722760  75.1145180  29.5893820
  14.5436120  74.2996940  29.2095550  15.8205060  75.0714990  29.4659510
  11.7125600  73.8244150  27.1445010  10.9297390  74.2989650  27.4241770
  11.4188530  72.9198980  27.0358190  16.2646670  74.5267250  25.1894100
  16.7054760  74.4712350  24.3415700  15.9954260  75.4425260  25.2604280
  18.1285240  74.1582490  23.2002920  18.0673640  73.2143710  23.0533940
  18.9077270  74.2662580  23.7456380   3.0566010  74.1291630  19.6658730
   3.8145370  74.2420510  19.0922760   2.5943180  74.9660830  19.6202160
   9.5979820  76.2430900  22.6561040   8.7854330  75.8687790  22.3156920
  10.1021460  75.4875980  22.9582230  14.1004800  72.9073350  23.8944110
  14.7034170  73.4793560  24.3692630  13.3597790  73.4712790  23.6718010
  17.2439400  73.3094910  19.1684390  17.4390030  74.2078360  19.4351820
  16.4569270  73.0781990  19.6617340   5.4291160  74.6555680  18.2060700
   5.9583920  73.8685480  18.0768650   6.0619480  75.3346870  18.4396230
   7.6229000  74.3930820  21.2606090   6.9931740  73.6918130  21.4276220
   7.0834140  75.1534950  21.0439250   7.7484560  73.6714800  33.6958580
   7.4668830  74.1748400  32.9319400   8.1304260  72.8736550  33.3300710
  14.3500020  73.0868380  34.2739050  14.2365470  73.4062990  35.1690570
  15.1669760  73.4880890  33.9776330  13.2558170  81.1060850   4.6373790
  13.1752220  80.1915460   4.3665500  12.8422590  81.6027920   3.9313500
  11.3876210  82.8839870   6.5183060  10.6118310  82.4040310   6.8081630
  12.0389140  82.2045520   6.3439220   5.4042040  83.1959680   7.3958820
   4.5726920  82.9408390   7.7955330   6.0123020  83.2670450   8.1316740
   1.7767000  80.7567220   7.0640910   2.3483110  79.9889420   7.0644550
   1.7768540  81.0555980   6.1547520  10.8285200  85.5597060   6.5253220
  10.7593480  84.6187000   6.3642350  11.5905060  85.6498470   7.0975790
   3.0191870  76.1651580   8.8509840   2.8394710  75.2677330   9.1312600
   2.6171950  76.7123450   9.5256790  11.8590370  78.3667440   6.7522150
  12.2355190  77.4939320   6.6395820  11.7609880  78.7026140   5.8612590
   5.9895380  76.7393070   2.2139590   6.0962130  77.6396800   2.5208350
   5.0787740  76.6911040   1.9234240  15.6414490  75.8617880   3.6850490
  16.4624110  75.3714450   3.7275970  15.6748570  76.4515540   4.4382330
   3.6378540  78.6612080   7.4592180   4.3188650  78.9250450   8.0779580
   3.3226590  77.8212950   7.7930190   7.8303110  79.7079440   6.5464770
   8.3381330  80.2060410   7.1869790   8.3616350  78.9314640   6.3704130
  19.9314040  77.8784630  10.2494120  19.2266210  78.2666340   9.7309230
  20.1971960  78.5734920  10.8515050   6.1139210  74.3478000  10.8128190
   6.1157650  74.8650390  10.0074090   5.2843520  73.8708180  10.7898120
  12.5010300  84.4597310   2.3118090  11.8827570  84.9246760   1.7480810
  13.0133550  85.1524790   2.7287600   7.3642060  83.9873180   8.9901690
   7.0311440  84.6142100   9.6322760   7.5408740  84.5135060   8.2103360
  15.8775970  77.8018260   6.4578030  15.1731540  78.0903150   7.0381140
  16.2388130  78.6118370   6.0977590   5.7954540  76.0587960   8.8198640
   6.1371350  76.9030010   8.5252510   4.8570350  76.2071700   8.9363980
   6.5761160  85.9553980  10.8050870   7.1935160  86.6305060  10.5235320
   5.7154280  86.3641960  10.7138370  18.9462890  77.2473050   6.8487240
  17.9987800  77.2812030   6.9802670  19.2712880  78.0612000   7.2336600
   9.4782430  73.5470230   5.1443230   9.7857410  72.9917120   4.4278730
   8.5483130  73.6814690   4.9616220  16.3242910  85.9853740   2.5240860
  16.2139240  85.0428070   2.6490280  16.3211160  86.3469380   3.4103620
  14.4282930  84.1667360   8.7633300  14.8451720  83.9527470   7.9286760
  15.1522750  84.4240150   9.3341920  11.8663190  81.6119060   1.8803350
  10.9392470  81.5456440   2.1091820  12.0188010  82.5499190   1.7658590
  18.3745030  82.5654580   8.8549540  17.5463660  82.6347670   8.3799670
  18.9695510  83.1508890   8.3865370  15.8960480  83.1739360   2.3838600
  15.2772900  82.8358910   1.7364900  15.8784930  82.5299120   3.0917790
  15.3387040  79.3523900   9.8004410  14.9258220  80.1777610  10.0544400
  14.6062990  78.7668940   9.6080770   7.4719830  82.1383800   4.6623080
   7.0676830  81.4261050   4.1668980   7.5582950  81.7937040   5.5511120
   7.9401530  85.8251360   6.8262290   7.6429820  85.2196830   6.1470070
   8.8901350  85.8628670   6.7151650   6.1848450  78.9127010   8.4422120
   6.7363040  79.0222350   7.6675370   6.6991960  79.2864610   9.1577350
   7.0319960  85.5633050  13.4770090   6.1348490  85.7873020  13.7243490
   7.0572830  85.6867990  12.5281490   5.8591180  82.4346370  12.0527460
   5.7198950  83.3069170  12.4214860   4.9772540  82.0919180  11.9075400
   1.8109830  84.2043920   7.9698370   1.8890250  84.3392690   7.0254090
   2.4251510  83.4959810   8.1626490   3.0557460  85.9044110   4.3804550
   2.6485540  86.0458700   3.5258150   3.9470470  85.6204270   4.1775760
  19.0119600  86.3508020  12.7176790  19.1382660  86.1119900  11.7993970
  19.0540980  85.5192560  13.1898870  18.8643610  78.4040480  13.6826530
  18.2487880  78.9120150  13.1541990  18.5440030  77.5038810  13.6252470
   1.8669350  85.2458090  10.5092830   2.0300390  84.7763450   9.6912200
   2.3321800  84.7381650  11.1741670   6.6388120  74.3763850   5.5453400
   6.1956270  75.1573390   5.2137920   7.1973110  74.6993740   6.2524340
  10.9257930  77.2432370  11.1488720  10.4637300  77.4515390  11.9608660
  10.5236040  76.4291720  10.8459390  15.9262440  78.4641320  12.2785380
  15.0756030  78.1647070  12.5994450  15.7664230  78.7083330  11.3669200
  13.0212150  79.9643070  14.3784170  13.3465560  79.1306820  14.0386400
  13.8092480  80.4871590  14.5262500   8.6764020  74.9211180   7.4043000
   8.9736350  75.8274010   7.3235020   9.2249580  74.4329960   6.7902570
   6.4302340  79.4997420   3.2734650   6.2043260  79.2834590   4.1781270
   5.6494870  79.9325880   2.9280620   8.8701550  80.3983000  13.9394920
   8.7745150  79.4577730  13.7895320   9.7133530  80.6198070  13.5442990
  12.2664970  78.1424330   3.9028580  12.6594540  78.4596530   3.0897270
  12.6281820  77.2636210   4.0173100   4.0012090  76.8096670  12.0928700
   3.6075480  77.6571880  12.3001480   3.3130490  76.1723040  12.2837340
  10.5757140  76.8931640  15.1625440   9.8855460  76.7003840  15.7971530
  11.3189440  77.1766280  15.6949740  12.8520110  80.7330080   7.9979360
  12.1201230  81.2416890   8.3469460  12.4544450  79.9160060   7.6968140
   9.2897500  77.4084280   6.4031850   9.2933560  76.9674230   5.5536390
  10.1848620  77.7301610   6.5103670   5.1399880  77.2910770   5.3626060
   4.7999930  77.7686000   6.1193110   4.3777200  76.8375890   5.0027160
  13.3146020  76.1863760   7.4102300  13.3318760  76.6372410   8.2544150
  13.0661600  75.2869400   7.6235740  16.7416770  73.5995940  13.2488680
  17.0662540  72.8685600  13.7746660  16.7773280  73.2809580  12.3469670
   3.4408330  84.6209520  12.6688640   3.0563120  83.9803190  13.2671600
   3.7520520  85.3245640  13.2383370   9.5905470  81.4686060   8.1497260
   9.9575600  80.9944630   8.8958600   9.4010530  82.3427630   8.4905600
   2.4545960  76.2129750   4.2790730   2.1692880  75.8485420   5.1169350
   2.3924820  75.4810210   3.6653870   7.3804840  80.5094700  10.4681470
   7.0761910  81.3886680  10.6931830   8.3351300  80.5694490  10.5038910
  16.6674610  83.7121050   6.8574710  17.3873730  84.2076340   6.4670820
  16.4656430  83.0338940   6.2128580  12.0493410  83.7830110  12.7443710
  11.9830720  82.8625780  12.4901300  11.4198550  83.8805550  13.4588350
   5.9524030  84.3836070   4.7027130   6.4702700  83.5804330   4.6484020
   5.5008050  84.3215210   5.5443960   3.4368570  81.3497440  11.6152830
   3.0783510  82.0151290  12.2026170   3.1423130  80.5180990  11.9865450
   6.6381690  81.8081680  14.4992380   6.3381830  81.9538860  13.6020200
   7.4092930  81.2486970  14.4065770  11.9810140  86.6050680  12.4947510
  11.9954680  85.6731640  12.2766420  11.2735240  86.6910440  13.1337280
  18.1921350  83.2458020  11.8416090  17.4669540  83.8386800  11.6445480
  18.7196810  83.2381560  11.0429460  13.7220940  84.9718190   5.3399940
  14.0744760  84.3746320   4.6801310  12.8383270  84.6462420   5.5108190
   9.8084220  85.7315880   2.7470350  10.4955350  86.2785090   3.1277940
   9.0216640  86.2756610   2.7819960   9.1111430  82.7361910   2.3595710
   9.5674210  83.5467160   2.5855900   8.7599640  82.4185050   3.1914200
   5.0123210  73.0799560   2.8318230   4.8837840  73.0717460   3.7803150
   4.1885230  73.4182650   2.4809240  12.6876120  86.2500600   8.3065460
  13.3298350  85.5493760   8.4197630  13.2125470  87.0299040   8.1262350
  13.5055920  77.3312990  10.0426380  13.8736740  76.5108200  10.3705950
  12.6454120  77.3914880  10.4582030   8.8401980  78.5655880   2.2671820
   8.1318130  79.0342220   2.7085430   9.1246460  77.9077890   2.9017010
  10.4657910  79.9852580  10.2664350  10.9643160  80.4598400  10.9316200
  10.6080860  79.0616100  10.4734380  12.8717410  75.2906540   3.7067610
  12.7485190  75.3092670   2.7577120  13.8201970  75.3385480   3.8266010
  17.6724770  76.2020540  11.1092740  17.1698370  76.9425940  11.4486550
  18.4881430  76.5904540  10.7929530  15.9646780  81.4453720   4.5554100
  15.0236920  81.4603950   4.7301790  16.2790850  80.6589680   5.0014400
  13.2812800  86.0019720  15.0386480  12.6750960  86.0251320  14.2982230
  12.9766910  85.2702760  15.5753730   9.2183920  83.7884300  13.5682640
   8.4529590  84.3569300  13.4837310   9.3999880  83.4960510  12.6750870
  16.3607270  85.5189630  14.1257660  17.1016740  85.8565390  13.6225120
  15.5979950  85.6881690  13.5727430   4.1969060  80.5242900  14.9297190
   4.2374400  80.2256770  15.8382420   5.0514560  80.9250510  14.7704710
   6.1374870  79.1035000  12.8971680   5.6071330  78.6125950  12.2695020
   6.8062940  79.5319200  12.3629610  15.0352930  83.5704460  12.6612870
  15.4493950  83.7249540  13.5103290  14.1003930  83.6959680  12.8238650
  15.5075100  80.9100620  14.6652020  16.0895870  80.1552940  14.5772500
  15.6836870  81.4408060  13.8883500   6.6247170  76.0697370  12.9768970
   6.5304040  75.4518120  12.2519840   6.0444560  76.7963660  12.7498880
   9.3908610  74.6270610  10.0096360   8.9425910  74.6494870   9.1641910
   8.7573810  74.2289630  10.6066660   9.7968160  83.5224940  10.6308800
  10.2156270  84.3657670  10.4585040   8.8776790  83.6596980  10.4015580
  12.1332060  81.2541120  12.0146640  12.2528270  80.6582260  12.7541480
  12.9926060  81.2910810  11.5947940  14.4719960  81.8078310  10.5909150
  13.9455180  82.3320930   9.9874290  14.8151300  82.4405700  11.2218880
   8.9000830  77.7962470  13.2722460   9.4900520  77.4878320  13.9600280
   8.0821070  77.3242220  13.4282360  13.7194260  77.4128280  13.5055480
  13.0309780  76.7509820  13.4405470  14.4400280  76.9666550  13.9503940
   6.5027000  86.7212760   2.9688770   6.2022540  86.5977730   3.8692680
   6.3964490  85.8621350   2.5604500   2.2279720  81.7694570   4.4057310
   1.5728560  81.5006210   3.7617010   3.0657670  81.6599050   3.9559290
  19.7335350  84.1006740   5.0191580  20.1044180  83.3174060   4.6127550
  20.3737280  84.7895840   4.8408880  16.7169110  85.4843320  10.4321900
  15.9028950  85.9140480  10.6947690  17.1243310  86.0961730   9.8190950
  18.6759890  81.4760000   2.3251600  18.3003490  80.7087930   1.8932890
  17.9463010  81.8582700   2.8126530   3.2655650  82.1547140   8.9460650
   3.6328690  82.0674540   9.8256670   2.6966470  81.3913690   8.8467510
  18.0659510  80.6231520  11.9591120  17.8345600  80.3944270  11.0589070
  18.3264060  81.5431070  11.9136010   2.8171650  79.0656230  12.8519070
   1.9227700  79.0322990  13.1912780   3.3569200  79.2643020  13.6170320
  16.5047580  75.8487950  14.7370820  17.3817760  75.8571350  15.1204820
  16.5168420  75.1118790  14.1263170  17.9510850  79.7017490   5.6258840
  18.4748330  79.2080140   4.9949010  18.5370270  79.8367850   6.3706410
  18.1300570  79.7857360   9.1478390  17.1803280  79.7520900   9.2623380
  18.3113580  80.6957470   8.9128160   3.3211360  73.3404560   7.2002290
   3.9687550  72.7901940   6.7597450   3.7413200  73.5947710   8.0218100
  18.8697980  77.5951790   4.0988930  18.7597260  77.4407830   5.0371200
  19.6305570  77.0672730   3.8564340  17.2163700  73.5345920  10.5571930
  17.8535920  74.1480060  10.9231120  17.3638590  73.5706580   9.6121160
   3.0743360  73.4960230   9.9427610   2.7258180  73.9524050  10.7085790
   2.7431060  72.6017360  10.0250040  10.5868180  74.6872110  13.4647030
  10.5257070  75.2793940  14.2142440  11.5268560  74.5798070  13.3197290
  13.2242740  74.3442170  13.1039320  13.8383150  74.6621460  12.4420400
  13.7692300  73.8590760  13.7235180   3.7464000  73.0236430  13.2178380
   4.2946990  72.8424480  12.4544490   3.8119310  72.2330540  13.7534690
  13.9650780  72.9074310   9.4308610  13.0910620  73.2409420   9.2281540
  13.8561530  72.4347490  10.2560480  14.8722760  75.1145180  10.8150330
  14.5436120  74.2996940  10.4352060  15.8205060  75.0714990  10.6916020
  11.7125600  73.8244150   8.3701520  10.9297390  74.2989650   8.6498280
  11.4188530  72.9198980   8.2614700  16.2646670  74.5267250   6.4150610
  16.7054760  74.4712350   5.5672210  15.9954260  75.4425260   6.4860790
  18.1285240  74.1582490   4.4259430  18.0673640  73.2143710   4.2790450
  18.9077270  74.2662580   4.9712890   9.5979820  76.2430900   3.8817550
   8.7854330  75.8687790   3.5413430  10.1021460  75.4875980   4.1838740
  14.1004800  72.9073350   5.1200620  14.7034170  73.4793560   5.5949140
  13.3597790  73.4712790   4.8974520   7.6229000  74.3930820   2.4862600
   6.9931740  73.6918130   2.6532730   7.0834140  75.1534950   2.2695760
   7.7484560  73.6714800  14.9215090   7.4668830  74.1748400  14.1575910
   8.1304260  72.8736550  14.5557220  14.3500020  73.0868380  15.4995560
  14.2365470  73.4062990  16.3947080  15.1669760  73.4880890  15.2032840
  13.2558170  62.3317360  79.7347750  13.1752220  61.4171970  79.4639460
  12.8422590  62.8284430  79.0287460  11.3876210  64.1096380  81.6157020
  10.6118310  63.6296820  81.9055590  12.0389140  63.4302030  81.4413180
   5.4042040  64.4216190  82.4932780   4.5726920  64.1664900  82.8929290
   6.0123020  64.4926960  83.2290700  15.4083640  68.5156570  80.3956150
  14.9465170  67.7443810  80.7243320  16.2209190  68.5422640  80.9008600
   5.3843300  68.4556280  82.6890800   5.6871340  67.5654020  82.5101020
   6.1286890  69.0126500  82.4613050   3.8133990  59.3818080  76.2775170
   2.9250690  59.7234050  76.1755050   4.0975180  59.1818400  75.3856000
   1.7767000  61.9823730  82.1614870   2.3483110  61.2145930  82.1618510
   1.7768540  62.2812490  81.2521480  11.6346950  70.8014580  80.0160140
  11.0158390  71.2572080  79.4454580  12.4898730  70.9566040  79.6149840
  10.8285200  66.7853570  81.6227180  10.7593480  65.8443510  81.4616310
  11.5905060  66.8754980  82.1949750   3.0191870  57.3908090  83.9483800
   2.8394710  56.4933840  84.2286560   2.6171950  57.9379960  84.6230750
  11.8590370  59.5923950  81.8496110  12.2355190  58.7195830  81.7369780
  11.7609880  59.9282650  80.9586550   5.9895380  57.9649580  77.3113550
   6.0962130  58.8653310  77.6182310   5.0787740  57.9167550  77.0208200
  15.6414490  57.0874390  78.7824450  16.4624110  56.5970960  78.8249930
  15.6748570  57.6772050  79.5356290   3.6378540  59.8868590  82.5566140
   4.3188650  60.1506960  83.1753540   3.3226590  59.0469460  82.8904150
   7.8303110  60.9335950  81.6438730   8.3381330  61.4316920  82.2843750
   8.3616350  60.1571150  81.4678090  19.9314040  59.1041140  85.3468080
  19.2266210  59.4922850  84.8283190  20.1971960  59.7991430  85.9489010
   6.1139210  55.5734510  85.9102150   6.1157650  56.0906900  85.1048050
   5.2843520  55.0964690  85.8872080  12.5010300  65.6853820  77.4092050
  11.8827570  66.1503270  76.8454770  13.0133550  66.3781300  77.8261560
   7.3642060  65.2129690  84.0875650   7.0311440  65.8398610  84.7296720
   7.5408740  65.7391570  83.3077320  15.8775970  59.0274770  81.5551990
  15.1731540  59.3159660  82.1355100  16.2388130  59.8374880  81.1951550
   5.7954540  57.2844470  83.9172600   6.1371350  58.1286520  83.6226470
   4.8570350  57.4328210  84.0337940   6.5761160  67.1810490  85.9024830
   7.1935160  67.8561570  85.6209280   5.7154280  67.5898470  85.8112330
  17.4938750  68.6449900  83.8179470  16.8102270  69.3149010  83.8096140
  18.0333040  68.8430550  83.0524330  18.9462890  58.4729560  81.9461200
  17.9987800  58.5068540  82.0776630  19.2712880  59.2868510  82.3310560
   9.4782430  54.7726740  80.2417190   9.7857410  54.2173630  79.5252690
   8.5483130  54.9071200  80.0590180  15.0297490  70.4894030  82.5324650
  15.0424650  70.0856320  81.6646910  14.4772710  71.2641320  82.4286080
  16.3242910  67.2110250  77.6214820  16.2139240  66.2684580  77.7464240
  16.3211160  67.5725890  78.5077580  14.4282930  65.3923870  83.8607260
  14.8451720  65.1783980  83.0260720  15.1522750  65.6496660  84.4315880
  11.8663190  62.8375570  76.9777310  10.9392470  62.7712950  77.2065780
  12.0188010  63.7755700  76.8632550  11.8532270  59.1092570  73.9744470
  10.9135940  59.2706530  74.0596930  12.1715530  59.8278250  73.4280460
  18.3745030  63.7911090  83.9523500  17.5463660  63.8604180  83.4773630
  18.9695510  64.3765400  83.4839330  15.8960480  64.3995870  77.4812560
  15.2772900  64.0615420  76.8338860  15.8784930  63.7555630  78.1891750
  15.3387040  60.5780410  84.8978370  14.9258220  61.4034120  85.1518360
  14.6062990  59.9925450  84.7054730   7.4719830  63.3640310  79.7597040
   7.0676830  62.6517560  79.2642940   7.5582950  63.0193550  80.6485080
   7.9401530  67.0507870  81.9236250   7.6429820  66.4453340  81.2444030
   8.8901350  67.0885180  81.8125610   6.1848450  60.1383520  83.5396080
   6.7363040  60.2478860  82.7649330   6.6991960  60.5121120  84.2551310
  16.0287140  70.6239740  85.5859350  15.5517700  71.4311930  85.3931960
  15.3448930  69.9718070  85.7385560  14.0725180  63.6382680  74.4885310
  14.5118460  62.8005110  74.3423130  14.7853600  64.2712080  74.5749450
  12.1820560  68.5778750  78.4566550  12.6216470  69.3203080  78.0421940
  12.1207450  68.8205320  79.3805510  17.6542320  54.8925490  72.8026350
  17.3414980  54.9852320  73.7025420  18.4154790  55.4706520  72.7523780
   4.1724460  62.2585290  77.2603690   4.0522060  62.9847380  76.6484960
   3.8625350  61.4888200  76.7831600   1.8109830  65.4300430  83.0672330
   1.8890250  65.5649200  82.1228050   2.4251510  64.7216320  83.2600450
   3.0557460  67.1300620  79.4778510   2.6485540  67.2715210  78.6232110
   3.9470470  66.8460780  79.2749720  14.8490740  71.5647870  75.8129560
  14.6891880  71.2750810  76.7111390  14.6837450  70.7888000  75.2774790
   7.3279120  71.3446400  77.5901180   7.1521600  70.4281940  77.3768980
   6.4734860  71.7033690  77.8298980  14.5516870  69.0735430  74.3727560
  13.8582030  69.0712720  73.7129840  15.2939730  68.6494750  73.9421730
  14.1166800  70.6998140  78.4476050  14.5723750  69.9187520  78.7614670
  14.4559320  71.4104960  78.9917230   6.6388120  55.6020360  80.6427360
   6.1956270  56.3829900  80.3111880   7.1973110  55.9250250  81.3498300
   9.7546940  55.2231060  75.5233190   9.1301120  55.2190930  76.2486500
   9.6677060  54.3562020  75.1269160   8.6764020  56.1467690  82.5016960
   8.9736350  57.0530520  82.4208980   9.2249580  55.6586470  81.8876530
   6.4302340  60.7253930  78.3708610   6.2043260  60.5091100  79.2755230
   5.6494870  61.1582390  78.0254580  13.6600100  60.7317300  76.9699260
  13.0608990  61.4553100  76.7862880  14.2079710  60.6694080  76.1875710
  12.2664970  59.3680840  79.0002540  12.6594540  59.6853040  78.1871230
  12.6281820  58.4892720  79.1147060  12.8520110  61.9586590  83.0953320
  12.1201230  62.4673400  83.4443420  12.4544450  61.1416570  82.7942100
   9.2897500  58.6340790  81.5005810   9.2933560  58.1930740  80.6510350
  10.1848620  58.9558120  81.6077630   5.1399880  58.5167280  80.4600020
   4.7999930  58.9942510  81.2167070   4.3777200  58.0632400  80.1001120
   9.3517650  59.6352870  74.4912570   9.4730470  59.5939350  75.4398390
   8.9666160  60.4977020  74.3359300  13.3146020  57.4120270  82.5076260
  13.3318760  57.8628920  83.3518110  13.0661600  56.5125910  82.7209700
   8.3639150  61.9454010  73.8895870   7.7956050  61.4972260  73.2631780
   9.0728150  62.3046790  73.3561020   9.5905470  62.6942570  83.2471220
   9.9575600  62.2201140  83.9932560   9.4010530  63.5684140  83.5879560
   2.4545960  57.4386260  79.3764690   2.1692880  57.0741930  80.2143310
   2.3924820  56.7066720  78.7627830   7.3804840  61.7351210  85.5655430
   7.0761910  62.6143190  85.7905790   8.3351300  61.7951000  85.6012870
   5.9086630  65.9412200  76.1622280   5.1348890  65.4009820  76.0021000
   6.6381260  65.4218810  75.8240040  16.6674610  64.9377560  81.9548670
  17.3873730  65.4332850  81.5644780  16.4656430  64.2595450  81.3102540
  12.1284550  56.3315520  76.0978060  11.3149160  55.8328690  76.0223370
  11.9346500  57.1713770  75.6814410  14.8432940  60.7035170  74.3940220
  15.7312560  61.0152400  74.2191560  14.8138030  59.8307420  74.0020800
   5.9524030  65.6092580  79.8001090   6.4702700  64.8060840  79.7457980
   5.5008050  65.5471720  80.6417920  10.8393530  66.8758860  75.0728390
  11.1809230  67.6201090  74.5771710  10.0106240  67.1889980  75.4353220
  17.1147210  62.0147010  73.8620080  17.0310930  62.4461230  73.0116520
  17.8341400  62.4745360  74.2946900  18.1434460  68.8689270  76.5902210
  17.5010620  68.2144890  76.8645930  17.7565120  69.2744360  75.8142880
  13.7220940  66.1974700  80.4373900  14.0744760  65.6002830  79.7775270
  12.8383270  65.8718930  80.6082150   9.8084220  66.9572390  77.8444310
  10.4955350  67.5041600  78.2251900   9.0216640  67.5013120  77.8793920
   9.1111430  63.9618420  77.4569670   9.5674210  64.7723670  77.6829860
   8.7599640  63.6441560  78.2888160  11.4144040  69.4724760  84.6861970
  12.0586260  69.6784140  85.3635390  11.7773480  68.7113160  84.2332820
   5.0123210  54.3056070  77.9292190   4.8837840  54.2973970  78.8777110
   4.1885230  54.6439160  77.5783200  12.6876120  67.4757110  83.4039420
  13.3298350  66.7750270  83.5171590  13.2125470  68.2555550  83.2236310
  16.5331840  67.7605730  73.1278560  16.3069420  67.0436170  73.7203200
  16.1428040  67.5118170  72.2900310   2.3147870  71.7872590  73.9023020
   2.6745510  72.3861930  73.2480290   2.1740210  72.3332480  74.6758050
  16.1148090  65.6777670  74.7892720  15.8269790  66.1390360  75.5770600
  16.9100260  65.2175440  75.0576940   8.3316490  69.1703790  74.7196690
   8.3226590  69.9033480  74.1041200   7.4114850  68.9235370  74.8123650
   3.9323130  64.3918680  75.4643450   3.3251080  65.1317580  75.4738750
   4.4072480  64.4818040  74.6381650  13.5055920  58.5569500  85.1400340
  13.8736740  57.7364710  85.4679910  12.6454120  58.6171390  85.5555990
  16.8717950  57.5126440  75.9487900  16.2431110  57.6172110  75.2346130
  16.3769870  57.7323220  76.7381780  11.3176090  69.2332030  73.3821880
  11.4188070  69.0296020  72.4523860  10.4177830  68.9790310  73.5869660
   8.8401980  59.7912390  77.3645780   8.1318130  60.2598730  77.8059390
   9.1246460  59.1334400  77.9990970  12.8717410  56.5163050  78.8041570
  12.7485190  56.5349180  77.8551080  13.8201970  56.5641990  78.9239970
   9.9594200  71.7518350  78.0769550  10.2135700  71.7139740  77.1548920
   9.0106680  71.6251680  78.0697800   7.0437000  58.0997470  74.7396490
   7.8927530  58.5367620  74.6736680   6.6768270  58.4117730  75.5668550
  15.9646780  62.6710230  79.6528060  15.0236920  62.6860460  79.8275750
  16.2790850  61.8846190  80.0988360   5.9428420  64.3529830  73.2132020
   6.7091690  64.2411190  73.7757450   6.0203110  63.6567800  72.5608790
   4.6375180  61.7854900  73.8964910   4.7178770  60.8382410  74.0082310
   5.5294930  62.1161780  74.0025570  17.9672360  69.8419080  81.3282320
  18.0919780  70.6650250  81.8006130  18.8337920  69.6309810  80.9806470
   5.4389890  71.9350290  80.9999450   6.1752370  71.3865750  81.2708020
   5.8230810  72.8006300  80.8605440   8.5492200  71.1080600  72.8225020
   9.3420810  71.3969430  72.3706810   8.0296550  70.6772770  72.1437500
  17.6022370  70.3350730  74.2461760  17.3163880  69.9215870  73.4315940
  17.4041920  71.2638440  74.1262280   9.0669600  66.3284010  72.6867370
   8.9620240  65.7136360  73.4128750   8.8993820  65.8049900  71.9030380
  12.3072330  65.3904040  73.2909360  11.7582430  65.8373340  73.9352100
  12.9291590  64.8853290  73.8147030   7.9747450  64.3494960  75.1874660
   8.3963870  64.1834830  76.0306050   8.0998290  63.5395190  74.6929800
  10.4875090  63.3732570  72.4351760  11.0080750  62.6581590  72.0692910
  11.1343490  64.0118440  72.7352270   9.3908610  55.8527120  85.1070320
   8.9425910  55.8751380  84.2615870   8.7573810  55.4546140  85.7040620
   9.7968160  64.7481450  85.7282760  10.2156270  65.5914180  85.5559000
   8.8776790  64.8853490  85.4989540   6.8706350  60.4228190  72.1332820
   6.6695410  59.5595550  72.4946160   6.6998400  60.3361550  71.1954420
  14.3494660  55.2336420  74.6619700  14.6296950  54.3904320  75.0179120
  13.5760390  55.4659530  75.1758450   5.6689150  57.5228810  72.1210700
   5.9715050  57.5296240  71.2129850   6.4083740  57.1726670  72.6178360
   8.8874080  56.4663430  73.1066900   8.5396080  55.7887420  72.5269350
   9.0886850  56.0052940  73.9210290  11.0523120  71.4544180  74.7253500
  11.9473910  71.7929150  74.7472260  11.0840750  70.7323590  74.0977780
   4.6919280  66.8271230  72.9540500   5.1294150  67.3700900  73.6098080
   5.1767010  66.0018180  72.9636840   1.9065080  69.6160260  80.4060760
   2.2368090  68.7481320  80.1739400   2.3356080  69.8218780  81.2365720
   6.5027000  67.9469270  78.0662730   6.2022540  67.8234240  78.9666640
   6.3964490  67.0877860  77.6578460   2.3955290  70.4830850  83.1442390
   1.9586280  70.6631650  83.9766540   2.9632970  71.2405470  83.0024110
  19.2718920  67.7265670  72.7689410  18.4411880  67.7942320  73.2396640
  19.4490750  68.6169790  72.4656270  18.7275380  64.4713150  75.2723610
  19.4894290  65.0409800  75.3783300  18.7429750  63.9040350  76.0431920
   2.2279720  62.9951080  79.5031270   1.5728560  62.7262720  78.8590970
   3.0657670  62.8855560  79.0533250  19.7335350  65.3263250  80.1165540
  20.1044180  64.5430570  79.7101510  20.3737280  66.0152350  79.9382840
  16.7169110  66.7099830  85.5295860  15.9028950  67.1396990  85.7921650
  17.1243310  67.3218240  84.9164910  18.7794550  64.7647520  72.4296130
  19.0543390  65.6726400  72.3015350  18.5905290  64.7010050  73.3658120
  15.1770160  57.7892370  73.7249760  15.5955040  57.6023350  72.8846420
  14.8706220  56.9371420  74.0352690  18.6759890  62.7016510  77.4225560
  18.3003490  61.9344440  76.9906850  17.9463010  63.0839210  77.9100490
   3.2655650  63.3803650  84.0434610   3.6328690  63.2931050  84.9230630
   2.6966470  62.6170200  83.9441470  17.9510850  60.9274000  80.7232800
  18.4748330  60.4336650  80.0922970  18.5370270  61.0624360  81.4680370
  18.1300570  61.0113870  84.2452350  17.1803280  60.9777410  84.3597340
  18.3113580  61.9213980  84.0102120   3.9845010  59.2615550  73.3550980
   4.6936710  58.8398770  72.8698260   3.2684950  59.3290780  72.7234330
   3.6319170  55.3154880  72.3953630   4.3547300  55.8563820  72.7134850
   3.9043690  55.0418300  71.5195170  17.4410820  60.1847350  76.6625210
  17.9369940  59.9518220  77.4474090  17.2426890  59.3459190  76.2462850
   3.3211360  54.5661070  82.2976250   3.9687550  54.0158450  81.8571410
   3.7413200  54.8204220  83.1192060  18.8697980  58.8208300  79.1962890
  18.7597260  58.6664340  80.1345160  19.6305570  58.2929240  78.9538300
  19.7588250  56.6516220  72.4369030  20.6837560  56.5197400  72.2287320
  19.7364040  56.7309040  73.3905480  19.8326740  57.4226880  75.0625740
  19.0378240  57.3572000  75.5918650  20.0370020  58.3577520  75.0511090
  16.7745160  71.4618430  79.0564130  17.3704230  71.1403000  78.3798550
  17.0323310  70.9890250  79.8477400   3.0743360  54.7216740  85.0401570
   2.7258180  55.1780560  85.8059750   2.7431060  53.8273870  85.1224000
   8.3813760  69.4495930  84.8064480   8.1405120  69.7170490  83.9195000
   9.3216400  69.6201660  84.8615340  13.9650780  54.1330820  84.5282570
  13.0910620  54.4665930  84.3255500  13.8561530  53.6604000  85.3534440
  14.8722760  56.3401690  85.9124290  14.5436120  55.5253450  85.5326020
  15.8205060  56.2971500  85.7889980  17.3257370  72.1113730  82.8861860
  16.8660340  72.8629540  82.5119880  16.6969830  71.3920200  82.8276660
   4.1507990  68.2056970  85.2760580   3.4242050  67.5862260  85.2086530
   4.2117140  68.5997580  84.4058660   7.7553090  70.4201970  82.0609990
   8.2718110  69.8089330  81.5358250   8.4050470  70.9230750  82.5521000
  10.4948590  71.3110460  82.8878970  10.7826400  71.0564760  82.0111980
  11.0071810  70.7587820  83.4784540  11.7125600  55.0500660  83.4675480
  10.9297390  55.5246160  83.7472240  11.4188530  54.1455490  83.3588660
  16.2646670  55.7523760  81.5124570  16.7054760  55.6968860  80.6646170
  15.9954260  56.6681770  81.5834750  18.1285240  55.3839000  79.5233390
  18.0673640  54.4400220  79.3764410  18.9077270  55.4919090  80.0686850
   2.4337990  71.5231360  78.4857340   2.2660030  70.8902040  79.1839230
   1.5672500  71.7290760  78.1351530   3.0566010  55.3548140  75.9889200
   3.8145370  55.4677020  75.4153230   2.5943180  56.1917340  75.9432630
   9.5979820  57.4687410  78.9791510   8.7854330  57.0944300  78.6387390
  10.1021460  56.7132490  79.2812700  14.1004800  54.1329860  80.2174580
  14.7034170  54.7050070  80.6923100  13.3597790  54.6969300  79.9948480
  17.2439400  54.5351420  75.4914860  17.4390030  55.4334870  75.7582290
  16.4569270  54.3038500  75.9847810   4.0400690  70.2164590  75.9307480
   3.5148310  70.5972620  75.2269440   3.9645270  70.8415360  76.6517190
   5.4291160  55.8812190  74.5291170   5.9583920  55.0941990  74.3999120
   6.0619480  56.5603380  74.7626700   7.6229000  55.6187330  77.5836560
   6.9931740  54.9174640  77.7506690   7.0834140  56.3791460  77.3669720
  18.7966010  71.7752130  77.2521420  18.9718200  71.0889870  76.6082340
  18.0987580  72.2999180  76.8598090   6.6393660  72.1646970  74.8056730
   7.3712480  71.8806250  74.2580620   6.8987330  71.9260250  75.6956110
   5.8008450  68.2811700  74.8103060   5.1717330  68.7496800  75.3588890
   5.9156280  67.4360920  75.2449250  13.2558170  62.3317360  60.9604260
  13.1752220  61.4171970  60.6895970  12.8422590  62.8284430  60.2543970
  11.3876210  64.1096380  62.8413530  10.6118310  63.6296820  63.1312100
  12.0389140  63.4302030  62.6669690   5.4042040  64.4216190  63.7189290
   4.5726920  64.1664900  64.1185800   6.0123020  64.4926960  64.4547210
  15.4083640  68.5156570  61.6212660  14.9465170  67.7443810  61.9499830
  16.2209190  68.5422640  62.1265110   5.3843300  68.4556280  63.9147310
   5.6871340  67.5654020  63.7357530   6.1286890  69.0126500  63.6869560
   3.8133990  59.3818080  57.5031680   2.9250690  59.7234050  57.4011560
   4.0975180  59.1818400  56.6112510   1.7767000  61.9823730  63.3871380
   2.3483110  61.2145930  63.3875020   1.7768540  62.2812490  62.4777990
  11.6346950  70.8014580  61.2416650  11.0158390  71.2572080  60.6711090
  12.4898730  70.9566040  60.8406350  10.8285200  66.7853570  62.8483690
  10.7593480  65.8443510  62.6872820  11.5905060  66.8754980  63.4206260
   3.0191870  57.3908090  65.1740310   2.8394710  56.4933840  65.4543070
   2.6171950  57.9379960  65.8487260  11.8590370  59.5923950  63.0752620
  12.2355190  58.7195830  62.9626290  11.7609880  59.9282650  62.1843060
   5.9895380  57.9649580  58.5370060   6.0962130  58.8653310  58.8438820
   5.0787740  57.9167550  58.2464710  15.6414490  57.0874390  60.0080960
  16.4624110  56.5970960  60.0506440  15.6748570  57.6772050  60.7612800
   3.6378540  59.8868590  63.7822650   4.3188650  60.1506960  64.4010050
   3.3226590  59.0469460  64.1160660   7.8303110  60.9335950  62.8695240
   8.3381330  61.4316920  63.5100260   8.3616350  60.1571150  62.6934600
  19.9314040  59.1041140  66.5724590  19.2266210  59.4922850  66.0539700
  20.1971960  59.7991430  67.1745520   6.1139210  55.5734510  67.1358660
   6.1157650  56.0906900  66.3304560   5.2843520  55.0964690  67.1128590
  12.5010300  65.6853820  58.6348560  11.8827570  66.1503270  58.0711280
  13.0133550  66.3781300  59.0518070   7.3642060  65.2129690  65.3132160
   7.0311440  65.8398610  65.9553230   7.5408740  65.7391570  64.5333830
  15.8775970  59.0274770  62.7808500  15.1731540  59.3159660  63.3611610
  16.2388130  59.8374880  62.4208060   5.7954540  57.2844470  65.1429110
   6.1371350  58.1286520  64.8482980   4.8570350  57.4328210  65.2594450
   6.5761160  67.1810490  67.1281340   7.1935160  67.8561570  66.8465790
   5.7154280  67.5898470  67.0368840  17.4938750  68.6449900  65.0435980
  16.8102270  69.3149010  65.0352650  18.0333040  68.8430550  64.2780840
  18.9462890  58.4729560  63.1717710  17.9987800  58.5068540  63.3033140
  19.2712880  59.2868510  63.5567070   9.4782430  54.7726740  61.4673700
   9.7857410  54.2173630  60.7509200   8.5483130  54.9071200  61.2846690
  15.0297490  70.4894030  63.7581160  15.0424650  70.0856320  62.8903420
  14.4772710  71.2641320  63.6542590  16.3242910  67.2110250  58.8471330
  16.2139240  66.2684580  58.9720750  16.3211160  67.5725890  59.7334090
  14.4282930  65.3923870  65.0863770  14.8451720  65.1783980  64.2517230
  15.1522750  65.6496660  65.6572390  11.8663190  62.8375570  58.2033820
  10.9392470  62.7712950  58.4322290  12.0188010  63.7755700  58.0889060
  11.8532270  59.1092570  55.2000980  10.9135940  59.2706530  55.2853440
  12.1715530  59.8278250  54.6536970  18.3745030  63.7911090  65.1780010
  17.5463660  63.8604180  64.7030140  18.9695510  64.3765400  64.7095840
  15.8960480  64.3995870  58.7069070  15.2772900  64.0615420  58.0595370
  15.8784930  63.7555630  59.4148260  15.3387040  60.5780410  66.1234880
  14.9258220  61.4034120  66.3774870  14.6062990  59.9925450  65.9311240
   7.4719830  63.3640310  60.9853550   7.0676830  62.6517560  60.4899450
   7.5582950  63.0193550  61.8741590   7.9401530  67.0507870  63.1492760
   7.6429820  66.4453340  62.4700540   8.8901350  67.0885180  63.0382120
   6.1848450  60.1383520  64.7652590   6.7363040  60.2478860  63.9905840
   6.6991960  60.5121120  65.4807820  16.0287140  70.6239740  66.8115860
  15.5517700  71.4311930  66.6188470  15.3448930  69.9718070  66.9642070
   7.0319960  66.7889560  69.8000560   6.1348490  67.0129530  70.0473960
   7.0572830  66.9124500  68.8511960  14.0725180  63.6382680  55.7141820
  14.5118460  62.8005110  55.5679640  14.7853600  64.2712080  55.8005960
   5.8591180  63.6602880  68.3757930   5.7198950  64.5325680  68.7445330
   4.9772540  63.3175690  68.2305870  12.1820560  68.5778750  59.6823060
  12.6216470  69.3203080  59.2678450  12.1207450  68.8205320  60.6062020
   7.6571530  69.6024580  70.5843080   7.6286960  70.0067530  69.7171510
   7.4936500  68.6734940  70.4214680  17.6542320  54.8925490  54.0282860
  17.3414980  54.9852320  54.9281930  18.4154790  55.4706520  53.9780290
   4.1724460  62.2585290  58.4860200   4.0522060  62.9847380  57.8741470
   3.8625350  61.4888200  58.0088110  19.6086350  70.3851680  71.8807250
  20.0846070  70.8634570  72.5596330  20.2293510  70.3169170  71.1552750
   1.8109830  65.4300430  64.2928840   1.8890250  65.5649200  63.3484560
   2.4251510  64.7216320  64.4856960   3.0557460  67.1300620  60.7035020
   2.6485540  67.2715210  59.8488620   3.9470470  66.8460780  60.5006230
  19.0119600  67.5764530  69.0407260  19.1382660  67.3376410  68.1224440
  19.0540980  66.7449070  69.5129340  12.8736340  71.2792530  67.6102070
  13.3881010  71.1900540  68.4124500  12.0305420  71.6252230  67.9029980
  14.8490740  71.5647870  57.0386070  14.6891880  71.2750810  57.9367900
  14.6837450  70.7888000  56.5031300   7.3279120  71.3446400  58.8157690
   7.1521600  70.4281940  58.6025490   6.4734860  71.7033690  59.0555490
  14.5516870  69.0735430  55.5984070  13.8582030  69.0712720  54.9386350
  15.2939730  68.6494750  55.1678240  14.1166800  70.6998140  59.6732560
  14.5723750  69.9187520  59.9871180  14.4559320  71.4104960  60.2173740
  18.8643610  59.6296990  70.0057000  18.2487880  60.1376660  69.4772460
  18.5440030  58.7295320  69.9482940   1.8669350  66.4714600  66.8323300
   2.0300390  66.0019960  66.0142670   2.3321800  65.9638160  67.4972140
   6.6388120  55.6020360  61.8683870   6.1956270  56.3829900  61.5368390
   7.1973110  55.9250250  62.5754810  10.9257930  58.4688880  67.4719190
  10.4637300  58.6771900  68.2839130  10.5236040  57.6548230  67.1689860
  15.9262440  59.6897830  68.6015850  15.0756030  59.3903580  68.9224920
  15.7664230  59.9339840  67.6899670  13.0212150  61.1899580  70.7014640
  13.3465560  60.3563330  70.3616870  13.8092480  61.7128100  70.8492970
   9.7546940  55.2231060  56.7489700   9.1301120  55.2190930  57.4743010
   9.6677060  54.3562020  56.3525670   8.6764020  56.1467690  63.7273470
   8.9736350  57.0530520  63.6465490   9.2249580  55.6586470  63.1133040
   6.4302340  60.7253930  59.5965120   6.2043260  60.5091100  60.5011740
   5.6494870  61.1582390  59.2511090  13.6600100  60.7317300  58.1955770
  13.0608990  61.4553100  58.0119390  14.2079710  60.6694080  57.4132220
   8.8701550  61.6239510  70.2625390   8.7745150  60.6834240  70.1125790
   9.7133530  61.8454580  69.8673460  12.2664970  59.3680840  60.2259050
  12.6594540  59.6853040  59.4127740  12.6281820  58.4892720  60.3403570
   4.0012090  58.0353180  68.4159170   3.6075480  58.8828390  68.6231950
   3.3130490  57.3979550  68.6067810  10.5757140  58.1188150  71.4855910
   9.8855460  57.9260350  72.1202000  11.3189440  58.4022790  72.0180210
  12.8520110  61.9586590  64.3209830  12.1201230  62.4673400  64.6699930
  12.4544450  61.1416570  64.0198610   9.2897500  58.6340790  62.7262320
   9.2933560  58.1930740  61.8766860  10.1848620  58.9558120  62.8334140
   5.1399880  58.5167280  61.6856530   4.7999930  58.9942510  62.4423580
   4.3777200  58.0632400  61.3257630   9.3517650  59.6352870  55.7169080
   9.4730470  59.5939350  56.6654900   8.9666160  60.4977020  55.5615810
  13.3146020  57.4120270  63.7332770  13.3318760  57.8628920  64.5774620
  13.0661600  56.5125910  63.9466210   8.3639150  61.9454010  55.1152380
   7.7956050  61.4972260  54.4888290   9.0728150  62.3046790  54.5817530
  16.7416770  54.8252450  69.5719150  17.0662540  54.0942110  70.0977130
  16.7773280  54.5066090  68.6700140   3.4408330  65.8466030  68.9919110
   3.0563120  65.2059700  69.5902070   3.7520520  66.5502150  69.5613840
   9.5905470  62.6942570  64.4727730   9.9575600  62.2201140  65.2189070
   9.4010530  63.5684140  64.8136070   2.4545960  57.4386260  60.6021200
   2.1692880  57.0741930  61.4399820   2.3924820  56.7066720  59.9884340
   7.3804840  61.7351210  66.7911940   7.0761910  62.6143190  67.0162300
   8.3351300  61.7951000  66.8269380   5.9086630  65.9412200  57.3878790
   5.1348890  65.4009820  57.2277510   6.6381260  65.4218810  57.0496550
  16.6674610  64.9377560  63.1805180  17.3873730  65.4332850  62.7901290
  16.4656430  64.2595450  62.5359050  12.1284550  56.3315520  57.3234570
  11.3149160  55.8328690  57.2479880  11.9346500  57.1713770  56.9070920
  12.0493410  65.0086620  69.0674180  11.9830720  64.0882290  68.8131770
  11.4198550  65.1062060  69.7818820  14.8432940  60.7035170  55.6196730
  15.7312560  61.0152400  55.4448070  14.8138030  59.8307420  55.2277310
   5.9524030  65.6092580  61.0257600   6.4702700  64.8060840  60.9714490
   5.5008050  65.5471720  61.8674430  10.8393530  66.8758860  56.2984900
  11.1809230  67.6201090  55.8028220  10.0106240  67.1889980  56.6609730
   3.4368570  62.5753950  67.9383300   3.0783510  63.2407800  68.5256640
   3.1423130  61.7437500  68.3095920   6.6381690  63.0338190  70.8222850
   6.3381830  63.1795370  69.9250670   7.4092930  62.4743480  70.7296240
  11.9810140  67.8307190  68.8177980  11.9954680  66.8988150  68.5996890
  11.2735240  67.9166950  69.4567750  17.1147210  62.0147010  55.0876590
  17.0310930  62.4461230  54.2373030  17.8341400  62.4745360  55.5203410
  18.1921350  64.4714530  68.1646560  17.4669540  65.0643310  67.9675950
  18.7196810  64.4638070  67.3659930  18.1434460  68.8689270  57.8158720
  17.5010620  68.2144890  58.0902440  17.7565120  69.2744360  57.0399390
  13.7220940  66.1974700  61.6630410  14.0744760  65.6002830  61.0031780
  12.8383270  65.8718930  61.8338660   9.8084220  66.9572390  59.0700820
  10.4955350  67.5041600  59.4508410   9.0216640  67.5013120  59.1050430
   9.1111430  63.9618420  58.6826180   9.5674210  64.7723670  58.9086370
   8.7599640  63.6441560  59.5144670  11.4144040  69.4724760  65.9118480
  12.0586260  69.6784140  66.5891900  11.7773480  68.7113160  65.4589330
   5.0123210  54.3056070  59.1548700   4.8837840  54.2973970  60.1033620
   4.1885230  54.6439160  58.8039710  12.6876120  67.4757110  64.6295930
  13.3298350  66.7750270  64.7428100  13.2125470  68.2555550  64.4492820
  16.5331840  67.7605730  54.3535070  16.3069420  67.0436170  54.9459710
  16.1428040  67.5118170  53.5156820  14.4613740  68.2752010  67.8331990
  14.7969980  68.8618700  68.5109910  13.5414080  68.1444720  68.0629780
   2.3147870  71.7872590  55.1279530   2.6745510  72.3861930  54.4736800
   2.1740210  72.3332480  55.9014560  16.1148090  65.6777670  56.0149230
  15.8269790  66.1390360  56.8027110  16.9100260  65.2175440  56.2833450
   2.2989730  70.0527450  69.6021930   2.4080850  69.1122190  69.4617320
   1.6470290  70.3182200  68.9535660  10.2902320  68.3243340  71.0020050
   9.9699190  67.6052580  71.5465740   9.6160680  68.9998410  71.0756110
   8.3316490  69.1703790  55.9453200   8.3226590  69.9033480  55.3297710
   7.4114850  68.9235370  56.0380160   3.9323130  64.3918680  56.6899960
   3.3251080  65.1317580  56.6995260   4.4072480  64.4818040  55.8638160
  13.5055920  58.5569500  66.3656850  13.8736740  57.7364710  66.6936420
  12.6454120  58.6171390  66.7812500  16.8717950  57.5126440  57.1744410
  16.2431110  57.6172110  56.4602640  16.3769870  57.7323220  57.9638290
  11.3176090  69.2332030  54.6078390  11.4188070  69.0296020  53.6780370
  10.4177830  68.9790310  54.8126170   8.8401980  59.7912390  58.5902290
   8.1318130  60.2598730  59.0315900   9.1246460  59.1334400  59.2247480
  10.4657910  61.2109090  66.5894820  10.9643160  61.6854910  67.2546670
  10.6080860  60.2872610  66.7964850  12.8717410  56.5163050  60.0298080
  12.7485190  56.5349180  59.0807590  13.8201970  56.5641990  60.1496480
   9.9594200  71.7518350  59.3026060  10.2135700  71.7139740  58.3805430
   9.0106680  71.6251680  59.2954310   7.0437000  58.0997470  55.9653000
   7.8927530  58.5367620  55.8993190   6.6768270  58.4117730  56.7925060
  17.6724770  57.4277050  67.4323210  17.1698370  58.1682450  67.7717020
  18.4881430  57.8161050  67.1160000  15.9646780  62.6710230  60.8784570
  15.0236920  62.6860460  61.0532260  16.2790850  61.8846190  61.3244870
   5.9428420  64.3529830  54.4388530   6.7091690  64.2411190  55.0013960
   6.0203110  63.6567800  53.7865300   4.6375180  61.7854900  55.1221420
   4.7178770  60.8382410  55.2338820   5.5294930  62.1161780  55.2282080
  17.9672360  69.8419080  62.5538830  18.0919780  70.6650250  63.0262640
  18.8337920  69.6309810  62.2062980   5.4389890  71.9350290  62.2255960
   6.1752370  71.3865750  62.4964530   5.8230810  72.8006300  62.0861950
   4.4448170  71.1196360  71.4141540   5.2460900  71.4408410  71.8276940
   3.9299990  70.7591940  72.1361450   8.5492200  71.1080600  54.0481530
   9.3420810  71.3969430  53.5963320   8.0296550  70.6772770  53.3694010
  13.2812800  67.2276230  71.3616950  12.6750960  67.2507830  70.6212700
  12.9766910  66.4959270  71.8984200  14.7113170  70.9556520  69.9726360
  15.6634920  70.8714540  69.9226600  14.5641390  71.6198230  70.6460150
  17.6022370  70.3350730  55.4718270  17.3163880  69.9215870  54.6572450
  17.4041920  71.2638440  55.3518790   9.0669600  66.3284010  53.9123880
   8.9620240  65.7136360  54.6385260   8.8993820  65.8049900  53.1286890
   9.2183920  65.0140810  69.8913110   8.4529590  65.5825810  69.8067780
   9.3999880  64.7217020  68.9981340  12.3072330  65.3904040  54.5165870
  11.7582430  65.8373340  55.1608610  12.9291590  64.8853290  55.0403540
  16.3607270  66.7446140  70.4488130  17.1016740  67.0821900  69.9455590
  15.5979950  66.9138200  69.8957900   4.1969060  61.7499410  71.2527660
   4.2374400  61.4513280  72.1612890   5.0514560  62.1507020  71.0935180
   7.9747450  64.3494960  56.4131170   8.3963870  64.1834830  57.2562560
   8.0998290  63.5395190  55.9186310   6.1374870  60.3291510  69.2202150
   5.6071330  59.8382460  68.5925490   6.8062940  60.7575710  68.6860080
  10.4875090  63.3732570  53.6608270  11.0080750  62.6581590  53.2949420
  11.1343490  64.0118440  53.9608780  15.0352930  64.7960970  68.9843340
  15.4493950  64.9506050  69.8333760  14.1003930  64.9216190  69.1469120
  15.5075100  62.1357130  70.9882490  16.0895870  61.3809450  70.9002970
  15.6836870  62.6664570  70.2113970   6.6247170  57.2953880  69.2999440
   6.5304040  56.6774630  68.5750310   6.0444560  58.0220170  69.0729350
   9.3908610  55.8527120  66.3326830   8.9425910  55.8751380  65.4872380
   8.7573810  55.4546140  66.9297130   9.7968160  64.7481450  66.9539270
  10.2156270  65.5914180  66.7815510   8.8776790  64.8853490  66.7246050
  12.1332060  62.4797630  68.3377110  12.2528270  61.8838770  69.0771950
  12.9926060  62.5167320  67.9178410  14.4719960  63.0334820  66.9139620
  13.9455180  63.5577440  66.3104760  14.8151300  63.6662210  67.5449350
   6.8706350  60.4228190  53.3589330   6.6695410  59.5595550  53.7202670
   6.6998400  60.3361550  52.4210930   7.6475580  71.0534460  68.0697000
   7.1096670  71.7780520  67.7505700   7.9009540  70.5764800  67.2794340
   8.9000830  59.0218980  69.5952930   9.4900520  58.7134830  70.2830750
   8.0821070  58.5498730  69.7512830  13.7194260  58.6384790  69.8285950
  13.0309780  57.9766330  69.7635940  14.4400280  58.1923060  70.2734410
  14.3494660  55.2336420  55.8876210  14.6296950  54.3904320  56.2435630
  13.5760390  55.4659530  56.4014960   5.6689150  57.5228810  53.3467210
   5.9715050  57.5296240  52.4386360   6.4083740  57.1726670  53.8434870
  10.5037790  72.2885670  68.3283650  10.4296490  73.1920810  68.6356020
   9.6016630  71.9697570  68.3005720   8.8874080  56.4663430  54.3323410
   8.5396080  55.7887420  53.7525860   9.0886850  56.0052940  55.1466800
  11.0523120  71.4544180  55.9510010  11.9473910  71.7929150  55.9728770
  11.0840750  70.7323590  55.3234290   4.6919280  66.8271230  54.1797010
   5.1294150  67.3700900  54.8354590   5.1767010  66.0018180  54.1893350
   1.9065080  69.6160260  61.6317270   2.2368090  68.7481320  61.3995910
   2.3356080  69.8218780  62.4622230   6.5027000  67.9469270  59.2919240
   6.2022540  67.8234240  60.1923150   6.3964490  67.0877860  58.8834970
   2.3955290  70.4830850  64.3698900   1.9586280  70.6631650  65.2023050
   2.9632970  71.2405470  64.2280620  18.0317470  69.9847850  68.6576210
  17.4319460  70.0440410  67.9140130  18.1611370  69.0452830  68.7873060
  19.2718920  67.7265670  53.9945920  18.4411880  67.7942320  54.4653150
  19.4490750  68.6169790  53.6912780  18.7275380  64.4713150  56.4980120
  19.4894290  65.0409800  56.6039810  18.7429750  63.9040350  57.2688430
   2.2279720  62.9951080  60.7287780   1.5728560  62.7262720  60.0847480
   3.0657670  62.8855560  60.2789760  19.7335350  65.3263250  61.3422050
  20.1044180  64.5430570  60.9358020  20.3737280  66.0152350  61.1639350
  16.7169110  66.7099830  66.7552370  15.9028950  67.1396990  67.0178160
  17.1243310  67.3218240  66.1421420  18.7794550  64.7647520  53.6552640
  19.0543390  65.6726400  53.5271860  18.5905290  64.7010050  54.5914630
  15.1770160  57.7892370  54.9506270  15.5955040  57.6023350  54.1102930
  14.8706220  56.9371420  55.2609200  18.6759890  62.7016510  58.6482070
  18.3003490  61.9344440  58.2163360  17.9463010  63.0839210  59.1357000
   3.2655650  63.3803650  65.2691120   3.6328690  63.2931050  66.1487140
   2.6966470  62.6170200  65.1697980  18.0659510  61.8488030  68.2821590
  17.8345600  61.6200780  67.3819540  18.3264060  62.7687580  68.2366480
   2.8171650  60.2912740  69.1749540   1.9227700  60.2579500  69.5143250
   3.3569200  60.4899530  69.9400790  16.5047580  57.0744460  71.0601290
  17.3817760  57.0827860  71.4435290  16.5168420  56.3375300  70.4493640
  17.9510850  60.9274000  61.9489310  18.4748330  60.4336650  61.3179480
  18.5370270  61.0624360  62.6936880  18.1300570  61.0113870  65.4708860
  17.1803280  60.9777410  65.5853850  18.3113580  61.9213980  65.2358630
   3.9845010  59.2615550  54.5807490   4.6936710  58.8398770  54.0954770
   3.2684950  59.3290780  53.9490840   3.6319170  55.3154880  53.6210140
   4.3547300  55.8563820  53.9391360   3.9043690  55.0418300  52.7451680
  17.4410820  60.1847350  57.8881720  17.9369940  59.9518220  58.6730600
  17.2426890  59.3459190  57.4719360   3.3211360  54.5661070  63.5232760
   3.9687550  54.0158450  63.0827920   3.7413200  54.8204220  64.3448570
  18.8697980  58.8208300  60.4219400  18.7597260  58.6664340  61.3601670
  19.6305570  58.2929240  60.1794810  17.2163700  54.7602430  66.8802400
  17.8535920  55.3736570  67.2461590  17.3638590  54.7963090  65.9351630
  19.7588250  56.6516220  53.6625540  20.6837560  56.5197400  53.4543830
  19.7364040  56.7309040  54.6161990  19.8326740  57.4226880  56.2882250
  19.0378240  57.3572000  56.8175160  20.0370020  58.3577520  56.2767600
  16.7745160  71.4618430  60.2820640  17.3704230  71.1403000  59.6055060
  17.0323310  70.9890250  61.0733910   3.0743360  54.7216740  66.2658080
   2.7258180  55.1780560  67.0316260   2.7431060  53.8273870  66.3480510
   4.6807730  67.8936340  70.4311270   4.6377360  67.5229250  71.3125730
   4.8118740  68.8313910  70.5713090   8.3813760  69.4495930  66.0320990
   8.1405120  69.7170490  65.1451510   9.3216400  69.6201660  66.0871850
  10.5868180  55.9128620  69.7877500  10.5257070  56.5050450  70.5372910
  11.5268560  55.8054580  69.6427760  13.2242740  55.5698680  69.4269790
  13.8383150  55.8877970  68.7650870  13.7692300  55.0847270  70.0465650
  19.6417920  71.4690310  66.8331630  19.1476200  71.8659180  66.1158760
  19.0331210  70.8439520  67.2268910   3.7464000  54.2492940  69.5408850
   4.2946990  54.0680990  68.7774960   3.8119310  53.4587050  70.0765160
   4.5195760  70.8398590  67.5509050   3.9256080  70.7083290  68.2899090
   4.5119600  70.0036730  67.0851150  13.9650780  54.1330820  65.7539080
  13.0910620  54.4665930  65.5512010  13.8561530  53.6604000  66.5790950
  14.8722760  56.3401690  67.1380800  14.5436120  55.5253450  66.7582530
  15.8205060  56.2971500  67.0146490  17.3257370  72.1113730  64.1118370
  16.8660340  72.8629540  63.7376390  16.6969830  71.3920200  64.0533170
   4.1507990  68.2056970  66.5017090   3.4242050  67.5862260  66.4343040
   4.2117140  68.5997580  65.6315170   7.7553090  70.4201970  63.2866500
   8.2718110  69.8089330  62.7614760   8.4050470  70.9230750  63.7777510
  10.4948590  71.3110460  64.1135480  10.7826400  71.0564760  63.2368490
  11.0071810  70.7587820  64.7041050  11.7125600  55.0500660  64.6931990
  10.9297390  55.5246160  64.9728750  11.4188530  54.1455490  64.5845170
  16.2646670  55.7523760  62.7381080  16.7054760  55.6968860  61.8902680
  15.9954260  56.6681770  62.8091260  18.1285240  55.3839000  60.7489900
  18.0673640  54.4400220  60.6020920  18.9077270  55.4919090  61.2943360
   2.4337990  71.5231360  59.7113850   2.2660030  70.8902040  60.4095740
   1.5672500  71.7290760  59.3608040   3.0566010  55.3548140  57.2145710
   3.8145370  55.4677020  56.6409740   2.5943180  56.1917340  57.1689140
   9.5979820  57.4687410  60.2048020   8.7854330  57.0944300  59.8643900
  10.1021460  56.7132490  60.5069210  14.1004800  54.1329860  61.4431090
  14.7034170  54.7050070  61.9179610  13.3597790  54.6969300  61.2204990
  17.2439400  54.5351420  56.7171370  17.4390030  55.4334870  56.9838800
  16.4569270  54.3038500  57.2104320   4.0400690  70.2164590  57.1563990
   3.5148310  70.5972620  56.4525950   3.9645270  70.8415360  57.8773700
   5.4291160  55.8812190  55.7547680   5.9583920  55.0941990  55.6255630
   6.0619480  56.5603380  55.9883210   7.6229000  55.6187330  58.8093070
   6.9931740  54.9174640  58.9763200   7.0834140  56.3791460  58.5926230
  10.5620950  72.2326560  71.4803680  11.4888260  71.9970830  71.5239640
  10.5471380  73.0598560  70.9989710  18.7966010  71.7752130  58.4777930
  18.9718200  71.0889870  57.8338850  18.0987580  72.2999180  58.0854600
   7.7484560  54.8971310  71.2445560   7.4668830  55.4004910  70.4806380
   8.1304260  54.0993060  70.8787690   6.6393660  72.1646970  56.0313240
   7.3712480  71.8806250  55.4837130   6.8987330  71.9260250  56.9212620
   5.8008450  68.2811700  56.0359570   5.1717330  68.7496800  56.5845400
   5.9156280  67.4360920  56.4705760  14.3500020  54.3124890  71.8226030
  14.2365470  54.6319500  72.7177550  15.1669760  54.7137400  71.5263310
  17.1298510  71.4596420  71.3044720  17.9223830  70.9645650  71.0970680
  17.4231660  72.1386560  71.9120330  13.2558170  62.3317360  42.1860770
  13.1752220  61.4171970  41.9152480  12.8422590  62.8284430  41.4800480
  11.3876210  64.1096380  44.0670040  10.6118310  63.6296820  44.3568610
  12.0389140  63.4302030  43.8926200   5.4042040  64.4216190  44.9445800
   4.5726920  64.1664900  45.3442310   6.0123020  64.4926960  45.6803720
  15.4083640  68.5156570  42.8469170  14.9465170  67.7443810  43.1756340
  16.2209190  68.5422640  43.3521620   5.3843300  68.4556280  45.1403820
   5.6871340  67.5654020  44.9614040   6.1286890  69.0126500  44.9126070
   3.8133990  59.3818080  38.7288190   2.9250690  59.7234050  38.6268070
   4.0975180  59.1818400  37.8369020   1.7767000  61.9823730  44.6127890
   2.3483110  61.2145930  44.6131530   1.7768540  62.2812490  43.7034500
  11.6346950  70.8014580  42.4673160  11.0158390  71.2572080  41.8967600
  12.4898730  70.9566040  42.0662860  10.8285200  66.7853570  44.0740200
  10.7593480  65.8443510  43.9129330  11.5905060  66.8754980  44.6462770
   3.0191870  57.3908090  46.3996820   2.8394710  56.4933840  46.6799580
   2.6171950  57.9379960  47.0743770  11.8590370  59.5923950  44.3009130
  12.2355190  58.7195830  44.1882800  11.7609880  59.9282650  43.4099570
   5.9895380  57.9649580  39.7626570   6.0962130  58.8653310  40.0695330
   5.0787740  57.9167550  39.4721220  15.6414490  57.0874390  41.2337470
  16.4624110  56.5970960  41.2762950  15.6748570  57.6772050  41.9869310
   3.6378540  59.8868590  45.0079160   4.3188650  60.1506960  45.6266560
   3.3226590  59.0469460  45.3417170   7.8303110  60.9335950  44.0951750
   8.3381330  61.4316920  44.7356770   8.3616350  60.1571150  43.9191110
  19.9314040  59.1041140  47.7981100  19.2266210  59.4922850  47.2796210
  20.1971960  59.7991430  48.4002030   6.1139210  55.5734510  48.3615170
   6.1157650  56.0906900  47.5561070   5.2843520  55.0964690  48.3385100
  12.5010300  65.6853820  39.8605070  11.8827570  66.1503270  39.2967790
  13.0133550  66.3781300  40.2774580   7.3642060  65.2129690  46.5388670
   7.0311440  65.8398610  47.1809740   7.5408740  65.7391570  45.7590340
  15.8775970  59.0274770  44.0065010  15.1731540  59.3159660  44.5868120
  16.2388130  59.8374880  43.6464570   5.7954540  57.2844470  46.3685620
   6.1371350  58.1286520  46.0739490   4.8570350  57.4328210  46.4850960
   6.5761160  67.1810490  48.3537850   7.1935160  67.8561570  48.0722300
   5.7154280  67.5898470  48.2625350  17.4938750  68.6449900  46.2692490
  16.8102270  69.3149010  46.2609160  18.0333040  68.8430550  45.5037350
  18.9462890  58.4729560  44.3974220  17.9987800  58.5068540  44.5289650
  19.2712880  59.2868510  44.7823580   9.4782430  54.7726740  42.6930210
   9.7857410  54.2173630  41.9765710   8.5483130  54.9071200  42.5103200
  15.0297490  70.4894030  44.9837670  15.0424650  70.0856320  44.1159930
  14.4772710  71.2641320  44.8799100  16.3242910  67.2110250  40.0727840
  16.2139240  66.2684580  40.1977260  16.3211160  67.5725890  40.9590600
  14.4282930  65.3923870  46.3120280  14.8451720  65.1783980  45.4773740
  15.1522750  65.6496660  46.8828900  11.8663190  62.8375570  39.4290330
  10.9392470  62.7712950  39.6578800  12.0188010  63.7755700  39.3145570
  11.8532270  59.1092570  36.4257490  10.9135940  59.2706530  36.5109950
  12.1715530  59.8278250  35.8793480  18.3745030  63.7911090  46.4036520
  17.5463660  63.8604180  45.9286650  18.9695510  64.3765400  45.9352350
  15.8960480  64.3995870  39.9325580  15.2772900  64.0615420  39.2851880
  15.8784930  63.7555630  40.6404770  15.3387040  60.5780410  47.3491390
  14.9258220  61.4034120  47.6031380  14.6062990  59.9925450  47.1567750
   7.4719830  63.3640310  42.2110060   7.0676830  62.6517560  41.7155960
   7.5582950  63.0193550  43.0998100   7.9401530  67.0507870  44.3749270
   7.6429820  66.4453340  43.6957050   8.8901350  67.0885180  44.2638630
   6.1848450  60.1383520  45.9909100   6.7363040  60.2478860  45.2162350
   6.6991960  60.5121120  46.7064330  16.0287140  70.6239740  48.0372370
  15.5517700  71.4311930  47.8444980  15.3448930  69.9718070  48.1898580
   7.0319960  66.7889560  51.0257070   6.1348490  67.0129530  51.2730470
   7.0572830  66.9124500  50.0768470  14.0725180  63.6382680  36.9398330
  14.5118460  62.8005110  36.7936150  14.7853600  64.2712080  37.0262470
   5.8591180  63.6602880  49.6014440   5.7198950  64.5325680  49.9701840
   4.9772540  63.3175690  49.4562380  12.1820560  68.5778750  40.9079570
  12.6216470  69.3203080  40.4934960  12.1207450  68.8205320  41.8318530
   7.6571530  69.6024580  51.8099590   7.6286960  70.0067530  50.9428020
   7.4936500  68.6734940  51.6471190  17.6542320  54.8925490  35.2539370
  17.3414980  54.9852320  36.1538440  18.4154790  55.4706520  35.2036800
   4.1724460  62.2585290  39.7116710   4.0522060  62.9847380  39.0997980
   3.8625350  61.4888200  39.2344620  19.6086350  70.3851680  53.1063760
  20.0846070  70.8634570  53.7852840  20.2293510  70.3169170  52.3809260
   1.8109830  65.4300430  45.5185350   1.8890250  65.5649200  44.5741070
   2.4251510  64.7216320  45.7113470   3.0557460  67.1300620  41.9291530
   2.6485540  67.2715210  41.0745130   3.9470470  66.8460780  41.7262740
  19.0119600  67.5764530  50.2663770  19.1382660  67.3376410  49.3480950
  19.0540980  66.7449070  50.7385850  12.8736340  71.2792530  48.8358580
  13.3881010  71.1900540  49.6381010  12.0305420  71.6252230  49.1286490
  14.8490740  71.5647870  38.2642580  14.6891880  71.2750810  39.1624410
  14.6837450  70.7888000  37.7287810   7.3279120  71.3446400  40.0414200
   7.1521600  70.4281940  39.8282000   6.4734860  71.7033690  40.2812000
  14.5516870  69.0735430  36.8240580  13.8582030  69.0712720  36.1642860
  15.2939730  68.6494750  36.3934750  14.1166800  70.6998140  40.8989070
  14.5723750  69.9187520  41.2127690  14.4559320  71.4104960  41.4430250
  18.8643610  59.6296990  51.2313510  18.2487880  60.1376660  50.7028970
  18.5440030  58.7295320  51.1739450   1.8669350  66.4714600  48.0579810
   2.0300390  66.0019960  47.2399180   2.3321800  65.9638160  48.7228650
   6.6388120  55.6020360  43.0940380   6.1956270  56.3829900  42.7624900
   7.1973110  55.9250250  43.8011320  10.9257930  58.4688880  48.6975700
  10.4637300  58.6771900  49.5095640  10.5236040  57.6548230  48.3946370
  15.9262440  59.6897830  49.8272360  15.0756030  59.3903580  50.1481430
  15.7664230  59.9339840  48.9156180  13.0212150  61.1899580  51.9271150
  13.3465560  60.3563330  51.5873380  13.8092480  61.7128100  52.0749480
   9.7546940  55.2231060  37.9746210   9.1301120  55.2190930  38.6999520
   9.6677060  54.3562020  37.5782180   8.6764020  56.1467690  44.9529980
   8.9736350  57.0530520  44.8722000   9.2249580  55.6586470  44.3389550
   6.4302340  60.7253930  40.8221630   6.2043260  60.5091100  41.7268250
   5.6494870  61.1582390  40.4767600  13.6600100  60.7317300  39.4212280
  13.0608990  61.4553100  39.2375900  14.2079710  60.6694080  38.6388730
   8.8701550  61.6239510  51.4881900   8.7745150  60.6834240  51.3382300
   9.7133530  61.8454580  51.0929970  12.2664970  59.3680840  41.4515560
  12.6594540  59.6853040  40.6384250  12.6281820  58.4892720  41.5660080
   4.0012090  58.0353180  49.6415680   3.6075480  58.8828390  49.8488460
   3.3130490  57.3979550  49.8324320  10.5757140  58.1188150  52.7112420
   9.8855460  57.9260350  53.3458510  11.3189440  58.4022790  53.2436720
  12.8520110  61.9586590  45.5466340  12.1201230  62.4673400  45.8956440
  12.4544450  61.1416570  45.2455120   9.2897500  58.6340790  43.9518830
   9.2933560  58.1930740  43.1023370  10.1848620  58.9558120  44.0590650
   5.1399880  58.5167280  42.9113040   4.7999930  58.9942510  43.6680090
   4.3777200  58.0632400  42.5514140   9.3517650  59.6352870  36.9425590
   9.4730470  59.5939350  37.8911410   8.9666160  60.4977020  36.7872320
  13.3146020  57.4120270  44.9589280  13.3318760  57.8628920  45.8031130
  13.0661600  56.5125910  45.1722720   8.3639150  61.9454010  36.3408890
   7.7956050  61.4972260  35.7144800   9.0728150  62.3046790  35.8074040
  16.7416770  54.8252450  50.7975660  17.0662540  54.0942110  51.3233640
  16.7773280  54.5066090  49.8956650   3.4408330  65.8466030  50.2175620
   3.0563120  65.2059700  50.8158580   3.7520520  66.5502150  50.7870350
   9.5905470  62.6942570  45.6984240   9.9575600  62.2201140  46.4445580
   9.4010530  63.5684140  46.0392580   2.4545960  57.4386260  41.8277710
   2.1692880  57.0741930  42.6656330   2.3924820  56.7066720  41.2140850
   7.3804840  61.7351210  48.0168450   7.0761910  62.6143190  48.2418810
   8.3351300  61.7951000  48.0525890   5.9086630  65.9412200  38.6135300
   5.1348890  65.4009820  38.4534020   6.6381260  65.4218810  38.2753060
  16.6674610  64.9377560  44.4061690  17.3873730  65.4332850  44.0157800
  16.4656430  64.2595450  43.7615560  12.1284550  56.3315520  38.5491080
  11.3149160  55.8328690  38.4736390  11.9346500  57.1713770  38.1327430
  12.0493410  65.0086620  50.2930690  11.9830720  64.0882290  50.0388280
  11.4198550  65.1062060  51.0075330  14.8432940  60.7035170  36.8453240
  15.7312560  61.0152400  36.6704580  14.8138030  59.8307420  36.4533820
   5.9524030  65.6092580  42.2514110   6.4702700  64.8060840  42.1971000
   5.5008050  65.5471720  43.0930940  10.8393530  66.8758860  37.5241410
  11.1809230  67.6201090  37.0284730  10.0106240  67.1889980  37.8866240
   3.4368570  62.5753950  49.1639810   3.0783510  63.2407800  49.7513150
   3.1423130  61.7437500  49.5352430   6.6381690  63.0338190  52.0479360
   6.3381830  63.1795370  51.1507180   7.4092930  62.4743480  51.9552750
  11.9810140  67.8307190  50.0434490  11.9954680  66.8988150  49.8253400
  11.2735240  67.9166950  50.6824260  17.1147210  62.0147010  36.3133100
  17.0310930  62.4461230  35.4629540  17.8341400  62.4745360  36.7459920
  18.1921350  64.4714530  49.3903070  17.4669540  65.0643310  49.1932460
  18.7196810  64.4638070  48.5916440  18.1434460  68.8689270  39.0415230
  17.5010620  68.2144890  39.3158950  17.7565120  69.2744360  38.2655900
  13.7220940  66.1974700  42.8886920  14.0744760  65.6002830  42.2288290
  12.8383270  65.8718930  43.0595170   9.8084220  66.9572390  40.2957330
  10.4955350  67.5041600  40.6764920   9.0216640  67.5013120  40.3306940
   9.1111430  63.9618420  39.9082690   9.5674210  64.7723670  40.1342880
   8.7599640  63.6441560  40.7401180  11.4144040  69.4724760  47.1374990
  12.0586260  69.6784140  47.8148410  11.7773480  68.7113160  46.6845840
   5.0123210  54.3056070  40.3805210   4.8837840  54.2973970  41.3290130
   4.1885230  54.6439160  40.0296220  12.6876120  67.4757110  45.8552440
  13.3298350  66.7750270  45.9684610  13.2125470  68.2555550  45.6749330
  16.5331840  67.7605730  35.5791580  16.3069420  67.0436170  36.1716220
  16.1428040  67.5118170  34.7413330  14.4613740  68.2752010  49.0588500
  14.7969980  68.8618700  49.7366420  13.5414080  68.1444720  49.2886290
   2.3147870  71.7872590  36.3536040   2.6745510  72.3861930  35.6993310
   2.1740210  72.3332480  37.1271070  16.1148090  65.6777670  37.2405740
  15.8269790  66.1390360  38.0283620  16.9100260  65.2175440  37.5089960
   2.2989730  70.0527450  50.8278440   2.4080850  69.1122190  50.6873830
   1.6470290  70.3182200  50.1792170  10.2902320  68.3243340  52.2276560
   9.9699190  67.6052580  52.7722250   9.6160680  68.9998410  52.3012620
   8.3316490  69.1703790  37.1709710   8.3226590  69.9033480  36.5554220
   7.4114850  68.9235370  37.2636670   3.9323130  64.3918680  37.9156470
   3.3251080  65.1317580  37.9251770   4.4072480  64.4818040  37.0894670
  13.5055920  58.5569500  47.5913360  13.8736740  57.7364710  47.9192930
  12.6454120  58.6171390  48.0069010  16.8717950  57.5126440  38.4000920
  16.2431110  57.6172110  37.6859150  16.3769870  57.7323220  39.1894800
  11.3176090  69.2332030  35.8334900  11.4188070  69.0296020  34.9036880
  10.4177830  68.9790310  36.0382680   8.8401980  59.7912390  39.8158800
   8.1318130  60.2598730  40.2572410   9.1246460  59.1334400  40.4503990
  10.4657910  61.2109090  47.8151330  10.9643160  61.6854910  48.4803180
  10.6080860  60.2872610  48.0221360  12.8717410  56.5163050  41.2554590
  12.7485190  56.5349180  40.3064100  13.8201970  56.5641990  41.3752990
   9.9594200  71.7518350  40.5282570  10.2135700  71.7139740  39.6061940
   9.0106680  71.6251680  40.5210820   7.0437000  58.0997470  37.1909510
   7.8927530  58.5367620  37.1249700   6.6768270  58.4117730  38.0181570
  17.6724770  57.4277050  48.6579720  17.1698370  58.1682450  48.9973530
  18.4881430  57.8161050  48.3416510  15.9646780  62.6710230  42.1041080
  15.0236920  62.6860460  42.2788770  16.2790850  61.8846190  42.5501380
   5.9428420  64.3529830  35.6645040   6.7091690  64.2411190  36.2270470
   6.0203110  63.6567800  35.0121810   4.6375180  61.7854900  36.3477930
   4.7178770  60.8382410  36.4595330   5.5294930  62.1161780  36.4538590
  17.9672360  69.8419080  43.7795340  18.0919780  70.6650250  44.2519150
  18.8337920  69.6309810  43.4319490   5.4389890  71.9350290  43.4512470
   6.1752370  71.3865750  43.7221040   5.8230810  72.8006300  43.3118460
   4.4448170  71.1196360  52.6398050   5.2460900  71.4408410  53.0533450
   3.9299990  70.7591940  53.3617960   8.5492200  71.1080600  35.2738040
   9.3420810  71.3969430  34.8219830   8.0296550  70.6772770  34.5950520
  13.2812800  67.2276230  52.5873460  12.6750960  67.2507830  51.8469210
  12.9766910  66.4959270  53.1240710  14.7113170  70.9556520  51.1982870
  15.6634920  70.8714540  51.1483110  14.5641390  71.6198230  51.8716660
  17.6022370  70.3350730  36.6974780  17.3163880  69.9215870  35.8828960
  17.4041920  71.2638440  36.5775300   9.0669600  66.3284010  35.1380390
   8.9620240  65.7136360  35.8641770   8.8993820  65.8049900  34.3543400
   9.2183920  65.0140810  51.1169620   8.4529590  65.5825810  51.0324290
   9.3999880  64.7217020  50.2237850  12.3072330  65.3904040  35.7422380
  11.7582430  65.8373340  36.3865120  12.9291590  64.8853290  36.2660050
  16.3607270  66.7446140  51.6744640  17.1016740  67.0821900  51.1712100
  15.5979950  66.9138200  51.1214410   4.1969060  61.7499410  52.4784170
   4.2374400  61.4513280  53.3869400   5.0514560  62.1507020  52.3191690
   7.9747450  64.3494960  37.6387680   8.3963870  64.1834830  38.4819070
   8.0998290  63.5395190  37.1442820   6.1374870  60.3291510  50.4458660
   5.6071330  59.8382460  49.8182000   6.8062940  60.7575710  49.9116590
  10.4875090  63.3732570  34.8864780  11.0080750  62.6581590  34.5205930
  11.1343490  64.0118440  35.1865290  15.0352930  64.7960970  50.2099850
  15.4493950  64.9506050  51.0590270  14.1003930  64.9216190  50.3725630
  15.5075100  62.1357130  52.2139000  16.0895870  61.3809450  52.1259480
  15.6836870  62.6664570  51.4370480   6.6247170  57.2953880  50.5255950
   6.5304040  56.6774630  49.8006820   6.0444560  58.0220170  50.2985860
   9.3908610  55.8527120  47.5583340   8.9425910  55.8751380  46.7128890
   8.7573810  55.4546140  48.1553640   9.7968160  64.7481450  48.1795780
  10.2156270  65.5914180  48.0072020   8.8776790  64.8853490  47.9502560
  12.1332060  62.4797630  49.5633620  12.2528270  61.8838770  50.3028460
  12.9926060  62.5167320  49.1434920  14.4719960  63.0334820  48.1396130
  13.9455180  63.5577440  47.5361270  14.8151300  63.6662210  48.7705860
   6.8706350  60.4228190  34.5845840   6.6695410  59.5595550  34.9459180
   6.6998400  60.3361550  33.6467440   7.6475580  71.0534460  49.2953510
   7.1096670  71.7780520  48.9762210   7.9009540  70.5764800  48.5050850
   8.9000830  59.0218980  50.8209440   9.4900520  58.7134830  51.5087260
   8.0821070  58.5498730  50.9769340  13.7194260  58.6384790  51.0542460
  13.0309780  57.9766330  50.9892450  14.4400280  58.1923060  51.4990920
  14.3494660  55.2336420  37.1132720  14.6296950  54.3904320  37.4692140
  13.5760390  55.4659530  37.6271470   5.6689150  57.5228810  34.5723720
   5.9715050  57.5296240  33.6642870   6.4083740  57.1726670  35.0691380
  10.5037790  72.2885670  49.5540160  10.4296490  73.1920810  49.8612530
   9.6016630  71.9697570  49.5262230   8.8874080  56.4663430  35.5579920
   8.5396080  55.7887420  34.9782370   9.0886850  56.0052940  36.3723310
  11.0523120  71.4544180  37.1766520  11.9473910  71.7929150  37.1985280
  11.0840750  70.7323590  36.5490800   4.6919280  66.8271230  35.4053520
   5.1294150  67.3700900  36.0611100   5.1767010  66.0018180  35.4149860
   1.9065080  69.6160260  42.8573780   2.2368090  68.7481320  42.6252420
   2.3356080  69.8218780  43.6878740   6.5027000  67.9469270  40.5175750
   6.2022540  67.8234240  41.4179660   6.3964490  67.0877860  40.1091480
   2.3955290  70.4830850  45.5955410   1.9586280  70.6631650  46.4279560
   2.9632970  71.2405470  45.4537130  18.0317470  69.9847850  49.8832720
  17.4319460  70.0440410  49.1396640  18.1611370  69.0452830  50.0129570
  19.2718920  67.7265670  35.2202430  18.4411880  67.7942320  35.6909660
  19.4490750  68.6169790  34.9169290  18.7275380  64.4713150  37.7236630
  19.4894290  65.0409800  37.8296320  18.7429750  63.9040350  38.4944940
   2.2279720  62.9951080  41.9544290   1.5728560  62.7262720  41.3103990
   3.0657670  62.8855560  41.5046270  19.7335350  65.3263250  42.5678560
  20.1044180  64.5430570  42.1614530  20.3737280  66.0152350  42.3895860
  16.7169110  66.7099830  47.9808880  15.9028950  67.1396990  48.2434670
  17.1243310  67.3218240  47.3677930  18.7794550  64.7647520  34.8809150
  19.0543390  65.6726400  34.7528370  18.5905290  64.7010050  35.8171140
  15.1770160  57.7892370  36.1762780  15.5955040  57.6023350  35.3359440
  14.8706220  56.9371420  36.4865710  18.6759890  62.7016510  39.8738580
  18.3003490  61.9344440  39.4419870  17.9463010  63.0839210  40.3613510
   3.2655650  63.3803650  46.4947630   3.6328690  63.2931050  47.3743650
   2.6966470  62.6170200  46.3954490  18.0659510  61.8488030  49.5078100
  17.8345600  61.6200780  48.6076050  18.3264060  62.7687580  49.4622990
   2.8171650  60.2912740  50.4006050   1.9227700  60.2579500  50.7399760
   3.3569200  60.4899530  51.1657300  16.5047580  57.0744460  52.2857800
  17.3817760  57.0827860  52.6691800  16.5168420  56.3375300  51.6750150
  17.9510850  60.9274000  43.1745820  18.4748330  60.4336650  42.5435990
  18.5370270  61.0624360  43.9193390  18.1300570  61.0113870  46.6965370
  17.1803280  60.9777410  46.8110360  18.3113580  61.9213980  46.4615140
   3.9845010  59.2615550  35.8064000   4.6936710  58.8398770  35.3211280
   3.2684950  59.3290780  35.1747350   3.6319170  55.3154880  34.8466650
   4.3547300  55.8563820  35.1647870   3.9043690  55.0418300  33.9708190
  17.4410820  60.1847350  39.1138230  17.9369940  59.9518220  39.8987110
  17.2426890  59.3459190  38.6975870   3.3211360  54.5661070  44.7489270
   3.9687550  54.0158450  44.3084430   3.7413200  54.8204220  45.5705080
  18.8697980  58.8208300  41.6475910  18.7597260  58.6664340  42.5858180
  19.6305570  58.2929240  41.4051320  17.2163700  54.7602430  48.1058910
  17.8535920  55.3736570  48.4718100  17.3638590  54.7963090  47.1608140
  19.7588250  56.6516220  34.8882050  20.6837560  56.5197400  34.6800340
  19.7364040  56.7309040  35.8418500  19.8326740  57.4226880  37.5138760
  19.0378240  57.3572000  38.0431670  20.0370020  58.3577520  37.5024110
  16.7745160  71.4618430  41.5077150  17.3704230  71.1403000  40.8311570
  17.0323310  70.9890250  42.2990420   3.0743360  54.7216740  47.4914590
   2.7258180  55.1780560  48.2572770   2.7431060  53.8273870  47.5737020
   4.6807730  67.8936340  51.6567780   4.6377360  67.5229250  52.5382240
   4.8118740  68.8313910  51.7969600   8.3813760  69.4495930  47.2577500
   8.1405120  69.7170490  46.3708020   9.3216400  69.6201660  47.3128360
  10.5868180  55.9128620  51.0134010  10.5257070  56.5050450  51.7629420
  11.5268560  55.8054580  50.8684270  13.2242740  55.5698680  50.6526300
  13.8383150  55.8877970  49.9907380  13.7692300  55.0847270  51.2722160
  19.6417920  71.4690310  48.0588140  19.1476200  71.8659180  47.3415270
  19.0331210  70.8439520  48.4525420   3.7464000  54.2492940  50.7665360
   4.2946990  54.0680990  50.0031470   3.8119310  53.4587050  51.3021670
   4.5195760  70.8398590  48.7765560   3.9256080  70.7083290  49.5155600
   4.5119600  70.0036730  48.3107660  13.9650780  54.1330820  46.9795590
  13.0910620  54.4665930  46.7768520  13.8561530  53.6604000  47.8047460
  14.8722760  56.3401690  48.3637310  14.5436120  55.5253450  47.9839040
  15.8205060  56.2971500  48.2403000  17.3257370  72.1113730  45.3374880
  16.8660340  72.8629540  44.9632900  16.6969830  71.3920200  45.2789680
   4.1507990  68.2056970  47.7273600   3.4242050  67.5862260  47.6599550
   4.2117140  68.5997580  46.8571680   7.7553090  70.4201970  44.5123010
   8.2718110  69.8089330  43.9871270   8.4050470  70.9230750  45.0034020
  10.4948590  71.3110460  45.3391990  10.7826400  71.0564760  44.4625000
  11.0071810  70.7587820  45.9297560  11.7125600  55.0500660  45.9188500
  10.9297390  55.5246160  46.1985260  11.4188530  54.1455490  45.8101680
  16.2646670  55.7523760  43.9637590  16.7054760  55.6968860  43.1159190
  15.9954260  56.6681770  44.0347770  18.1285240  55.3839000  41.9746410
  18.0673640  54.4400220  41.8277430  18.9077270  55.4919090  42.5199870
   2.4337990  71.5231360  40.9370360   2.2660030  70.8902040  41.6352250
   1.5672500  71.7290760  40.5864550   3.0566010  55.3548140  38.4402220
   3.8145370  55.4677020  37.8666250   2.5943180  56.1917340  38.3945650
   9.5979820  57.4687410  41.4304530   8.7854330  57.0944300  41.0900410
  10.1021460  56.7132490  41.7325720  14.1004800  54.1329860  42.6687600
  14.7034170  54.7050070  43.1436120  13.3597790  54.6969300  42.4461500
  17.2439400  54.5351420  37.9427880  17.4390030  55.4334870  38.2095310
  16.4569270  54.3038500  38.4360830   4.0400690  70.2164590  38.3820500
   3.5148310  70.5972620  37.6782460   3.9645270  70.8415360  39.1030210
   5.4291160  55.8812190  36.9804190   5.9583920  55.0941990  36.8512140
   6.0619480  56.5603380  37.2139720   7.6229000  55.6187330  40.0349580
   6.9931740  54.9174640  40.2019710   7.0834140  56.3791460  39.8182740
  10.5620950  72.2326560  52.7060190  11.4888260  71.9970830  52.7496150
  10.5471380  73.0598560  52.2246220  18.7966010  71.7752130  39.7034440
  18.9718200  71.0889870  39.0595360  18.0987580  72.2999180  39.3111110
   7.7484560  54.8971310  52.4702070   7.4668830  55.4004910  51.7062890
   8.1304260  54.0993060  52.1044200   6.6393660  72.1646970  37.2569750
   7.3712480  71.8806250  36.7093640   6.8987330  71.9260250  38.1469130
   5.8008450  68.2811700  37.2616080   5.1717330  68.7496800  37.8101910
   5.9156280  67.4360920  37.6962270  14.3500020  54.3124890  53.0482540
  14.2365470  54.6319500  53.9434060  15.1669760  54.7137400  52.7519820
  17.1298510  71.4596420  52.5301230  17.9223830  70.9645650  52.3227190
  17.4231660  72.1386560  53.1376840  13.2558170  62.3317360  23.4117280
  13.1752220  61.4171970  23.1408990  12.8422590  62.8284430  22.7056990
  11.3876210  64.1096380  25.2926550  10.6118310  63.6296820  25.5825120
  12.0389140  63.4302030  25.1182710   5.4042040  64.4216190  26.1702310
   4.5726920  64.1664900  26.5698820   6.0123020  64.4926960  26.9060230
  15.4083640  68.5156570  24.0725680  14.9465170  67.7443810  24.4012850
  16.2209190  68.5422640  24.5778130   5.3843300  68.4556280  26.3660330
   5.6871340  67.5654020  26.1870550   6.1286890  69.0126500  26.1382580
   3.8133990  59.3818080  19.9544700   2.9250690  59.7234050  19.8524580
   4.0975180  59.1818400  19.0625530   1.7767000  61.9823730  25.8384400
   2.3483110  61.2145930  25.8388040   1.7768540  62.2812490  24.9291010
  11.6346950  70.8014580  23.6929670  11.0158390  71.2572080  23.1224110
  12.4898730  70.9566040  23.2919370  10.8285200  66.7853570  25.2996710
  10.7593480  65.8443510  25.1385840  11.5905060  66.8754980  25.8719280
   3.0191870  57.3908090  27.6253330   2.8394710  56.4933840  27.9056090
   2.6171950  57.9379960  28.3000280  11.8590370  59.5923950  25.5265640
  12.2355190  58.7195830  25.4139310  11.7609880  59.9282650  24.6356080
   5.9895380  57.9649580  20.9883080   6.0962130  58.8653310  21.2951840
   5.0787740  57.9167550  20.6977730  15.6414490  57.0874390  22.4593980
  16.4624110  56.5970960  22.5019460  15.6748570  57.6772050  23.2125820
   3.6378540  59.8868590  26.2335670   4.3188650  60.1506960  26.8523070
   3.3226590  59.0469460  26.5673680   7.8303110  60.9335950  25.3208260
   8.3381330  61.4316920  25.9613280   8.3616350  60.1571150  25.1447620
  19.9314040  59.1041140  29.0237610  19.2266210  59.4922850  28.5052720
  20.1971960  59.7991430  29.6258540   6.1139210  55.5734510  29.5871680
   6.1157650  56.0906900  28.7817580   5.2843520  55.0964690  29.5641610
  12.5010300  65.6853820  21.0861580  11.8827570  66.1503270  20.5224300
  13.0133550  66.3781300  21.5031090   7.3642060  65.2129690  27.7645180
   7.0311440  65.8398610  28.4066250   7.5408740  65.7391570  26.9846850
  15.8775970  59.0274770  25.2321520  15.1731540  59.3159660  25.8124630
  16.2388130  59.8374880  24.8721080   5.7954540  57.2844470  27.5942130
   6.1371350  58.1286520  27.2996000   4.8570350  57.4328210  27.7107470
   6.5761160  67.1810490  29.5794360   7.1935160  67.8561570  29.2978810
   5.7154280  67.5898470  29.4881860  17.4938750  68.6449900  27.4949000
  16.8102270  69.3149010  27.4865670  18.0333040  68.8430550  26.7293860
  18.9462890  58.4729560  25.6230730  17.9987800  58.5068540  25.7546160
  19.2712880  59.2868510  26.0080090   9.4782430  54.7726740  23.9186720
   9.7857410  54.2173630  23.2022220   8.5483130  54.9071200  23.7359710
  15.0297490  70.4894030  26.2094180  15.0424650  70.0856320  25.3416440
  14.4772710  71.2641320  26.1055610  16.3242910  67.2110250  21.2984350
  16.2139240  66.2684580  21.4233770  16.3211160  67.5725890  22.1847110
  14.4282930  65.3923870  27.5376790  14.8451720  65.1783980  26.7030250
  15.1522750  65.6496660  28.1085410  11.8663190  62.8375570  20.6546840
  10.9392470  62.7712950  20.8835310  12.0188010  63.7755700  20.5402080
  11.8532270  59.1092570  17.6514000  10.9135940  59.2706530  17.7366460
  12.1715530  59.8278250  17.1049990  18.3745030  63.7911090  27.6293030
  17.5463660  63.8604180  27.1543160  18.9695510  64.3765400  27.1608860
  15.8960480  64.3995870  21.1582090  15.2772900  64.0615420  20.5108390
  15.8784930  63.7555630  21.8661280  15.3387040  60.5780410  28.5747900
  14.9258220  61.4034120  28.8287890  14.6062990  59.9925450  28.3824260
   7.4719830  63.3640310  23.4366570   7.0676830  62.6517560  22.9412470
   7.5582950  63.0193550  24.3254610   7.9401530  67.0507870  25.6005780
   7.6429820  66.4453340  24.9213560   8.8901350  67.0885180  25.4895140
   6.1848450  60.1383520  27.2165610   6.7363040  60.2478860  26.4418860
   6.6991960  60.5121120  27.9320840  16.0287140  70.6239740  29.2628880
  15.5517700  71.4311930  29.0701490  15.3448930  69.9718070  29.4155090
   7.0319960  66.7889560  32.2513580   6.1348490  67.0129530  32.4986980
   7.0572830  66.9124500  31.3024980  14.0725180  63.6382680  18.1654840
  14.5118460  62.8005110  18.0192660  14.7853600  64.2712080  18.2518980
   5.8591180  63.6602880  30.8270950   5.7198950  64.5325680  31.1958350
   4.9772540  63.3175690  30.6818890  12.1820560  68.5778750  22.1336080
  12.6216470  69.3203080  21.7191470  12.1207450  68.8205320  23.0575040
   7.6571530  69.6024580  33.0356100   7.6286960  70.0067530  32.1684530
   7.4936500  68.6734940  32.8727700  17.6542320  54.8925490  16.4795880
  17.3414980  54.9852320  17.3794950  18.4154790  55.4706520  16.4293310
   4.1724460  62.2585290  20.9373220   4.0522060  62.9847380  20.3254490
   3.8625350  61.4888200  20.4601130  19.6086350  70.3851680  34.3320270
  20.0846070  70.8634570  35.0109350  20.2293510  70.3169170  33.6065770
   1.8109830  65.4300430  26.7441860   1.8890250  65.5649200  25.7997580
   2.4251510  64.7216320  26.9369980   3.0557460  67.1300620  23.1548040
   2.6485540  67.2715210  22.3001640   3.9470470  66.8460780  22.9519250
  19.0119600  67.5764530  31.4920280  19.1382660  67.3376410  30.5737460
  19.0540980  66.7449070  31.9642360  12.8736340  71.2792530  30.0615090
  13.3881010  71.1900540  30.8637520  12.0305420  71.6252230  30.3543000
  14.8490740  71.5647870  19.4899090  14.6891880  71.2750810  20.3880920
  14.6837450  70.7888000  18.9544320   7.3279120  71.3446400  21.2670710
   7.1521600  70.4281940  21.0538510   6.4734860  71.7033690  21.5068510
  14.5516870  69.0735430  18.0497090  13.8582030  69.0712720  17.3899370
  15.2939730  68.6494750  17.6191260  14.1166800  70.6998140  22.1245580
  14.5723750  69.9187520  22.4384200  14.4559320  71.4104960  22.6686760
  18.8643610  59.6296990  32.4570020  18.2487880  60.1376660  31.9285480
  18.5440030  58.7295320  32.3995960   1.8669350  66.4714600  29.2836320
   2.0300390  66.0019960  28.4655690   2.3321800  65.9638160  29.9485160
   6.6388120  55.6020360  24.3196890   6.1956270  56.3829900  23.9881410
   7.1973110  55.9250250  25.0267830  10.9257930  58.4688880  29.9232210
  10.4637300  58.6771900  30.7352150  10.5236040  57.6548230  29.6202880
  15.9262440  59.6897830  31.0528870  15.0756030  59.3903580  31.3737940
  15.7664230  59.9339840  30.1412690  13.0212150  61.1899580  33.1527660
  13.3465560  60.3563330  32.8129890  13.8092480  61.7128100  33.3005990
   9.7546940  55.2231060  19.2002720   9.1301120  55.2190930  19.9256030
   9.6677060  54.3562020  18.8038690   8.6764020  56.1467690  26.1786490
   8.9736350  57.0530520  26.0978510   9.2249580  55.6586470  25.5646060
   6.4302340  60.7253930  22.0478140   6.2043260  60.5091100  22.9524760
   5.6494870  61.1582390  21.7024110  13.6600100  60.7317300  20.6468790
  13.0608990  61.4553100  20.4632410  14.2079710  60.6694080  19.8645240
   8.8701550  61.6239510  32.7138410   8.7745150  60.6834240  32.5638810
   9.7133530  61.8454580  32.3186480  12.2664970  59.3680840  22.6772070
  12.6594540  59.6853040  21.8640760  12.6281820  58.4892720  22.7916590
   4.0012090  58.0353180  30.8672190   3.6075480  58.8828390  31.0744970
   3.3130490  57.3979550  31.0580830  10.5757140  58.1188150  33.9368930
   9.8855460  57.9260350  34.5715020  11.3189440  58.4022790  34.4693230
  12.8520110  61.9586590  26.7722850  12.1201230  62.4673400  27.1212950
  12.4544450  61.1416570  26.4711630   9.2897500  58.6340790  25.1775340
   9.2933560  58.1930740  24.3279880  10.1848620  58.9558120  25.2847160
   5.1399880  58.5167280  24.1369550   4.7999930  58.9942510  24.8936600
   4.3777200  58.0632400  23.7770650   9.3517650  59.6352870  18.1682100
   9.4730470  59.5939350  19.1167920   8.9666160  60.4977020  18.0128830
  13.3146020  57.4120270  26.1845790  13.3318760  57.8628920  27.0287640
  13.0661600  56.5125910  26.3979230   8.3639150  61.9454010  17.5665400
   7.7956050  61.4972260  16.9401310   9.0728150  62.3046790  17.0330550
  16.7416770  54.8252450  32.0232170  17.0662540  54.0942110  32.5490150
  16.7773280  54.5066090  31.1213160   3.4408330  65.8466030  31.4432130
   3.0563120  65.2059700  32.0415090   3.7520520  66.5502150  32.0126860
   9.5905470  62.6942570  26.9240750   9.9575600  62.2201140  27.6702090
   9.4010530  63.5684140  27.2649090   2.4545960  57.4386260  23.0534220
   2.1692880  57.0741930  23.8912840   2.3924820  56.7066720  22.4397360
   7.3804840  61.7351210  29.2424960   7.0761910  62.6143190  29.4675320
   8.3351300  61.7951000  29.2782400   5.9086630  65.9412200  19.8391810
   5.1348890  65.4009820  19.6790530   6.6381260  65.4218810  19.5009570
  16.6674610  64.9377560  25.6318200  17.3873730  65.4332850  25.2414310
  16.4656430  64.2595450  24.9872070  12.1284550  56.3315520  19.7747590
  11.3149160  55.8328690  19.6992900  11.9346500  57.1713770  19.3583940
  12.0493410  65.0086620  31.5187200  11.9830720  64.0882290  31.2644790
  11.4198550  65.1062060  32.2331840  14.8432940  60.7035170  18.0709750
  15.7312560  61.0152400  17.8961090  14.8138030  59.8307420  17.6790330
   5.9524030  65.6092580  23.4770620   6.4702700  64.8060840  23.4227510
   5.5008050  65.5471720  24.3187450  10.8393530  66.8758860  18.7497920
  11.1809230  67.6201090  18.2541240  10.0106240  67.1889980  19.1122750
   3.4368570  62.5753950  30.3896320   3.0783510  63.2407800  30.9769660
   3.1423130  61.7437500  30.7608940   6.6381690  63.0338190  33.2735870
   6.3381830  63.1795370  32.3763690   7.4092930  62.4743480  33.1809260
  11.9810140  67.8307190  31.2691000  11.9954680  66.8988150  31.0509910
  11.2735240  67.9166950  31.9080770  17.1147210  62.0147010  17.5389610
  17.0310930  62.4461230  16.6886050  17.8341400  62.4745360  17.9716430
  18.1921350  64.4714530  30.6159580  17.4669540  65.0643310  30.4188970
  18.7196810  64.4638070  29.8172950  18.1434460  68.8689270  20.2671740
  17.5010620  68.2144890  20.5415460  17.7565120  69.2744360  19.4912410
  13.7220940  66.1974700  24.1143430  14.0744760  65.6002830  23.4544800
  12.8383270  65.8718930  24.2851680   9.8084220  66.9572390  21.5213840
  10.4955350  67.5041600  21.9021430   9.0216640  67.5013120  21.5563450
   9.1111430  63.9618420  21.1339200   9.5674210  64.7723670  21.3599390
   8.7599640  63.6441560  21.9657690  11.4144040  69.4724760  28.3631500
  12.0586260  69.6784140  29.0404920  11.7773480  68.7113160  27.9102350
   5.0123210  54.3056070  21.6061720   4.8837840  54.2973970  22.5546640
   4.1885230  54.6439160  21.2552730  12.6876120  67.4757110  27.0808950
  13.3298350  66.7750270  27.1941120  13.2125470  68.2555550  26.9005840
  16.5331840  67.7605730  16.8048090  16.3069420  67.0436170  17.3972730
  16.1428040  67.5118170  15.9669840  14.4613740  68.2752010  30.2845010
  14.7969980  68.8618700  30.9622930  13.5414080  68.1444720  30.5142800
   2.3147870  71.7872590  17.5792550   2.6745510  72.3861930  16.9249820
   2.1740210  72.3332480  18.3527580  16.1148090  65.6777670  18.4662250
  15.8269790  66.1390360  19.2540130  16.9100260  65.2175440  18.7346470
   2.2989730  70.0527450  32.0534950   2.4080850  69.1122190  31.9130340
   1.6470290  70.3182200  31.4048680  10.2902320  68.3243340  33.4533070
   9.9699190  67.6052580  33.9978760   9.6160680  68.9998410  33.5269130
   8.3316490  69.1703790  18.3966220   8.3226590  69.9033480  17.7810730
   7.4114850  68.9235370  18.4893180   3.9323130  64.3918680  19.1412980
   3.3251080  65.1317580  19.1508280   4.4072480  64.4818040  18.3151180
  13.5055920  58.5569500  28.8169870  13.8736740  57.7364710  29.1449440
  12.6454120  58.6171390  29.2325520  16.8717950  57.5126440  19.6257430
  16.2431110  57.6172110  18.9115660  16.3769870  57.7323220  20.4151310
  11.3176090  69.2332030  17.0591410  11.4188070  69.0296020  16.1293390
  10.4177830  68.9790310  17.2639190   8.8401980  59.7912390  21.0415310
   8.1318130  60.2598730  21.4828920   9.1246460  59.1334400  21.6760500
  10.4657910  61.2109090  29.0407840  10.9643160  61.6854910  29.7059690
  10.6080860  60.2872610  29.2477870  12.8717410  56.5163050  22.4811100
  12.7485190  56.5349180  21.5320610  13.8201970  56.5641990  22.6009500
   9.9594200  71.7518350  21.7539080  10.2135700  71.7139740  20.8318450
   9.0106680  71.6251680  21.7467330   7.0437000  58.0997470  18.4166020
   7.8927530  58.5367620  18.3506210   6.6768270  58.4117730  19.2438080
  17.6724770  57.4277050  29.8836230  17.1698370  58.1682450  30.2230040
  18.4881430  57.8161050  29.5673020  15.9646780  62.6710230  23.3297590
  15.0236920  62.6860460  23.5045280  16.2790850  61.8846190  23.7757890
   5.9428420  64.3529830  16.8901550   6.7091690  64.2411190  17.4526980
   6.0203110  63.6567800  16.2378320   4.6375180  61.7854900  17.5734440
   4.7178770  60.8382410  17.6851840   5.5294930  62.1161780  17.6795100
  17.9672360  69.8419080  25.0051850  18.0919780  70.6650250  25.4775660
  18.8337920  69.6309810  24.6576000   5.4389890  71.9350290  24.6768980
   6.1752370  71.3865750  24.9477550   5.8230810  72.8006300  24.5374970
   4.4448170  71.1196360  33.8654560   5.2460900  71.4408410  34.2789960
   3.9299990  70.7591940  34.5874470   8.5492200  71.1080600  16.4994550
   9.3420810  71.3969430  16.0476340   8.0296550  70.6772770  15.8207030
  13.2812800  67.2276230  33.8129970  12.6750960  67.2507830  33.0725720
  12.9766910  66.4959270  34.3497220  14.7113170  70.9556520  32.4239380
  15.6634920  70.8714540  32.3739620  14.5641390  71.6198230  33.0973170
  17.6022370  70.3350730  17.9231290  17.3163880  69.9215870  17.1085470
  17.4041920  71.2638440  17.8031810   9.0669600  66.3284010  16.3636900
   8.9620240  65.7136360  17.0898280   8.8993820  65.8049900  15.5799910
   9.2183920  65.0140810  32.3426130   8.4529590  65.5825810  32.2580800
   9.3999880  64.7217020  31.4494360  12.3072330  65.3904040  16.9678890
  11.7582430  65.8373340  17.6121630  12.9291590  64.8853290  17.4916560
  16.3607270  66.7446140  32.9001150  17.1016740  67.0821900  32.3968610
  15.5979950  66.9138200  32.3470920   4.1969060  61.7499410  33.7040680
   4.2374400  61.4513280  34.6125910   5.0514560  62.1507020  33.5448200
   7.9747450  64.3494960  18.8644190   8.3963870  64.1834830  19.7075580
   8.0998290  63.5395190  18.3699330   6.1374870  60.3291510  31.6715170
   5.6071330  59.8382460  31.0438510   6.8062940  60.7575710  31.1373100
  10.4875090  63.3732570  16.1121290  11.0080750  62.6581590  15.7462440
  11.1343490  64.0118440  16.4121800  15.0352930  64.7960970  31.4356360
  15.4493950  64.9506050  32.2846780  14.1003930  64.9216190  31.5982140
  15.5075100  62.1357130  33.4395510  16.0895870  61.3809450  33.3515990
  15.6836870  62.6664570  32.6626990   6.6247170  57.2953880  31.7512460
   6.5304040  56.6774630  31.0263330   6.0444560  58.0220170  31.5242370
   9.3908610  55.8527120  28.7839850   8.9425910  55.8751380  27.9385400
   8.7573810  55.4546140  29.3810150   9.7968160  64.7481450  29.4052290
  10.2156270  65.5914180  29.2328530   8.8776790  64.8853490  29.1759070
  12.1332060  62.4797630  30.7890130  12.2528270  61.8838770  31.5284970
  12.9926060  62.5167320  30.3691430  14.4719960  63.0334820  29.3652640
  13.9455180  63.5577440  28.7617780  14.8151300  63.6662210  29.9962370
   6.8706350  60.4228190  15.8102350   6.6695410  59.5595550  16.1715690
   6.6998400  60.3361550  14.8723950   7.6475580  71.0534460  30.5210020
   7.1096670  71.7780520  30.2018720   7.9009540  70.5764800  29.7307360
   8.9000830  59.0218980  32.0465950   9.4900520  58.7134830  32.7343770
   8.0821070  58.5498730  32.2025850  13.7194260  58.6384790  32.2798970
  13.0309780  57.9766330  32.2148960  14.4400280  58.1923060  32.7247430
  14.3494660  55.2336420  18.3389230  14.6296950  54.3904320  18.6948650
  13.5760390  55.4659530  18.8527980   5.6689150  57.5228810  15.7980230
   5.9715050  57.5296240  14.8899380   6.4083740  57.1726670  16.2947890
  10.5037790  72.2885670  30.7796670  10.4296490  73.1920810  31.0869040
   9.6016630  71.9697570  30.7518740   8.8874080  56.4663430  16.7836430
   8.5396080  55.7887420  16.2038880   9.0886850  56.0052940  17.5979820
  11.0523120  71.4544180  18.4023030  11.9473910  71.7929150  18.4241790
  11.0840750  70.7323590  17.7747310   4.6919280  66.8271230  16.6310030
   5.1294150  67.3700900  17.2867610   5.1767010  66.0018180  16.6406370
   1.9065080  69.6160260  24.0830290   2.2368090  68.7481320  23.8508930
   2.3356080  69.8218780  24.9135250   6.5027000  67.9469270  21.7432260
   6.2022540  67.8234240  22.6436170   6.3964490  67.0877860  21.3347990
   2.3955290  70.4830850  26.8211920   1.9586280  70.6631650  27.6536070
   2.9632970  71.2405470  26.6793640  18.0317470  69.9847850  31.1089230
  17.4319460  70.0440410  30.3653150  18.1611370  69.0452830  31.2386080
  19.2718920  67.7265670  16.4458940  18.4411880  67.7942320  16.9166170
  19.4490750  68.6169790  16.1425800  18.7275380  64.4713150  18.9493140
  19.4894290  65.0409800  19.0552830  18.7429750  63.9040350  19.7201450
   2.2279720  62.9951080  23.1800800   1.5728560  62.7262720  22.5360500
   3.0657670  62.8855560  22.7302780  19.7335350  65.3263250  23.7935070
  20.1044180  64.5430570  23.3871040  20.3737280  66.0152350  23.6152370
  16.7169110  66.7099830  29.2065390  15.9028950  67.1396990  29.4691180
  17.1243310  67.3218240  28.5934440  18.7794550  64.7647520  16.1065660
  19.0543390  65.6726400  15.9784880  18.5905290  64.7010050  17.0427650
  15.1770160  57.7892370  17.4019290  15.5955040  57.6023350  16.5615950
  14.8706220  56.9371420  17.7122220  18.6759890  62.7016510  21.0995090
  18.3003490  61.9344440  20.6676380  17.9463010  63.0839210  21.5870020
   3.2655650  63.3803650  27.7204140   3.6328690  63.2931050  28.6000160
   2.6966470  62.6170200  27.6211000  18.0659510  61.8488030  30.7334610
  17.8345600  61.6200780  29.8332560  18.3264060  62.7687580  30.6879500
   2.8171650  60.2912740  31.6262560   1.9227700  60.2579500  31.9656270
   3.3569200  60.4899530  32.3913810  16.5047580  57.0744460  33.5114310
  17.3817760  57.0827860  33.8948310  16.5168420  56.3375300  32.9006660
  17.9510850  60.9274000  24.4002330  18.4748330  60.4336650  23.7692500
  18.5370270  61.0624360  25.1449900  18.1300570  61.0113870  27.9221880
  17.1803280  60.9777410  28.0366870  18.3113580  61.9213980  27.6871650
   3.9845010  59.2615550  17.0320510   4.6936710  58.8398770  16.5467790
   3.2684950  59.3290780  16.4003860   3.6319170  55.3154880  16.0723160
   4.3547300  55.8563820  16.3904380   3.9043690  55.0418300  15.1964700
  17.4410820  60.1847350  20.3394740  17.9369940  59.9518220  21.1243620
  17.2426890  59.3459190  19.9232380   3.3211360  54.5661070  25.9745780
   3.9687550  54.0158450  25.5340940   3.7413200  54.8204220  26.7961590
  18.8697980  58.8208300  22.8732420  18.7597260  58.6664340  23.8114690
  19.6305570  58.2929240  22.6307830  17.2163700  54.7602430  29.3315420
  17.8535920  55.3736570  29.6974610  17.3638590  54.7963090  28.3864650
  19.7588250  56.6516220  16.1138560  20.6837560  56.5197400  15.9056850
  19.7364040  56.7309040  17.0675010  19.8326740  57.4226880  18.7395270
  19.0378240  57.3572000  19.2688180  20.0370020  58.3577520  18.7280620
  16.7745160  71.4618430  22.7333660  17.3704230  71.1403000  22.0568080
  17.0323310  70.9890250  23.5246930   3.0743360  54.7216740  28.7171100
   2.7258180  55.1780560  29.4829280   2.7431060  53.8273870  28.7993530
   4.6807730  67.8936340  32.8824290   4.6377360  67.5229250  33.7638750
   4.8118740  68.8313910  33.0226110   8.3813760  69.4495930  28.4834010
   8.1405120  69.7170490  27.5964530   9.3216400  69.6201660  28.5384870
  10.5868180  55.9128620  32.2390520  10.5257070  56.5050450  32.9885930
  11.5268560  55.8054580  32.0940780  13.2242740  55.5698680  31.8782810
  13.8383150  55.8877970  31.2163890  13.7692300  55.0847270  32.4978670
  19.6417920  71.4690310  29.2844650  19.1476200  71.8659180  28.5671780
  19.0331210  70.8439520  29.6781930   3.7464000  54.2492940  31.9921870
   4.2946990  54.0680990  31.2287980   3.8119310  53.4587050  32.5278180
   4.5195760  70.8398590  30.0022070   3.9256080  70.7083290  30.7412110
   4.5119600  70.0036730  29.5364170  13.9650780  54.1330820  28.2052100
  13.0910620  54.4665930  28.0025030  13.8561530  53.6604000  29.0303970
  14.8722760  56.3401690  29.5893820  14.5436120  55.5253450  29.2095550
  15.8205060  56.2971500  29.4659510  17.3257370  72.1113730  26.5631390
  16.8660340  72.8629540  26.1889410  16.6969830  71.3920200  26.5046190
   4.1507990  68.2056970  28.9530110   3.4242050  67.5862260  28.8856060
   4.2117140  68.5997580  28.0828190   7.7553090  70.4201970  25.7379520
   8.2718110  69.8089330  25.2127780   8.4050470  70.9230750  26.2290530
  10.4948590  71.3110460  26.5648500  10.7826400  71.0564760  25.6881510
  11.0071810  70.7587820  27.1554070  11.7125600  55.0500660  27.1445010
  10.9297390  55.5246160  27.4241770  11.4188530  54.1455490  27.0358190
  16.2646670  55.7523760  25.1894100  16.7054760  55.6968860  24.3415700
  15.9954260  56.6681770  25.2604280  18.1285240  55.3839000  23.2002920
  18.0673640  54.4400220  23.0533940  18.9077270  55.4919090  23.7456380
   2.4337990  71.5231360  22.1626870   2.2660030  70.8902040  22.8608760
   1.5672500  71.7290760  21.8121060   3.0566010  55.3548140  19.6658730
   3.8145370  55.4677020  19.0922760   2.5943180  56.1917340  19.6202160
   9.5979820  57.4687410  22.6561040   8.7854330  57.0944300  22.3156920
  10.1021460  56.7132490  22.9582230  14.1004800  54.1329860  23.8944110
  14.7034170  54.7050070  24.3692630  13.3597790  54.6969300  23.6718010
  17.2439400  54.5351420  19.1684390  17.4390030  55.4334870  19.4351820
  16.4569270  54.3038500  19.6617340   4.0400690  70.2164590  19.6077010
   3.5148310  70.5972620  18.9038970   3.9645270  70.8415360  20.3286720
   5.4291160  55.8812190  18.2060700   5.9583920  55.0941990  18.0768650
   6.0619480  56.5603380  18.4396230   7.6229000  55.6187330  21.2606090
   6.9931740  54.9174640  21.4276220   7.0834140  56.3791460  21.0439250
  10.5620950  72.2326560  33.9316700  11.4888260  71.9970830  33.9752660
  10.5471380  73.0598560  33.4502730  18.7966010  71.7752130  20.9290950
  18.9718200  71.0889870  20.2851870  18.0987580  72.2999180  20.5367620
   7.7484560  54.8971310  33.6958580   7.4668830  55.4004910  32.9319400
   8.1304260  54.0993060  33.3300710   6.6393660  72.1646970  18.4826260
   7.3712480  71.8806250  17.9350150   6.8987330  71.9260250  19.3725640
   5.8008450  68.2811700  18.4872590   5.1717330  68.7496800  19.0358420
   5.9156280  67.4360920  18.9218780  14.3500020  54.3124890  34.2739050
  14.2365470  54.6319500  35.1690570  15.1669760  54.7137400  33.9776330
  17.1298510  71.4596420  33.7557740  17.9223830  70.9645650  33.5483700
  17.4231660  72.1386560  34.3633350  13.2558170  62.3317360   4.6373790
  13.1752220  61.4171970   4.3665500  12.8422590  62.8284430   3.9313500
  11.3876210  64.1096380   6.5183060  10.6118310  63.6296820   6.8081630
  12.0389140  63.4302030   6.3439220   5.4042040  64.4216190   7.3958820
   4.5726920  64.1664900   7.7955330   6.0123020  64.4926960   8.1316740
  15.4083640  68.5156570   5.2982190  14.9465170  67.7443810   5.6269360
  16.2209190  68.5422640   5.8034640   5.3843300  68.4556280   7.5916840
   5.6871340  67.5654020   7.4127060   6.1286890  69.0126500   7.3639090
   1.7767000  61.9823730   7.0640910   2.3483110  61.2145930   7.0644550
   1.7768540  62.2812490   6.1547520  11.6346950  70.8014580   4.9186180
  11.0158390  71.2572080   4.3480620  12.4898730  70.9566040   4.5175880
  10.8285200  66.7853570   6.5253220  10.7593480  65.8443510   6.3642350
  11.5905060  66.8754980   7.0975790   3.0191870  57.3908090   8.8509840
   2.8394710  56.4933840   9.1312600   2.6171950  57.9379960   9.5256790
  11.8590370  59.5923950   6.7522150  12.2355190  58.7195830   6.6395820
  11.7609880  59.9282650   5.8612590   5.9895380  57.9649580   2.2139590
   6.0962130  58.8653310   2.5208350   5.0787740  57.9167550   1.9234240
  15.6414490  57.0874390   3.6850490  16.4624110  56.5970960   3.7275970
  15.6748570  57.6772050   4.4382330   3.6378540  59.8868590   7.4592180
   4.3188650  60.1506960   8.0779580   3.3226590  59.0469460   7.7930190
   7.8303110  60.9335950   6.5464770   8.3381330  61.4316920   7.1869790
   8.3616350  60.1571150   6.3704130  19.9314040  59.1041140  10.2494120
  19.2266210  59.4922850   9.7309230  20.1971960  59.7991430  10.8515050
   6.1139210  55.5734510  10.8128190   6.1157650  56.0906900  10.0074090
   5.2843520  55.0964690  10.7898120  12.5010300  65.6853820   2.3118090
  11.8827570  66.1503270   1.7480810  13.0133550  66.3781300   2.7287600
   7.3642060  65.2129690   8.9901690   7.0311440  65.8398610   9.6322760
   7.5408740  65.7391570   8.2103360  15.8775970  59.0274770   6.4578030
  15.1731540  59.3159660   7.0381140  16.2388130  59.8374880   6.0977590
   5.7954540  57.2844470   8.8198640   6.1371350  58.1286520   8.5252510
   4.8570350  57.4328210   8.9363980   6.5761160  67.1810490  10.8050870
   7.1935160  67.8561570  10.5235320   5.7154280  67.5898470  10.7138370
  17.4938750  68.6449900   8.7205510  16.8102270  69.3149010   8.7122180
  18.0333040  68.8430550   7.9550370  18.9462890  58.4729560   6.8487240
  17.9987800  58.5068540   6.9802670  19.2712880  59.2868510   7.2336600
   9.4782430  54.7726740   5.1443230   9.7857410  54.2173630   4.4278730
   8.5483130  54.9071200   4.9616220  15.0297490  70.4894030   7.4350690
  15.0424650  70.0856320   6.5672950  14.4772710  71.2641320   7.3312120
  16.3242910  67.2110250   2.5240860  16.2139240  66.2684580   2.6490280
  16.3211160  67.5725890   3.4103620  14.4282930  65.3923870   8.7633300
  14.8451720  65.1783980   7.9286760  15.1522750  65.6496660   9.3341920
  11.8663190  62.8375570   1.8803350  10.9392470  62.7712950   2.1091820
  12.0188010  63.7755700   1.7658590  18.3745030  63.7911090   8.8549540
  17.5463660  63.8604180   8.3799670  18.9695510  64.3765400   8.3865370
  15.8960480  64.3995870   2.3838600  15.2772900  64.0615420   1.7364900
  15.8784930  63.7555630   3.0917790  15.3387040  60.5780410   9.8004410
  14.9258220  61.4034120  10.0544400  14.6062990  59.9925450   9.6080770
   7.4719830  63.3640310   4.6623080   7.0676830  62.6517560   4.1668980
   7.5582950  63.0193550   5.5511120   7.9401530  67.0507870   6.8262290
   7.6429820  66.4453340   6.1470070   8.8901350  67.0885180   6.7151650
   6.1848450  60.1383520   8.4422120   6.7363040  60.2478860   7.6675370
   6.6991960  60.5121120   9.1577350  16.0287140  70.6239740  10.4885390
  15.5517700  71.4311930  10.2958000  15.3448930  69.9718070  10.6411600
   7.0319960  66.7889560  13.4770090   6.1348490  67.0129530  13.7243490
   7.0572830  66.9124500  12.5281490   5.8591180  63.6602880  12.0527460
   5.7198950  64.5325680  12.4214860   4.9772540  63.3175690  11.9075400
  12.1820560  68.5778750   3.3592590  12.6216470  69.3203080   2.9447980
  12.1207450  68.8205320   4.2831550   7.6571530  69.6024580  14.2612610
   7.6286960  70.0067530  13.3941040   7.4936500  68.6734940  14.0984210
  19.6086350  70.3851680  15.5576780  20.0846070  70.8634570  16.2365860
  20.2293510  70.3169170  14.8322280   1.8109830  65.4300430   7.9698370
   1.8890250  65.5649200   7.0254090   2.4251510  64.7216320   8.1626490
   3.0557460  67.1300620   4.3804550   2.6485540  67.2715210   3.5258150
   3.9470470  66.8460780   4.1775760  19.0119600  67.5764530  12.7176790
  19.1382660  67.3376410  11.7993970  19.0540980  66.7449070  13.1898870
  12.8736340  71.2792530  11.2871600  13.3881010  71.1900540  12.0894030
  12.0305420  71.6252230  11.5799510   7.3279120  71.3446400   2.4927220
   7.1521600  70.4281940   2.2795020   6.4734860  71.7033690   2.7325020
  14.1166800  70.6998140   3.3502090  14.5723750  69.9187520   3.6640710
  14.4559320  71.4104960   3.8943270  18.8643610  59.6296990  13.6826530
  18.2487880  60.1376660  13.1541990  18.5440030  58.7295320  13.6252470
   1.8669350  66.4714600  10.5092830   2.0300390  66.0019960   9.6912200
   2.3321800  65.9638160  11.1741670   6.6388120  55.6020360   5.5453400
   6.1956270  56.3829900   5.2137920   7.1973110  55.9250250   6.2524340
  10.9257930  58.4688880  11.1488720  10.4637300  58.6771900  11.9608660
  10.5236040  57.6548230  10.8459390  15.9262440  59.6897830  12.2785380
  15.0756030  59.3903580  12.5994450  15.7664230  59.9339840  11.3669200
  13.0212150  61.1899580  14.3784170  13.3465560  60.3563330  14.0386400
  13.8092480  61.7128100  14.5262500   8.6764020  56.1467690   7.4043000
   8.9736350  57.0530520   7.3235020   9.2249580  55.6586470   6.7902570
   6.4302340  60.7253930   3.2734650   6.2043260  60.5091100   4.1781270
   5.6494870  61.1582390   2.9280620   8.8701550  61.6239510  13.9394920
   8.7745150  60.6834240  13.7895320   9.7133530  61.8454580  13.5442990
  12.2664970  59.3680840   3.9028580  12.6594540  59.6853040   3.0897270
  12.6281820  58.4892720   4.0173100   4.0012090  58.0353180  12.0928700
   3.6075480  58.8828390  12.3001480   3.3130490  57.3979550  12.2837340
  10.5757140  58.1188150  15.1625440   9.8855460  57.9260350  15.7971530
  11.3189440  58.4022790  15.6949740  12.8520110  61.9586590   7.9979360
  12.1201230  62.4673400   8.3469460  12.4544450  61.1416570   7.6968140
   9.2897500  58.6340790   6.4031850   9.2933560  58.1930740   5.5536390
  10.1848620  58.9558120   6.5103670   5.1399880  58.5167280   5.3626060
   4.7999930  58.9942510   6.1193110   4.3777200  58.0632400   5.0027160
  13.3146020  57.4120270   7.4102300  13.3318760  57.8628920   8.2544150
  13.0661600  56.5125910   7.6235740  16.7416770  54.8252450  13.2488680
  17.0662540  54.0942110  13.7746660  16.7773280  54.5066090  12.3469670
   3.4408330  65.8466030  12.6688640   3.0563120  65.2059700  13.2671600
   3.7520520  66.5502150  13.2383370   9.5905470  62.6942570   8.1497260
   9.9575600  62.2201140   8.8958600   9.4010530  63.5684140   8.4905600
   2.4545960  57.4386260   4.2790730   2.1692880  57.0741930   5.1169350
   2.3924820  56.7066720   3.6653870   7.3804840  61.7351210  10.4681470
   7.0761910  62.6143190  10.6931830   8.3351300  61.7951000  10.5038910
  16.6674610  64.9377560   6.8574710  17.3873730  65.4332850   6.4670820
  16.4656430  64.2595450   6.2128580  12.0493410  65.0086620  12.7443710
  11.9830720  64.0882290  12.4901300  11.4198550  65.1062060  13.4588350
   5.9524030  65.6092580   4.7027130   6.4702700  64.8060840   4.6484020
   5.5008050  65.5471720   5.5443960   3.4368570  62.5753950  11.6152830
   3.0783510  63.2407800  12.2026170   3.1423130  61.7437500  11.9865450
   6.6381690  63.0338190  14.4992380   6.3381830  63.1795370  13.6020200
   7.4092930  62.4743480  14.4065770  11.9810140  67.8307190  12.4947510
  11.9954680  66.8988150  12.2766420  11.2735240  67.9166950  13.1337280
  18.1921350  64.4714530  11.8416090  17.4669540  65.0643310  11.6445480
  18.7196810  64.4638070  11.0429460  13.7220940  66.1974700   5.3399940
  14.0744760  65.6002830   4.6801310  12.8383270  65.8718930   5.5108190
   9.8084220  66.9572390   2.7470350  10.4955350  67.5041600   3.1277940
   9.0216640  67.5013120   2.7819960   9.1111430  63.9618420   2.3595710
   9.5674210  64.7723670   2.5855900   8.7599640  63.6441560   3.1914200
  11.4144040  69.4724760   9.5888010  12.0586260  69.6784140  10.2661430
  11.7773480  68.7113160   9.1358860   5.0123210  54.3056070   2.8318230
   4.8837840  54.2973970   3.7803150   4.1885230  54.6439160   2.4809240
  12.6876120  67.4757110   8.3065460  13.3298350  66.7750270   8.4197630
  13.2125470  68.2555550   8.1262350  14.4613740  68.2752010  11.5101520
  14.7969980  68.8618700  12.1879440  13.5414080  68.1444720  11.7399310
   2.2989730  70.0527450  13.2791460   2.4080850  69.1122190  13.1386850
   1.6470290  70.3182200  12.6305190  10.2902320  68.3243340  14.6789580
   9.9699190  67.6052580  15.2235270   9.6160680  68.9998410  14.7525640
  13.5055920  58.5569500  10.0426380  13.8736740  57.7364710  10.3705950
  12.6454120  58.6171390  10.4582030   8.8401980  59.7912390   2.2671820
   8.1318130  60.2598730   2.7085430   9.1246460  59.1334400   2.9017010
  10.4657910  61.2109090  10.2664350  10.9643160  61.6854910  10.9316200
  10.6080860  60.2872610  10.4734380  12.8717410  56.5163050   3.7067610
  12.7485190  56.5349180   2.7577120  13.8201970  56.5641990   3.8266010
   9.9594200  71.7518350   2.9795590  10.2135700  71.7139740   2.0574960
   9.0106680  71.6251680   2.9723840  17.6724770  57.4277050  11.1092740
  17.1698370  58.1682450  11.4486550  18.4881430  57.8161050  10.7929530
  15.9646780  62.6710230   4.5554100  15.0236920  62.6860460   4.7301790
  16.2790850  61.8846190   5.0014400  17.9672360  69.8419080   6.2308360
  18.0919780  70.6650250   6.7032170  18.8337920  69.6309810   5.8832510
   5.4389890  71.9350290   5.9025490   6.1752370  71.3865750   6.1734060
   5.8230810  72.8006300   5.7631480   4.4448170  71.1196360  15.0911070
   5.2460900  71.4408410  15.5046470   3.9299990  70.7591940  15.8130980
  13.2812800  67.2276230  15.0386480  12.6750960  67.2507830  14.2982230
  12.9766910  66.4959270  15.5753730  14.7113170  70.9556520  13.6495890
  15.6634920  70.8714540  13.5996130  14.5641390  71.6198230  14.3229680
   9.2183920  65.0140810  13.5682640   8.4529590  65.5825810  13.4837310
   9.3999880  64.7217020  12.6750870  16.3607270  66.7446140  14.1257660
  17.1016740  67.0821900  13.6225120  15.5979950  66.9138200  13.5727430
   4.1969060  61.7499410  14.9297190   4.2374400  61.4513280  15.8382420
   5.0514560  62.1507020  14.7704710   6.1374870  60.3291510  12.8971680
   5.6071330  59.8382460  12.2695020   6.8062940  60.7575710  12.3629610
  15.0352930  64.7960970  12.6612870  15.4493950  64.9506050  13.5103290
  14.1003930  64.9216190  12.8238650  15.5075100  62.1357130  14.6652020
  16.0895870  61.3809450  14.5772500  15.6836870  62.6664570  13.8883500
   6.6247170  57.2953880  12.9768970   6.5304040  56.6774630  12.2519840
   6.0444560  58.0220170  12.7498880   9.3908610  55.8527120  10.0096360
   8.9425910  55.8751380   9.1641910   8.7573810  55.4546140  10.6066660
   9.7968160  64.7481450  10.6308800  10.2156270  65.5914180  10.4585040
   8.8776790  64.8853490  10.4015580  12.1332060  62.4797630  12.0146640
  12.2528270  61.8838770  12.7541480  12.9926060  62.5167320  11.5947940
  14.4719960  63.0334820  10.5909150  13.9455180  63.5577440   9.9874290
  14.8151300  63.6662210  11.2218880   7.6475580  71.0534460  11.7466530
   7.1096670  71.7780520  11.4275230   7.9009540  70.5764800  10.9563870
   8.9000830  59.0218980  13.2722460   9.4900520  58.7134830  13.9600280
   8.0821070  58.5498730  13.4282360  13.7194260  58.6384790  13.5055480
  13.0309780  57.9766330  13.4405470  14.4400280  58.1923060  13.9503940
  10.5037790  72.2885670  12.0053180  10.4296490  73.1920810  12.3125550
   9.6016630  71.9697570  11.9775250   1.9065080  69.6160260   5.3086800
   2.2368090  68.7481320   5.0765440   2.3356080  69.8218780   6.1391760
   6.5027000  67.9469270   2.9688770   6.2022540  67.8234240   3.8692680
   6.3964490  67.0877860   2.5604500   2.3955290  70.4830850   8.0468430
   1.9586280  70.6631650   8.8792580   2.9632970  71.2405470   7.9050150
  18.0317470  69.9847850  12.3345740  17.4319460  70.0440410  11.5909660
  18.1611370  69.0452830  12.4642590   2.2279720  62.9951080   4.4057310
   1.5728560  62.7262720   3.7617010   3.0657670  62.8855560   3.9559290
  19.7335350  65.3263250   5.0191580  20.1044180  64.5430570   4.6127550
  20.3737280  66.0152350   4.8408880  16.7169110  66.7099830  10.4321900
  15.9028950  67.1396990  10.6947690  17.1243310  67.3218240   9.8190950
  18.6759890  62.7016510   2.3251600  18.3003490  61.9344440   1.8932890
  17.9463010  63.0839210   2.8126530   3.2655650  63.3803650   8.9460650
   3.6328690  63.2931050   9.8256670   2.6966470  62.6170200   8.8467510
  18.0659510  61.8488030  11.9591120  17.8345600  61.6200780  11.0589070
  18.3264060  62.7687580  11.9136010   2.8171650  60.2912740  12.8519070
   1.9227700  60.2579500  13.1912780   3.3569200  60.4899530  13.6170320
  16.5047580  57.0744460  14.7370820  17.3817760  57.0827860  15.1204820
  16.5168420  56.3375300  14.1263170  17.9510850  60.9274000   5.6258840
  18.4748330  60.4336650   4.9949010  18.5370270  61.0624360   6.3706410
  18.1300570  61.0113870   9.1478390  17.1803280  60.9777410   9.2623380
  18.3113580  61.9213980   8.9128160   3.3211360  54.5661070   7.2002290
   3.9687550  54.0158450   6.7597450   3.7413200  54.8204220   8.0218100
  18.8697980  58.8208300   4.0988930  18.7597260  58.6664340   5.0371200
  19.6305570  58.2929240   3.8564340  17.2163700  54.7602430  10.5571930
  17.8535920  55.3736570  10.9231120  17.3638590  54.7963090   9.6121160
  16.7745160  71.4618430   3.9590170  17.3704230  71.1403000   3.2824590
  17.0323310  70.9890250   4.7503440   3.0743360  54.7216740   9.9427610
   2.7258180  55.1780560  10.7085790   2.7431060  53.8273870  10.0250040
   4.6807730  67.8936340  14.1080800   4.6377360  67.5229250  14.9895260
   4.8118740  68.8313910  14.2482620   8.3813760  69.4495930   9.7090520
   8.1405120  69.7170490   8.8221040   9.3216400  69.6201660   9.7641380
  10.5868180  55.9128620  13.4647030  10.5257070  56.5050450  14.2142440
  11.5268560  55.8054580  13.3197290  13.2242740  55.5698680  13.1039320
  13.8383150  55.8877970  12.4420400  13.7692300  55.0847270  13.7235180
  19.6417920  71.4690310  10.5101160  19.1476200  71.8659180   9.7928290
  19.0331210  70.8439520  10.9038440   3.7464000  54.2492940  13.2178380
   4.2946990  54.0680990  12.4544490   3.8119310  53.4587050  13.7534690
   4.5195760  70.8398590  11.2278580   3.9256080  70.7083290  11.9668620
   4.5119600  70.0036730  10.7620680  13.9650780  54.1330820   9.4308610
  13.0910620  54.4665930   9.2281540  13.8561530  53.6604000  10.2560480
  14.8722760  56.3401690  10.8150330  14.5436120  55.5253450  10.4352060
  15.8205060  56.2971500  10.6916020  17.3257370  72.1113730   7.7887900
  16.8660340  72.8629540   7.4145920  16.6969830  71.3920200   7.7302700
   4.1507990  68.2056970  10.1786620   3.4242050  67.5862260  10.1112570
   4.2117140  68.5997580   9.3084700   7.7553090  70.4201970   6.9636030
   8.2718110  69.8089330   6.4384290   8.4050470  70.9230750   7.4547040
  10.4948590  71.3110460   7.7905010  10.7826400  71.0564760   6.9138020
  11.0071810  70.7587820   8.3810580  11.7125600  55.0500660   8.3701520
  10.9297390  55.5246160   8.6498280  11.4188530  54.1455490   8.2614700
  16.2646670  55.7523760   6.4150610  16.7054760  55.6968860   5.5672210
  15.9954260  56.6681770   6.4860790  18.1285240  55.3839000   4.4259430
  18.0673640  54.4400220   4.2790450  18.9077270  55.4919090   4.9712890
   2.4337990  71.5231360   3.3883380   2.2660030  70.8902040   4.0865270
   1.5672500  71.7290760   3.0377570   9.5979820  57.4687410   3.8817550
   8.7854330  57.0944300   3.5413430  10.1021460  56.7132490   4.1838740
  14.1004800  54.1329860   5.1200620  14.7034170  54.7050070   5.5949140
  13.3597790  54.6969300   4.8974520   7.6229000  55.6187330   2.4862600
   6.9931740  54.9174640   2.6532730   7.0834140  56.3791460   2.2695760
  10.5620950  72.2326560  15.1573210  11.4888260  71.9970830  15.2009170
  10.5471380  73.0598560  14.6759240   7.7484560  54.8971310  14.9215090
   7.4668830  55.4004910  14.1575910   8.1304260  54.0993060  14.5557220
  14.3500020  54.3124890  15.4995560  14.2365470  54.6319500  16.3947080
  15.1669760  54.7137400  15.2032840  17.1298510  71.4596420  14.9814250
  17.9223830  70.9645650  14.7740210  17.4231660  72.1386560  15.5889860
  13.2558170  43.5573870  79.7347750  13.1752220  42.6428480  79.4639460
  12.8422590  44.0540940  79.0287460  11.3876210  45.3352890  81.6157020
  10.6118310  44.8553330  81.9055590  12.0389140  44.6558540  81.4413180
   5.4042040  45.6472700  82.4932780   4.5726920  45.3921410  82.8929290
   6.0123020  45.7183470  83.2290700  15.4083640  49.7413080  80.3956150
  14.9465170  48.9700320  80.7243320  16.2209190  49.7679150  80.9008600
   5.3843300  49.6812790  82.6890800   5.6871340  48.7910530  82.5101020
   6.1286890  50.2383010  82.4613050   3.8133990  40.6074590  76.2775170
   2.9250690  40.9490560  76.1755050   4.0975180  40.4074910  75.3856000
   1.7767000  43.2080240  82.1614870   2.3483110  42.4402440  82.1618510
   1.7768540  43.5069000  81.2521480  11.6346950  52.0271090  80.0160140
  11.0158390  52.4828590  79.4454580  12.4898730  52.1822550  79.6149840
  10.8285200  48.0110080  81.6227180  10.7593480  47.0700020  81.4616310
  11.5905060  48.1011490  82.1949750   3.0191870  38.6164600  83.9483800
   2.8394710  37.7190350  84.2286560   2.6171950  39.1636470  84.6230750
  11.8590370  40.8180460  81.8496110  12.2355190  39.9452340  81.7369780
  11.7609880  41.1539160  80.9586550   5.9895380  39.1906090  77.3113550
   6.0962130  40.0909820  77.6182310   5.0787740  39.1424060  77.0208200
  15.6414490  38.3130900  78.7824450  16.4624110  37.8227470  78.8249930
  15.6748570  38.9028560  79.5356290   3.6378540  41.1125100  82.5566140
   4.3188650  41.3763470  83.1753540   3.3226590  40.2725970  82.8904150
   7.8303110  42.1592460  81.6438730   8.3381330  42.6573430  82.2843750
   8.3616350  41.3827660  81.4678090  19.9314040  40.3297650  85.3468080
  19.2266210  40.7179360  84.8283190  20.1971960  41.0247940  85.9489010
   6.1139210  36.7991020  85.9102150   6.1157650  37.3163410  85.1048050
   5.2843520  36.3221200  85.8872080  12.5010300  46.9110330  77.4092050
  11.8827570  47.3759780  76.8454770  13.0133550  47.6037810  77.8261560
   7.3642060  46.4386200  84.0875650   7.0311440  47.0655120  84.7296720
   7.5408740  46.9648080  83.3077320  15.8775970  40.2531280  81.5551990
  15.1731540  40.5416170  82.1355100  16.2388130  41.0631390  81.1951550
   5.7954540  38.5100980  83.9172600   6.1371350  39.3543030  83.6226470
   4.8570350  38.6584720  84.0337940   6.5761160  48.4067000  85.9024830
   7.1935160  49.0818080  85.6209280   5.7154280  48.8154980  85.8112330
  17.4938750  49.8706410  83.8179470  16.8102270  50.5405520  83.8096140
  18.0333040  50.0687060  83.0524330  18.9462890  39.6986070  81.9461200
  17.9987800  39.7325050  82.0776630  19.2712880  40.5125020  82.3310560
   9.4782430  35.9983250  80.2417190   9.7857410  35.4430140  79.5252690
   8.5483130  36.1327710  80.0590180  15.0297490  51.7150540  82.5324650
  15.0424650  51.3112830  81.6646910  14.4772710  52.4897830  82.4286080
  16.3242910  48.4366760  77.6214820  16.2139240  47.4941090  77.7464240
  16.3211160  48.7982400  78.5077580  14.4282930  46.6180380  83.8607260
  14.8451720  46.4040490  83.0260720  15.1522750  46.8753170  84.4315880
  11.8663190  44.0632080  76.9777310  10.9392470  43.9969460  77.2065780
  12.0188010  45.0012210  76.8632550  11.8532270  40.3349080  73.9744470
  10.9135940  40.4963040  74.0596930  12.1715530  41.0534760  73.4280460
  18.3745030  45.0167600  83.9523500  17.5463660  45.0860690  83.4773630
  18.9695510  45.6021910  83.4839330  15.8960480  45.6252380  77.4812560
  15.2772900  45.2871930  76.8338860  15.8784930  44.9812140  78.1891750
  15.3387040  41.8036920  84.8978370  14.9258220  42.6290630  85.1518360
  14.6062990  41.2181960  84.7054730   7.4719830  44.5896820  79.7597040
   7.0676830  43.8774070  79.2642940   7.5582950  44.2450060  80.6485080
   7.9401530  48.2764380  81.9236250   7.6429820  47.6709850  81.2444030
   8.8901350  48.3141690  81.8125610   6.1848450  41.3640030  83.5396080
   6.7363040  41.4735370  82.7649330   6.6991960  41.7377630  84.2551310
  16.0287140  51.8496250  85.5859350  15.5517700  52.6568440  85.3931960
  15.3448930  51.1974580  85.7385560  14.0725180  44.8639190  74.4885310
  14.5118460  44.0261620  74.3423130  14.7853600  45.4968590  74.5749450
  12.1820560  49.8035260  78.4566550  12.6216470  50.5459590  78.0421940
  12.1207450  50.0461830  79.3805510  17.6542320  36.1182000  72.8026350
  17.3414980  36.2108830  73.7025420  18.4154790  36.6963030  72.7523780
   4.1724460  43.4841800  77.2603690   4.0522060  44.2103890  76.6484960
   3.8625350  42.7144710  76.7831600   1.8109830  46.6556940  83.0672330
   1.8890250  46.7905710  82.1228050   2.4251510  45.9472830  83.2600450
   3.0557460  48.3557130  79.4778510   2.6485540  48.4971720  78.6232110
   3.9470470  48.0717290  79.2749720  14.8490740  52.7904380  75.8129560
  14.6891880  52.5007320  76.7111390  14.6837450  52.0144510  75.2774790
   7.3279120  52.5702910  77.5901180   7.1521600  51.6538450  77.3768980
   6.4734860  52.9290200  77.8298980  14.5516870  50.2991940  74.3727560
  13.8582030  50.2969230  73.7129840  15.2939730  49.8751260  73.9421730
  14.1166800  51.9254650  78.4476050  14.5723750  51.1444030  78.7614670
  14.4559320  52.6361470  78.9917230   6.6388120  36.8276870  80.6427360
   6.1956270  37.6086410  80.3111880   7.1973110  37.1506760  81.3498300
   9.7546940  36.4487570  75.5233190   9.1301120  36.4447440  76.2486500
   9.6677060  35.5818530  75.1269160   8.6764020  37.3724200  82.5016960
   8.9736350  38.2787030  82.4208980   9.2249580  36.8842980  81.8876530
   6.4302340  41.9510440  78.3708610   6.2043260  41.7347610  79.2755230
   5.6494870  42.3838900  78.0254580  13.6600100  41.9573810  76.9699260
  13.0608990  42.6809610  76.7862880  14.2079710  41.8950590  76.1875710
  12.2664970  40.5937350  79.0002540  12.6594540  40.9109550  78.1871230
  12.6281820  39.7149230  79.1147060  12.8520110  43.1843100  83.0953320
  12.1201230  43.6929910  83.4443420  12.4544450  42.3673080  82.7942100
   9.2897500  39.8597300  81.5005810   9.2933560  39.4187250  80.6510350
  10.1848620  40.1814630  81.6077630   5.1399880  39.7423790  80.4600020
   4.7999930  40.2199020  81.2167070   4.3777200  39.2888910  80.1001120
   9.3517650  40.8609380  74.4912570   9.4730470  40.8195860  75.4398390
   8.9666160  41.7233530  74.3359300  13.3146020  38.6376780  82.5076260
  13.3318760  39.0885430  83.3518110  13.0661600  37.7382420  82.7209700
   8.3639150  43.1710520  73.8895870   7.7956050  42.7228770  73.2631780
   9.0728150  43.5303300  73.3561020   9.5905470  43.9199080  83.2471220
   9.9575600  43.4457650  83.9932560   9.4010530  44.7940650  83.5879560
   2.4545960  38.6642770  79.3764690   2.1692880  38.2998440  80.2143310
   2.3924820  37.9323230  78.7627830   7.3804840  42.9607720  85.5655430
   7.0761910  43.8399700  85.7905790   8.3351300  43.0207510  85.6012870
   5.9086630  47.1668710  76.1622280   5.1348890  46.6266330  76.0021000
   6.6381260  46.6475320  75.8240040  16.6674610  46.1634070  81.9548670
  17.3873730  46.6589360  81.5644780  16.4656430  45.4851960  81.3102540
  12.1284550  37.5572030  76.0978060  11.3149160  37.0585200  76.0223370
  11.9346500  38.3970280  75.6814410  14.8432940  41.9291680  74.3940220
  15.7312560  42.2408910  74.2191560  14.8138030  41.0563930  74.0020800
   5.9524030  46.8349090  79.8001090   6.4702700  46.0317350  79.7457980
   5.5008050  46.7728230  80.6417920  10.8393530  48.1015370  75.0728390
  11.1809230  48.8457600  74.5771710  10.0106240  48.4146490  75.4353220
  17.1147210  43.2403520  73.8620080  17.0310930  43.6717740  73.0116520
  17.8341400  43.7001870  74.2946900  18.1434460  50.0945780  76.5902210
  17.5010620  49.4401400  76.8645930  17.7565120  50.5000870  75.8142880
  13.7220940  47.4231210  80.4373900  14.0744760  46.8259340  79.7775270
  12.8383270  47.0975440  80.6082150   9.8084220  48.1828900  77.8444310
  10.4955350  48.7298110  78.2251900   9.0216640  48.7269630  77.8793920
   9.1111430  45.1874930  77.4569670   9.5674210  45.9980180  77.6829860
   8.7599640  44.8698070  78.2888160  11.4144040  50.6981270  84.6861970
  12.0586260  50.9040650  85.3635390  11.7773480  49.9369670  84.2332820
   5.0123210  35.5312580  77.9292190   4.8837840  35.5230480  78.8777110
   4.1885230  35.8695670  77.5783200  12.6876120  48.7013620  83.4039420
  13.3298350  48.0006780  83.5171590  13.2125470  49.4812060  83.2236310
  16.5331840  48.9862240  73.1278560  16.3069420  48.2692680  73.7203200
  16.1428040  48.7374680  72.2900310   2.3147870  53.0129100  73.9023020
   2.6745510  53.6118440  73.2480290   2.1740210  53.5588990  74.6758050
  16.1148090  46.9034180  74.7892720  15.8269790  47.3646870  75.5770600
  16.9100260  46.4431950  75.0576940   8.3316490  50.3960300  74.7196690
   8.3226590  51.1289990  74.1041200   7.4114850  50.1491880  74.8123650
   3.9323130  45.6175190  75.4643450   3.3251080  46.3574090  75.4738750
   4.4072480  45.7074550  74.6381650  13.5055920  39.7826010  85.1400340
  13.8736740  38.9621220  85.4679910  12.6454120  39.8427900  85.5555990
  16.8717950  38.7382950  75.9487900  16.2431110  38.8428620  75.2346130
  16.3769870  38.9579730  76.7381780  11.3176090  50.4588540  73.3821880
  11.4188070  50.2552530  72.4523860  10.4177830  50.2046820  73.5869660
   8.8401980  41.0168900  77.3645780   8.1318130  41.4855240  77.8059390
   9.1246460  40.3590910  77.9990970  12.8717410  37.7419560  78.8041570
  12.7485190  37.7605690  77.8551080  13.8201970  37.7898500  78.9239970
   9.9594200  52.9774860  78.0769550  10.2135700  52.9396250  77.1548920
   9.0106680  52.8508190  78.0697800   7.0437000  39.3253980  74.7396490
   7.8927530  39.7624130  74.6736680   6.6768270  39.6374240  75.5668550
  15.9646780  43.8966740  79.6528060  15.0236920  43.9116970  79.8275750
  16.2790850  43.1102700  80.0988360   5.9428420  45.5786340  73.2132020
   6.7091690  45.4667700  73.7757450   6.0203110  44.8824310  72.5608790
   4.6375180  43.0111410  73.8964910   4.7178770  42.0638920  74.0082310
   5.5294930  43.3418290  74.0025570  17.9672360  51.0675590  81.3282320
  18.0919780  51.8906760  81.8006130  18.8337920  50.8566320  80.9806470
   5.4389890  53.1606800  80.9999450   6.1752370  52.6122260  81.2708020
   5.8230810  54.0262810  80.8605440   8.5492200  52.3337110  72.8225020
   9.3420810  52.6225940  72.3706810   8.0296550  51.9029280  72.1437500
  17.6022370  51.5607240  74.2461760  17.3163880  51.1472380  73.4315940
  17.4041920  52.4894950  74.1262280   9.0669600  47.5540520  72.6867370
   8.9620240  46.9392870  73.4128750   8.8993820  47.0306410  71.9030380
  12.3072330  46.6160550  73.2909360  11.7582430  47.0629850  73.9352100
  12.9291590  46.1109800  73.8147030   7.9747450  45.5751470  75.1874660
   8.3963870  45.4091340  76.0306050   8.0998290  44.7651700  74.6929800
  10.4875090  44.5989080  72.4351760  11.0080750  43.8838100  72.0692910
  11.1343490  45.2374950  72.7352270   9.3908610  37.0783630  85.1070320
   8.9425910  37.1007890  84.2615870   8.7573810  36.6802650  85.7040620
   9.7968160  45.9737960  85.7282760  10.2156270  46.8170690  85.5559000
   8.8776790  46.1110000  85.4989540   6.8706350  41.6484700  72.1332820
   6.6695410  40.7852060  72.4946160   6.6998400  41.5618060  71.1954420
  14.3494660  36.4592930  74.6619700  14.6296950  35.6160830  75.0179120
  13.5760390  36.6916040  75.1758450   5.6689150  38.7485320  72.1210700
   5.9715050  38.7552750  71.2129850   6.4083740  38.3983180  72.6178360
   8.8874080  37.6919940  73.1066900   8.5396080  37.0143930  72.5269350
   9.0886850  37.2309450  73.9210290  11.0523120  52.6800690  74.7253500
  11.9473910  53.0185660  74.7472260  11.0840750  51.9580100  74.0977780
   4.6919280  48.0527740  72.9540500   5.1294150  48.5957410  73.6098080
   5.1767010  47.2274690  72.9636840   1.9065080  50.8416770  80.4060760
   2.2368090  49.9737830  80.1739400   2.3356080  51.0475290  81.2365720
   6.5027000  49.1725780  78.0662730   6.2022540  49.0490750  78.9666640
   6.3964490  48.3134370  77.6578460   2.3955290  51.7087360  83.1442390
   1.9586280  51.8888160  83.9766540   2.9632970  52.4661980  83.0024110
  19.2718920  48.9522180  72.7689410  18.4411880  49.0198830  73.2396640
  19.4490750  49.8426300  72.4656270  18.7275380  45.6969660  75.2723610
  19.4894290  46.2666310  75.3783300  18.7429750  45.1296860  76.0431920
   2.2279720  44.2207590  79.5031270   1.5728560  43.9519230  78.8590970
   3.0657670  44.1112070  79.0533250  19.7335350  46.5519760  80.1165540
  20.1044180  45.7687080  79.7101510  20.3737280  47.2408860  79.9382840
  16.7169110  47.9356340  85.5295860  15.9028950  48.3653500  85.7921650
  17.1243310  48.5474750  84.9164910  18.7794550  45.9904030  72.4296130
  19.0543390  46.8982910  72.3015350  18.5905290  45.9266560  73.3658120
  15.1770160  39.0148880  73.7249760  15.5955040  38.8279860  72.8846420
  14.8706220  38.1627930  74.0352690  18.6759890  43.9273020  77.4225560
  18.3003490  43.1600950  76.9906850  17.9463010  44.3095720  77.9100490
   3.2655650  44.6060160  84.0434610   3.6328690  44.5187560  84.9230630
   2.6966470  43.8426710  83.9441470  17.9510850  42.1530510  80.7232800
  18.4748330  41.6593160  80.0922970  18.5370270  42.2880870  81.4680370
  18.1300570  42.2370380  84.2452350  17.1803280  42.2033920  84.3597340
  18.3113580  43.1470490  84.0102120   3.9845010  40.4872060  73.3550980
   4.6936710  40.0655280  72.8698260   3.2684950  40.5547290  72.7234330
   3.6319170  36.5411390  72.3953630   4.3547300  37.0820330  72.7134850
   3.9043690  36.2674810  71.5195170  17.4410820  41.4103860  76.6625210
  17.9369940  41.1774730  77.4474090  17.2426890  40.5715700  76.2462850
   3.3211360  35.7917580  82.2976250   3.9687550  35.2414960  81.8571410
   3.7413200  36.0460730  83.1192060  18.8697980  40.0464810  79.1962890
  18.7597260  39.8920850  80.1345160  19.6305570  39.5185750  78.9538300
  19.7588250  37.8772730  72.4369030  20.6837560  37.7453910  72.2287320
  19.7364040  37.9565550  73.3905480  19.8326740  38.6483390  75.0625740
  19.0378240  38.5828510  75.5918650  20.0370020  39.5834030  75.0511090
  16.7745160  52.6874940  79.0564130  17.3704230  52.3659510  78.3798550
  17.0323310  52.2146760  79.8477400   3.0743360  35.9473250  85.0401570
   2.7258180  36.4037070  85.8059750   2.7431060  35.0530380  85.1224000
   8.3813760  50.6752440  84.8064480   8.1405120  50.9427000  83.9195000
   9.3216400  50.8458170  84.8615340  13.9650780  35.3587330  84.5282570
  13.0910620  35.6922440  84.3255500  13.8561530  34.8860510  85.3534440
  14.8722760  37.5658200  85.9124290  14.5436120  36.7509960  85.5326020
  15.8205060  37.5228010  85.7889980  17.3257370  53.3370240  82.8861860
  16.8660340  54.0886050  82.5119880  16.6969830  52.6176710  82.8276660
   4.1507990  49.4313480  85.2760580   3.4242050  48.8118770  85.2086530
   4.2117140  49.8254090  84.4058660   7.7553090  51.6458480  82.0609990
   8.2718110  51.0345840  81.5358250   8.4050470  52.1487260  82.5521000
  10.4948590  52.5366970  82.8878970  10.7826400  52.2821270  82.0111980
  11.0071810  51.9844330  83.4784540  11.7125600  36.2757170  83.4675480
  10.9297390  36.7502670  83.7472240  11.4188530  35.3712000  83.3588660
  16.2646670  36.9780270  81.5124570  16.7054760  36.9225370  80.6646170
  15.9954260  37.8938280  81.5834750  18.1285240  36.6095510  79.5233390
  18.0673640  35.6656730  79.3764410  18.9077270  36.7175600  80.0686850
   2.4337990  52.7487870  78.4857340   2.2660030  52.1158550  79.1839230
   1.5672500  52.9547270  78.1351530   3.0566010  36.5804650  75.9889200
   3.8145370  36.6933530  75.4153230   2.5943180  37.4173850  75.9432630
   9.5979820  38.6943920  78.9791510   8.7854330  38.3200810  78.6387390
  10.1021460  37.9389000  79.2812700  14.1004800  35.3586370  80.2174580
  14.7034170  35.9306580  80.6923100  13.3597790  35.9225810  79.9948480
  17.2439400  35.7607930  75.4914860  17.4390030  36.6591380  75.7582290
  16.4569270  35.5295010  75.9847810   4.0400690  51.4421100  75.9307480
   3.5148310  51.8229130  75.2269440   3.9645270  52.0671870  76.6517190
   5.4291160  37.1068700  74.5291170   5.9583920  36.3198500  74.3999120
   6.0619480  37.7859890  74.7626700   7.6229000  36.8443840  77.5836560
   6.9931740  36.1431150  77.7506690   7.0834140  37.6047970  77.3669720
  18.7966010  53.0008640  77.2521420  18.9718200  52.3146380  76.6082340
  18.0987580  53.5255690  76.8598090   6.6393660  53.3903480  74.8056730
   7.3712480  53.1062760  74.2580620   6.8987330  53.1516760  75.6956110
   5.8008450  49.5068210  74.8103060   5.1717330  49.9753310  75.3588890
   5.9156280  48.6617430  75.2449250  13.2558170  43.5573870  60.9604260
  13.1752220  42.6428480  60.6895970  12.8422590  44.0540940  60.2543970
  11.3876210  45.3352890  62.8413530  10.6118310  44.8553330  63.1312100
  12.0389140  44.6558540  62.6669690   5.4042040  45.6472700  63.7189290
   4.5726920  45.3921410  64.1185800   6.0123020  45.7183470  64.4547210
  15.4083640  49.7413080  61.6212660  14.9465170  48.9700320  61.9499830
  16.2209190  49.7679150  62.1265110   5.3843300  49.6812790  63.9147310
   5.6871340  48.7910530  63.7357530   6.1286890  50.2383010  63.6869560
   3.8133990  40.6074590  57.5031680   2.9250690  40.9490560  57.4011560
   4.0975180  40.4074910  56.6112510   1.7767000  43.2080240  63.3871380
   2.3483110  42.4402440  63.3875020   1.7768540  43.5069000  62.4777990
  11.6346950  52.0271090  61.2416650  11.0158390  52.4828590  60.6711090
  12.4898730  52.1822550  60.8406350  10.8285200  48.0110080  62.8483690
  10.7593480  47.0700020  62.6872820  11.5905060  48.1011490  63.4206260
   3.0191870  38.6164600  65.1740310   2.8394710  37.7190350  65.4543070
   2.6171950  39.1636470  65.8487260  11.8590370  40.8180460  63.0752620
  12.2355190  39.9452340  62.9626290  11.7609880  41.1539160  62.1843060
   5.9895380  39.1906090  58.5370060   6.0962130  40.0909820  58.8438820
   5.0787740  39.1424060  58.2464710  15.6414490  38.3130900  60.0080960
  16.4624110  37.8227470  60.0506440  15.6748570  38.9028560  60.7612800
   3.6378540  41.1125100  63.7822650   4.3188650  41.3763470  64.4010050
   3.3226590  40.2725970  64.1160660   7.8303110  42.1592460  62.8695240
   8.3381330  42.6573430  63.5100260   8.3616350  41.3827660  62.6934600
  19.9314040  40.3297650  66.5724590  19.2266210  40.7179360  66.0539700
  20.1971960  41.0247940  67.1745520   6.1139210  36.7991020  67.1358660
   6.1157650  37.3163410  66.3304560   5.2843520  36.3221200  67.1128590
  12.5010300  46.9110330  58.6348560  11.8827570  47.3759780  58.0711280
  13.0133550  47.6037810  59.0518070   7.3642060  46.4386200  65.3132160
   7.0311440  47.0655120  65.9553230   7.5408740  46.9648080  64.5333830
  15.8775970  40.2531280  62.7808500  15.1731540  40.5416170  63.3611610
  16.2388130  41.0631390  62.4208060   5.7954540  38.5100980  65.1429110
   6.1371350  39.3543030  64.8482980   4.8570350  38.6584720  65.2594450
   6.5761160  48.4067000  67.1281340   7.1935160  49.0818080  66.8465790
   5.7154280  48.8154980  67.0368840  17.4938750  49.8706410  65.0435980
  16.8102270  50.5405520  65.0352650  18.0333040  50.0687060  64.2780840
  18.9462890  39.6986070  63.1717710  17.9987800  39.7325050  63.3033140
  19.2712880  40.5125020  63.5567070   9.4782430  35.9983250  61.4673700
   9.7857410  35.4430140  60.7509200   8.5483130  36.1327710  61.2846690
  15.0297490  51.7150540  63.7581160  15.0424650  51.3112830  62.8903420
  14.4772710  52.4897830  63.6542590  16.3242910  48.4366760  58.8471330
  16.2139240  47.4941090  58.9720750  16.3211160  48.7982400  59.7334090
  14.4282930  46.6180380  65.0863770  14.8451720  46.4040490  64.2517230
  15.1522750  46.8753170  65.6572390  11.8663190  44.0632080  58.2033820
  10.9392470  43.9969460  58.4322290  12.0188010  45.0012210  58.0889060
  11.8532270  40.3349080  55.2000980  10.9135940  40.4963040  55.2853440
  12.1715530  41.0534760  54.6536970  18.3745030  45.0167600  65.1780010
  17.5463660  45.0860690  64.7030140  18.9695510  45.6021910  64.7095840
  15.8960480  45.6252380  58.7069070  15.2772900  45.2871930  58.0595370
  15.8784930  44.9812140  59.4148260  15.3387040  41.8036920  66.1234880
  14.9258220  42.6290630  66.3774870  14.6062990  41.2181960  65.9311240
   7.4719830  44.5896820  60.9853550   7.0676830  43.8774070  60.4899450
   7.5582950  44.2450060  61.8741590   7.9401530  48.2764380  63.1492760
   7.6429820  47.6709850  62.4700540   8.8901350  48.3141690  63.0382120
   6.1848450  41.3640030  64.7652590   6.7363040  41.4735370  63.9905840
   6.6991960  41.7377630  65.4807820  16.0287140  51.8496250  66.8115860
  15.5517700  52.6568440  66.6188470  15.3448930  51.1974580  66.9642070
   7.0319960  48.0146070  69.8000560   6.1348490  48.2386040  70.0473960
   7.0572830  48.1381010  68.8511960  14.0725180  44.8639190  55.7141820
  14.5118460  44.0261620  55.5679640  14.7853600  45.4968590  55.8005960
   5.8591180  44.8859390  68.3757930   5.7198950  45.7582190  68.7445330
   4.9772540  44.5432200  68.2305870  12.1820560  49.8035260  59.6823060
  12.6216470  50.5459590  59.2678450  12.1207450  50.0461830  60.6062020
   7.6571530  50.8281090  70.5843080   7.6286960  51.2324040  69.7171510
   7.4936500  49.8991450  70.4214680  17.6542320  36.1182000  54.0282860
  17.3414980  36.2108830  54.9281930  18.4154790  36.6963030  53.9780290
   4.1724460  43.4841800  58.4860200   4.0522060  44.2103890  57.8741470
   3.8625350  42.7144710  58.0088110  19.6086350  51.6108190  71.8807250
  20.0846070  52.0891080  72.5596330  20.2293510  51.5425680  71.1552750
   1.8109830  46.6556940  64.2928840   1.8890250  46.7905710  63.3484560
   2.4251510  45.9472830  64.4856960   3.0557460  48.3557130  60.7035020
   2.6485540  48.4971720  59.8488620   3.9470470  48.0717290  60.5006230
  19.0119600  48.8021040  69.0407260  19.1382660  48.5632920  68.1224440
  19.0540980  47.9705580  69.5129340  12.8736340  52.5049040  67.6102070
  13.3881010  52.4157050  68.4124500  12.0305420  52.8508740  67.9029980
  14.8490740  52.7904380  57.0386070  14.6891880  52.5007320  57.9367900
  14.6837450  52.0144510  56.5031300   7.3279120  52.5702910  58.8157690
   7.1521600  51.6538450  58.6025490   6.4734860  52.9290200  59.0555490
  14.5516870  50.2991940  55.5984070  13.8582030  50.2969230  54.9386350
  15.2939730  49.8751260  55.1678240  14.1166800  51.9254650  59.6732560
  14.5723750  51.1444030  59.9871180  14.4559320  52.6361470  60.2173740
  18.8643610  40.8553500  70.0057000  18.2487880  41.3633170  69.4772460
  18.5440030  39.9551830  69.9482940   1.8669350  47.6971110  66.8323300
   2.0300390  47.2276470  66.0142670   2.3321800  47.1894670  67.4972140
   6.6388120  36.8276870  61.8683870   6.1956270  37.6086410  61.5368390
   7.1973110  37.1506760  62.5754810  10.9257930  39.6945390  67.4719190
  10.4637300  39.9028410  68.2839130  10.5236040  38.8804740  67.1689860
  15.9262440  40.9154340  68.6015850  15.0756030  40.6160090  68.9224920
  15.7664230  41.1596350  67.6899670  13.0212150  42.4156090  70.7014640
  13.3465560  41.5819840  70.3616870  13.8092480  42.9384610  70.8492970
   9.7546940  36.4487570  56.7489700   9.1301120  36.4447440  57.4743010
   9.6677060  35.5818530  56.3525670   8.6764020  37.3724200  63.7273470
   8.9736350  38.2787030  63.6465490   9.2249580  36.8842980  63.1133040
   6.4302340  41.9510440  59.5965120   6.2043260  41.7347610  60.5011740
   5.6494870  42.3838900  59.2511090  13.6600100  41.9573810  58.1955770
  13.0608990  42.6809610  58.0119390  14.2079710  41.8950590  57.4132220
   8.8701550  42.8496020  70.2625390   8.7745150  41.9090750  70.1125790
   9.7133530  43.0711090  69.8673460  12.2664970  40.5937350  60.2259050
  12.6594540  40.9109550  59.4127740  12.6281820  39.7149230  60.3403570
   4.0012090  39.2609690  68.4159170   3.6075480  40.1084900  68.6231950
   3.3130490  38.6236060  68.6067810  10.5757140  39.3444660  71.4855910
   9.8855460  39.1516860  72.1202000  11.3189440  39.6279300  72.0180210
  12.8520110  43.1843100  64.3209830  12.1201230  43.6929910  64.6699930
  12.4544450  42.3673080  64.0198610   9.2897500  39.8597300  62.7262320
   9.2933560  39.4187250  61.8766860  10.1848620  40.1814630  62.8334140
   5.1399880  39.7423790  61.6856530   4.7999930  40.2199020  62.4423580
   4.3777200  39.2888910  61.3257630   9.3517650  40.8609380  55.7169080
   9.4730470  40.8195860  56.6654900   8.9666160  41.7233530  55.5615810
  13.3146020  38.6376780  63.7332770  13.3318760  39.0885430  64.5774620
  13.0661600  37.7382420  63.9466210   8.3639150  43.1710520  55.1152380
   7.7956050  42.7228770  54.4888290   9.0728150  43.5303300  54.5817530
  16.7416770  36.0508960  69.5719150  17.0662540  35.3198620  70.0977130
  16.7773280  35.7322600  68.6700140   3.4408330  47.0722540  68.9919110
   3.0563120  46.4316210  69.5902070   3.7520520  47.7758660  69.5613840
   9.5905470  43.9199080  64.4727730   9.9575600  43.4457650  65.2189070
   9.4010530  44.7940650  64.8136070   2.4545960  38.6642770  60.6021200
   2.1692880  38.2998440  61.4399820   2.3924820  37.9323230  59.9884340
   7.3804840  42.9607720  66.7911940   7.0761910  43.8399700  67.0162300
   8.3351300  43.0207510  66.8269380   5.9086630  47.1668710  57.3878790
   5.1348890  46.6266330  57.2277510   6.6381260  46.6475320  57.0496550
  16.6674610  46.1634070  63.1805180  17.3873730  46.6589360  62.7901290
  16.4656430  45.4851960  62.5359050  12.1284550  37.5572030  57.3234570
  11.3149160  37.0585200  57.2479880  11.9346500  38.3970280  56.9070920
  12.0493410  46.2343130  69.0674180  11.9830720  45.3138800  68.8131770
  11.4198550  46.3318570  69.7818820  14.8432940  41.9291680  55.6196730
  15.7312560  42.2408910  55.4448070  14.8138030  41.0563930  55.2277310
   5.9524030  46.8349090  61.0257600   6.4702700  46.0317350  60.9714490
   5.5008050  46.7728230  61.8674430  10.8393530  48.1015370  56.2984900
  11.1809230  48.8457600  55.8028220  10.0106240  48.4146490  56.6609730
   3.4368570  43.8010460  67.9383300   3.0783510  44.4664310  68.5256640
   3.1423130  42.9694010  68.3095920   6.6381690  44.2594700  70.8222850
   6.3381830  44.4051880  69.9250670   7.4092930  43.6999990  70.7296240
  11.9810140  49.0563700  68.8177980  11.9954680  48.1244660  68.5996890
  11.2735240  49.1423460  69.4567750  17.1147210  43.2403520  55.0876590
  17.0310930  43.6717740  54.2373030  17.8341400  43.7001870  55.5203410
  18.1921350  45.6971040  68.1646560  17.4669540  46.2899820  67.9675950
  18.7196810  45.6894580  67.3659930  18.1434460  50.0945780  57.8158720
  17.5010620  49.4401400  58.0902440  17.7565120  50.5000870  57.0399390
  13.7220940  47.4231210  61.6630410  14.0744760  46.8259340  61.0031780
  12.8383270  47.0975440  61.8338660   9.8084220  48.1828900  59.0700820
  10.4955350  48.7298110  59.4508410   9.0216640  48.7269630  59.1050430
   9.1111430  45.1874930  58.6826180   9.5674210  45.9980180  58.9086370
   8.7599640  44.8698070  59.5144670  11.4144040  50.6981270  65.9118480
  12.0586260  50.9040650  66.5891900  11.7773480  49.9369670  65.4589330
   5.0123210  35.5312580  59.1548700   4.8837840  35.5230480  60.1033620
   4.1885230  35.8695670  58.8039710  12.6876120  48.7013620  64.6295930
  13.3298350  48.0006780  64.7428100  13.2125470  49.4812060  64.4492820
  16.5331840  48.9862240  54.3535070  16.3069420  48.2692680  54.9459710
  16.1428040  48.7374680  53.5156820  14.4613740  49.5008520  67.8331990
  14.7969980  50.0875210  68.5109910  13.5414080  49.3701230  68.0629780
   2.3147870  53.0129100  55.1279530   2.6745510  53.6118440  54.4736800
   2.1740210  53.5588990  55.9014560  16.1148090  46.9034180  56.0149230
  15.8269790  47.3646870  56.8027110  16.9100260  46.4431950  56.2833450
   2.2989730  51.2783960  69.6021930   2.4080850  50.3378700  69.4617320
   1.6470290  51.5438710  68.9535660  10.2902320  49.5499850  71.0020050
   9.9699190  48.8309090  71.5465740   9.6160680  50.2254920  71.0756110
   8.3316490  50.3960300  55.9453200   8.3226590  51.1289990  55.3297710
   7.4114850  50.1491880  56.0380160   3.9323130  45.6175190  56.6899960
   3.3251080  46.3574090  56.6995260   4.4072480  45.7074550  55.8638160
  13.5055920  39.7826010  66.3656850  13.8736740  38.9621220  66.6936420
  12.6454120  39.8427900  66.7812500  16.8717950  38.7382950  57.1744410
  16.2431110  38.8428620  56.4602640  16.3769870  38.9579730  57.9638290
  11.3176090  50.4588540  54.6078390  11.4188070  50.2552530  53.6780370
  10.4177830  50.2046820  54.8126170   8.8401980  41.0168900  58.5902290
   8.1318130  41.4855240  59.0315900   9.1246460  40.3590910  59.2247480
  10.4657910  42.4365600  66.5894820  10.9643160  42.9111420  67.2546670
  10.6080860  41.5129120  66.7964850  12.8717410  37.7419560  60.0298080
  12.7485190  37.7605690  59.0807590  13.8201970  37.7898500  60.1496480
   9.9594200  52.9774860  59.3026060  10.2135700  52.9396250  58.3805430
   9.0106680  52.8508190  59.2954310   7.0437000  39.3253980  55.9653000
   7.8927530  39.7624130  55.8993190   6.6768270  39.6374240  56.7925060
  17.6724770  38.6533560  67.4323210  17.1698370  39.3938960  67.7717020
  18.4881430  39.0417560  67.1160000  15.9646780  43.8966740  60.8784570
  15.0236920  43.9116970  61.0532260  16.2790850  43.1102700  61.3244870
   5.9428420  45.5786340  54.4388530   6.7091690  45.4667700  55.0013960
   6.0203110  44.8824310  53.7865300   4.6375180  43.0111410  55.1221420
   4.7178770  42.0638920  55.2338820   5.5294930  43.3418290  55.2282080
  17.9672360  51.0675590  62.5538830  18.0919780  51.8906760  63.0262640
  18.8337920  50.8566320  62.2062980   5.4389890  53.1606800  62.2255960
   6.1752370  52.6122260  62.4964530   5.8230810  54.0262810  62.0861950
   4.4448170  52.3452870  71.4141540   5.2460900  52.6664920  71.8276940
   3.9299990  51.9848450  72.1361450   8.5492200  52.3337110  54.0481530
   9.3420810  52.6225940  53.5963320   8.0296550  51.9029280  53.3694010
  13.2812800  48.4532740  71.3616950  12.6750960  48.4764340  70.6212700
  12.9766910  47.7215780  71.8984200  14.7113170  52.1813030  69.9726360
  15.6634920  52.0971050  69.9226600  14.5641390  52.8454740  70.6460150
  17.6022370  51.5607240  55.4718270  17.3163880  51.1472380  54.6572450
  17.4041920  52.4894950  55.3518790   9.0669600  47.5540520  53.9123880
   8.9620240  46.9392870  54.6385260   8.8993820  47.0306410  53.1286890
   9.2183920  46.2397320  69.8913110   8.4529590  46.8082320  69.8067780
   9.3999880  45.9473530  68.9981340  12.3072330  46.6160550  54.5165870
  11.7582430  47.0629850  55.1608610  12.9291590  46.1109800  55.0403540
  16.3607270  47.9702650  70.4488130  17.1016740  48.3078410  69.9455590
  15.5979950  48.1394710  69.8957900   4.1969060  42.9755920  71.2527660
   4.2374400  42.6769790  72.1612890   5.0514560  43.3763530  71.0935180
   7.9747450  45.5751470  56.4131170   8.3963870  45.4091340  57.2562560
   8.0998290  44.7651700  55.9186310   6.1374870  41.5548020  69.2202150
   5.6071330  41.0638970  68.5925490   6.8062940  41.9832220  68.6860080
  10.4875090  44.5989080  53.6608270  11.0080750  43.8838100  53.2949420
  11.1343490  45.2374950  53.9608780  15.0352930  46.0217480  68.9843340
  15.4493950  46.1762560  69.8333760  14.1003930  46.1472700  69.1469120
  15.5075100  43.3613640  70.9882490  16.0895870  42.6065960  70.9002970
  15.6836870  43.8921080  70.2113970   6.6247170  38.5210390  69.2999440
   6.5304040  37.9031140  68.5750310   6.0444560  39.2476680  69.0729350
   9.3908610  37.0783630  66.3326830   8.9425910  37.1007890  65.4872380
   8.7573810  36.6802650  66.9297130   9.7968160  45.9737960  66.9539270
  10.2156270  46.8170690  66.7815510   8.8776790  46.1110000  66.7246050
  12.1332060  43.7054140  68.3377110  12.2528270  43.1095280  69.0771950
  12.9926060  43.7423830  67.9178410  14.4719960  44.2591330  66.9139620
  13.9455180  44.7833950  66.3104760  14.8151300  44.8918720  67.5449350
   6.8706350  41.6484700  53.3589330   6.6695410  40.7852060  53.7202670
   6.6998400  41.5618060  52.4210930   7.6475580  52.2790970  68.0697000
   7.1096670  53.0037030  67.7505700   7.9009540  51.8021310  67.2794340
   8.9000830  40.2475490  69.5952930   9.4900520  39.9391340  70.2830750
   8.0821070  39.7755240  69.7512830  13.7194260  39.8641300  69.8285950
  13.0309780  39.2022840  69.7635940  14.4400280  39.4179570  70.2734410
  14.3494660  36.4592930  55.8876210  14.6296950  35.6160830  56.2435630
  13.5760390  36.6916040  56.4014960   5.6689150  38.7485320  53.3467210
   5.9715050  38.7552750  52.4386360   6.4083740  38.3983180  53.8434870
  10.5037790  53.5142180  68.3283650  10.4296490  54.4177320  68.6356020
   9.6016630  53.1954080  68.3005720   8.8874080  37.6919940  54.3323410
   8.5396080  37.0143930  53.7525860   9.0886850  37.2309450  55.1466800
  11.0523120  52.6800690  55.9510010  11.9473910  53.0185660  55.9728770
  11.0840750  51.9580100  55.3234290   4.6919280  48.0527740  54.1797010
   5.1294150  48.5957410  54.8354590   5.1767010  47.2274690  54.1893350
   1.9065080  50.8416770  61.6317270   2.2368090  49.9737830  61.3995910
   2.3356080  51.0475290  62.4622230   6.5027000  49.1725780  59.2919240
   6.2022540  49.0490750  60.1923150   6.3964490  48.3134370  58.8834970
   2.3955290  51.7087360  64.3698900   1.9586280  51.8888160  65.2023050
   2.9632970  52.4661980  64.2280620  18.0317470  51.2104360  68.6576210
  17.4319460  51.2696920  67.9140130  18.1611370  50.2709340  68.7873060
  19.2718920  48.9522180  53.9945920  18.4411880  49.0198830  54.4653150
  19.4490750  49.8426300  53.6912780  18.7275380  45.6969660  56.4980120
  19.4894290  46.2666310  56.6039810  18.7429750  45.1296860  57.2688430
   2.2279720  44.2207590  60.7287780   1.5728560  43.9519230  60.0847480
   3.0657670  44.1112070  60.2789760  19.7335350  46.5519760  61.3422050
  20.1044180  45.7687080  60.9358020  20.3737280  47.2408860  61.1639350
  16.7169110  47.9356340  66.7552370  15.9028950  48.3653500  67.0178160
  17.1243310  48.5474750  66.1421420  18.7794550  45.9904030  53.6552640
  19.0543390  46.8982910  53.5271860  18.5905290  45.9266560  54.5914630
  15.1770160  39.0148880  54.9506270  15.5955040  38.8279860  54.1102930
  14.8706220  38.1627930  55.2609200  18.6759890  43.9273020  58.6482070
  18.3003490  43.1600950  58.2163360  17.9463010  44.3095720  59.1357000
   3.2655650  44.6060160  65.2691120   3.6328690  44.5187560  66.1487140
   2.6966470  43.8426710  65.1697980  18.0659510  43.0744540  68.2821590
  17.8345600  42.8457290  67.3819540  18.3264060  43.9944090  68.2366480
   2.8171650  41.5169250  69.1749540   1.9227700  41.4836010  69.5143250
   3.3569200  41.7156040  69.9400790  16.5047580  38.3000970  71.0601290
  17.3817760  38.3084370  71.4435290  16.5168420  37.5631810  70.4493640
  17.9510850  42.1530510  61.9489310  18.4748330  41.6593160  61.3179480
  18.5370270  42.2880870  62.6936880  18.1300570  42.2370380  65.4708860
  17.1803280  42.2033920  65.5853850  18.3113580  43.1470490  65.2358630
   3.9845010  40.4872060  54.5807490   4.6936710  40.0655280  54.0954770
   3.2684950  40.5547290  53.9490840   3.6319170  36.5411390  53.6210140
   4.3547300  37.0820330  53.9391360   3.9043690  36.2674810  52.7451680
  17.4410820  41.4103860  57.8881720  17.9369940  41.1774730  58.6730600
  17.2426890  40.5715700  57.4719360   3.3211360  35.7917580  63.5232760
   3.9687550  35.2414960  63.0827920   3.7413200  36.0460730  64.3448570
  18.8697980  40.0464810  60.4219400  18.7597260  39.8920850  61.3601670
  19.6305570  39.5185750  60.1794810  17.2163700  35.9858940  66.8802400
  17.8535920  36.5993080  67.2461590  17.3638590  36.0219600  65.9351630
  19.7588250  37.8772730  53.6625540  20.6837560  37.7453910  53.4543830
  19.7364040  37.9565550  54.6161990  19.8326740  38.6483390  56.2882250
  19.0378240  38.5828510  56.8175160  20.0370020  39.5834030  56.2767600
  16.7745160  52.6874940  60.2820640  17.3704230  52.3659510  59.6055060
  17.0323310  52.2146760  61.0733910   3.0743360  35.9473250  66.2658080
   2.7258180  36.4037070  67.0316260   2.7431060  35.0530380  66.3480510
   4.6807730  49.1192850  70.4311270   4.6377360  48.7485760  71.3125730
   4.8118740  50.0570420  70.5713090   8.3813760  50.6752440  66.0320990
   8.1405120  50.9427000  65.1451510   9.3216400  50.8458170  66.0871850
  10.5868180  37.1385130  69.7877500  10.5257070  37.7306960  70.5372910
  11.5268560  37.0311090  69.6427760  13.2242740  36.7955190  69.4269790
  13.8383150  37.1134480  68.7650870  13.7692300  36.3103780  70.0465650
  19.6417920  52.6946820  66.8331630  19.1476200  53.0915690  66.1158760
  19.0331210  52.0696030  67.2268910   3.7464000  35.4749450  69.5408850
   4.2946990  35.2937500  68.7774960   3.8119310  34.6843560  70.0765160
   4.5195760  52.0655100  67.5509050   3.9256080  51.9339800  68.2899090
   4.5119600  51.2293240  67.0851150  13.9650780  35.3587330  65.7539080
  13.0910620  35.6922440  65.5512010  13.8561530  34.8860510  66.5790950
  14.8722760  37.5658200  67.1380800  14.5436120  36.7509960  66.7582530
  15.8205060  37.5228010  67.0146490  17.3257370  53.3370240  64.1118370
  16.8660340  54.0886050  63.7376390  16.6969830  52.6176710  64.0533170
   4.1507990  49.4313480  66.5017090   3.4242050  48.8118770  66.4343040
   4.2117140  49.8254090  65.6315170   7.7553090  51.6458480  63.2866500
   8.2718110  51.0345840  62.7614760   8.4050470  52.1487260  63.7777510
  10.4948590  52.5366970  64.1135480  10.7826400  52.2821270  63.2368490
  11.0071810  51.9844330  64.7041050  11.7125600  36.2757170  64.6931990
  10.9297390  36.7502670  64.9728750  11.4188530  35.3712000  64.5845170
  16.2646670  36.9780270  62.7381080  16.7054760  36.9225370  61.8902680
  15.9954260  37.8938280  62.8091260  18.1285240  36.6095510  60.7489900
  18.0673640  35.6656730  60.6020920  18.9077270  36.7175600  61.2943360
   2.4337990  52.7487870  59.7113850   2.2660030  52.1158550  60.4095740
   1.5672500  52.9547270  59.3608040   3.0566010  36.5804650  57.2145710
   3.8145370  36.6933530  56.6409740   2.5943180  37.4173850  57.1689140
   9.5979820  38.6943920  60.2048020   8.7854330  38.3200810  59.8643900
  10.1021460  37.9389000  60.5069210  14.1004800  35.3586370  61.4431090
  14.7034170  35.9306580  61.9179610  13.3597790  35.9225810  61.2204990
  17.2439400  35.7607930  56.7171370  17.4390030  36.6591380  56.9838800
  16.4569270  35.5295010  57.2104320   4.0400690  51.4421100  57.1563990
   3.5148310  51.8229130  56.4525950   3.9645270  52.0671870  57.8773700
   5.4291160  37.1068700  55.7547680   5.9583920  36.3198500  55.6255630
   6.0619480  37.7859890  55.9883210   7.6229000  36.8443840  58.8093070
   6.9931740  36.1431150  58.9763200   7.0834140  37.6047970  58.5926230
  10.5620950  53.4583070  71.4803680  11.4888260  53.2227340  71.5239640
  10.5471380  54.2855070  70.9989710  18.7966010  53.0008640  58.4777930
  18.9718200  52.3146380  57.8338850  18.0987580  53.5255690  58.0854600
   7.7484560  36.1227820  71.2445560   7.4668830  36.6261420  70.4806380
   8.1304260  35.3249570  70.8787690   6.6393660  53.3903480  56.0313240
   7.3712480  53.1062760  55.4837130   6.8987330  53.1516760  56.9212620
   5.8008450  49.5068210  56.0359570   5.1717330  49.9753310  56.5845400
   5.9156280  48.6617430  56.4705760  14.3500020  35.5381400  71.8226030
  14.2365470  35.8576010  72.7177550  15.1669760  35.9393910  71.5263310
  17.1298510  52.6852930  71.3044720  17.9223830  52.1902160  71.0970680
  17.4231660  53.3643070  71.9120330  13.2558170  43.5573870  42.1860770
  13.1752220  42.6428480  41.9152480  12.8422590  44.0540940  41.4800480
  11.3876210  45.3352890  44.0670040  10.6118310  44.8553330  44.3568610
  12.0389140  44.6558540  43.8926200   5.4042040  45.6472700  44.9445800
   4.5726920  45.3921410  45.3442310   6.0123020  45.7183470  45.6803720
  15.4083640  49.7413080  42.8469170  14.9465170  48.9700320  43.1756340
  16.2209190  49.7679150  43.3521620   5.3843300  49.6812790  45.1403820
   5.6871340  48.7910530  44.9614040   6.1286890  50.2383010  44.9126070
   3.8133990  40.6074590  38.7288190   2.9250690  40.9490560  38.6268070
   4.0975180  40.4074910  37.8369020   1.7767000  43.2080240  44.6127890
   2.3483110  42.4402440  44.6131530   1.7768540  43.5069000  43.7034500
  11.6346950  52.0271090  42.4673160  11.0158390  52.4828590  41.8967600
  12.4898730  52.1822550  42.0662860  10.8285200  48.0110080  44.0740200
  10.7593480  47.0700020  43.9129330  11.5905060  48.1011490  44.6462770
   3.0191870  38.6164600  46.3996820   2.8394710  37.7190350  46.6799580
   2.6171950  39.1636470  47.0743770  11.8590370  40.8180460  44.3009130
  12.2355190  39.9452340  44.1882800  11.7609880  41.1539160  43.4099570
   5.9895380  39.1906090  39.7626570   6.0962130  40.0909820  40.0695330
   5.0787740  39.1424060  39.4721220  15.6414490  38.3130900  41.2337470
  16.4624110  37.8227470  41.2762950  15.6748570  38.9028560  41.9869310
   3.6378540  41.1125100  45.0079160   4.3188650  41.3763470  45.6266560
   3.3226590  40.2725970  45.3417170   7.8303110  42.1592460  44.0951750
   8.3381330  42.6573430  44.7356770   8.3616350  41.3827660  43.9191110
  19.9314040  40.3297650  47.7981100  19.2266210  40.7179360  47.2796210
  20.1971960  41.0247940  48.4002030   6.1139210  36.7991020  48.3615170
   6.1157650  37.3163410  47.5561070   5.2843520  36.3221200  48.3385100
  12.5010300  46.9110330  39.8605070  11.8827570  47.3759780  39.2967790
  13.0133550  47.6037810  40.2774580   7.3642060  46.4386200  46.5388670
   7.0311440  47.0655120  47.1809740   7.5408740  46.9648080  45.7590340
  15.8775970  40.2531280  44.0065010  15.1731540  40.5416170  44.5868120
  16.2388130  41.0631390  43.6464570   5.7954540  38.5100980  46.3685620
   6.1371350  39.3543030  46.0739490   4.8570350  38.6584720  46.4850960
   6.5761160  48.4067000  48.3537850   7.1935160  49.0818080  48.0722300
   5.7154280  48.8154980  48.2625350  17.4938750  49.8706410  46.2692490
  16.8102270  50.5405520  46.2609160  18.0333040  50.0687060  45.5037350
  18.9462890  39.6986070  44.3974220  17.9987800  39.7325050  44.5289650
  19.2712880  40.5125020  44.7823580   9.4782430  35.9983250  42.6930210
   9.7857410  35.4430140  41.9765710   8.5483130  36.1327710  42.5103200
  15.0297490  51.7150540  44.9837670  15.0424650  51.3112830  44.1159930
  14.4772710  52.4897830  44.8799100  16.3242910  48.4366760  40.0727840
  16.2139240  47.4941090  40.1977260  16.3211160  48.7982400  40.9590600
  14.4282930  46.6180380  46.3120280  14.8451720  46.4040490  45.4773740
  15.1522750  46.8753170  46.8828900  11.8663190  44.0632080  39.4290330
  10.9392470  43.9969460  39.6578800  12.0188010  45.0012210  39.3145570
  11.8532270  40.3349080  36.4257490  10.9135940  40.4963040  36.5109950
  12.1715530  41.0534760  35.8793480  18.3745030  45.0167600  46.4036520
  17.5463660  45.0860690  45.9286650  18.9695510  45.6021910  45.9352350
  15.8960480  45.6252380  39.9325580  15.2772900  45.2871930  39.2851880
  15.8784930  44.9812140  40.6404770  15.3387040  41.8036920  47.3491390
  14.9258220  42.6290630  47.6031380  14.6062990  41.2181960  47.1567750
   7.4719830  44.5896820  42.2110060   7.0676830  43.8774070  41.7155960
   7.5582950  44.2450060  43.0998100   7.9401530  48.2764380  44.3749270
   7.6429820  47.6709850  43.6957050   8.8901350  48.3141690  44.2638630
   6.1848450  41.3640030  45.9909100   6.7363040  41.4735370  45.2162350
   6.6991960  41.7377630  46.7064330  16.0287140  51.8496250  48.0372370
  15.5517700  52.6568440  47.8444980  15.3448930  51.1974580  48.1898580
   7.0319960  48.0146070  51.0257070   6.1348490  48.2386040  51.2730470
   7.0572830  48.1381010  50.0768470  14.0725180  44.8639190  36.9398330
  14.5118460  44.0261620  36.7936150  14.7853600  45.4968590  37.0262470
   5.8591180  44.8859390  49.6014440   5.7198950  45.7582190  49.9701840
   4.9772540  44.5432200  49.4562380  12.1820560  49.8035260  40.9079570
  12.6216470  50.5459590  40.4934960  12.1207450  50.0461830  41.8318530
   7.6571530  50.8281090  51.8099590   7.6286960  51.2324040  50.9428020
   7.4936500  49.8991450  51.6471190  17.6542320  36.1182000  35.2539370
  17.3414980  36.2108830  36.1538440  18.4154790  36.6963030  35.2036800
   4.1724460  43.4841800  39.7116710   4.0522060  44.2103890  39.0997980
   3.8625350  42.7144710  39.2344620  19.6086350  51.6108190  53.1063760
  20.0846070  52.0891080  53.7852840  20.2293510  51.5425680  52.3809260
   1.8109830  46.6556940  45.5185350   1.8890250  46.7905710  44.5741070
   2.4251510  45.9472830  45.7113470   3.0557460  48.3557130  41.9291530
   2.6485540  48.4971720  41.0745130   3.9470470  48.0717290  41.7262740
  19.0119600  48.8021040  50.2663770  19.1382660  48.5632920  49.3480950
  19.0540980  47.9705580  50.7385850  12.8736340  52.5049040  48.8358580
  13.3881010  52.4157050  49.6381010  12.0305420  52.8508740  49.1286490
  14.8490740  52.7904380  38.2642580  14.6891880  52.5007320  39.1624410
  14.6837450  52.0144510  37.7287810   7.3279120  52.5702910  40.0414200
   7.1521600  51.6538450  39.8282000   6.4734860  52.9290200  40.2812000
  14.5516870  50.2991940  36.8240580  13.8582030  50.2969230  36.1642860
  15.2939730  49.8751260  36.3934750  14.1166800  51.9254650  40.8989070
  14.5723750  51.1444030  41.2127690  14.4559320  52.6361470  41.4430250
  18.8643610  40.8553500  51.2313510  18.2487880  41.3633170  50.7028970
  18.5440030  39.9551830  51.1739450   1.8669350  47.6971110  48.0579810
   2.0300390  47.2276470  47.2399180   2.3321800  47.1894670  48.7228650
   6.6388120  36.8276870  43.0940380   6.1956270  37.6086410  42.7624900
   7.1973110  37.1506760  43.8011320  10.9257930  39.6945390  48.6975700
  10.4637300  39.9028410  49.5095640  10.5236040  38.8804740  48.3946370
  15.9262440  40.9154340  49.8272360  15.0756030  40.6160090  50.1481430
  15.7664230  41.1596350  48.9156180  13.0212150  42.4156090  51.9271150
  13.3465560  41.5819840  51.5873380  13.8092480  42.9384610  52.0749480
   9.7546940  36.4487570  37.9746210   9.1301120  36.4447440  38.6999520
   9.6677060  35.5818530  37.5782180   8.6764020  37.3724200  44.9529980
   8.9736350  38.2787030  44.8722000   9.2249580  36.8842980  44.3389550
   6.4302340  41.9510440  40.8221630   6.2043260  41.7347610  41.7268250
   5.6494870  42.3838900  40.4767600  13.6600100  41.9573810  39.4212280
  13.0608990  42.6809610  39.2375900  14.2079710  41.8950590  38.6388730
   8.8701550  42.8496020  51.4881900   8.7745150  41.9090750  51.3382300
   9.7133530  43.0711090  51.0929970  12.2664970  40.5937350  41.4515560
  12.6594540  40.9109550  40.6384250  12.6281820  39.7149230  41.5660080
   4.0012090  39.2609690  49.6415680   3.6075480  40.1084900  49.8488460
   3.3130490  38.6236060  49.8324320  10.5757140  39.3444660  52.7112420
   9.8855460  39.1516860  53.3458510  11.3189440  39.6279300  53.2436720
  12.8520110  43.1843100  45.5466340  12.1201230  43.6929910  45.8956440
  12.4544450  42.3673080  45.2455120   9.2897500  39.8597300  43.9518830
   9.2933560  39.4187250  43.1023370  10.1848620  40.1814630  44.0590650
   5.1399880  39.7423790  42.9113040   4.7999930  40.2199020  43.6680090
   4.3777200  39.2888910  42.5514140   9.3517650  40.8609380  36.9425590
   9.4730470  40.8195860  37.8911410   8.9666160  41.7233530  36.7872320
  13.3146020  38.6376780  44.9589280  13.3318760  39.0885430  45.8031130
  13.0661600  37.7382420  45.1722720   8.3639150  43.1710520  36.3408890
   7.7956050  42.7228770  35.7144800   9.0728150  43.5303300  35.8074040
  16.7416770  36.0508960  50.7975660  17.0662540  35.3198620  51.3233640
  16.7773280  35.7322600  49.8956650   3.4408330  47.0722540  50.2175620
   3.0563120  46.4316210  50.8158580   3.7520520  47.7758660  50.7870350
   9.5905470  43.9199080  45.6984240   9.9575600  43.4457650  46.4445580
   9.4010530  44.7940650  46.0392580   2.4545960  38.6642770  41.8277710
   2.1692880  38.2998440  42.6656330   2.3924820  37.9323230  41.2140850
   7.3804840  42.9607720  48.0168450   7.0761910  43.8399700  48.2418810
   8.3351300  43.0207510  48.0525890   5.9086630  47.1668710  38.6135300
   5.1348890  46.6266330  38.4534020   6.6381260  46.6475320  38.2753060
  16.6674610  46.1634070  44.4061690  17.3873730  46.6589360  44.0157800
  16.4656430  45.4851960  43.7615560  12.1284550  37.5572030  38.5491080
  11.3149160  37.0585200  38.4736390  11.9346500  38.3970280  38.1327430
  12.0493410  46.2343130  50.2930690  11.9830720  45.3138800  50.0388280
  11.4198550  46.3318570  51.0075330  14.8432940  41.9291680  36.8453240
  15.7312560  42.2408910  36.6704580  14.8138030  41.0563930  36.4533820
   5.9524030  46.8349090  42.2514110   6.4702700  46.0317350  42.1971000
   5.5008050  46.7728230  43.0930940  10.8393530  48.1015370  37.5241410
  11.1809230  48.8457600  37.0284730  10.0106240  48.4146490  37.8866240
   3.4368570  43.8010460  49.1639810   3.0783510  44.4664310  49.7513150
   3.1423130  42.9694010  49.5352430   6.6381690  44.2594700  52.0479360
   6.3381830  44.4051880  51.1507180   7.4092930  43.6999990  51.9552750
  11.9810140  49.0563700  50.0434490  11.9954680  48.1244660  49.8253400
  11.2735240  49.1423460  50.6824260  17.1147210  43.2403520  36.3133100
  17.0310930  43.6717740  35.4629540  17.8341400  43.7001870  36.7459920
  18.1921350  45.6971040  49.3903070  17.4669540  46.2899820  49.1932460
  18.7196810  45.6894580  48.5916440  18.1434460  50.0945780  39.0415230
  17.5010620  49.4401400  39.3158950  17.7565120  50.5000870  38.2655900
  13.7220940  47.4231210  42.8886920  14.0744760  46.8259340  42.2288290
  12.8383270  47.0975440  43.0595170   9.8084220  48.1828900  40.2957330
  10.4955350  48.7298110  40.6764920   9.0216640  48.7269630  40.3306940
   9.1111430  45.1874930  39.9082690   9.5674210  45.9980180  40.1342880
   8.7599640  44.8698070  40.7401180  11.4144040  50.6981270  47.1374990
  12.0586260  50.9040650  47.8148410  11.7773480  49.9369670  46.6845840
   5.0123210  35.5312580  40.3805210   4.8837840  35.5230480  41.3290130
   4.1885230  35.8695670  40.0296220  12.6876120  48.7013620  45.8552440
  13.3298350  48.0006780  45.9684610  13.2125470  49.4812060  45.6749330
  16.5331840  48.9862240  35.5791580  16.3069420  48.2692680  36.1716220
  16.1428040  48.7374680  34.7413330  14.4613740  49.5008520  49.0588500
  14.7969980  50.0875210  49.7366420  13.5414080  49.3701230  49.2886290
   2.3147870  53.0129100  36.3536040   2.6745510  53.6118440  35.6993310
   2.1740210  53.5588990  37.1271070  16.1148090  46.9034180  37.2405740
  15.8269790  47.3646870  38.0283620  16.9100260  46.4431950  37.5089960
   2.2989730  51.2783960  50.8278440   2.4080850  50.3378700  50.6873830
   1.6470290  51.5438710  50.1792170  10.2902320  49.5499850  52.2276560
   9.9699190  48.8309090  52.7722250   9.6160680  50.2254920  52.3012620
   8.3316490  50.3960300  37.1709710   8.3226590  51.1289990  36.5554220
   7.4114850  50.1491880  37.2636670   3.9323130  45.6175190  37.9156470
   3.3251080  46.3574090  37.9251770   4.4072480  45.7074550  37.0894670
  13.5055920  39.7826010  47.5913360  13.8736740  38.9621220  47.9192930
  12.6454120  39.8427900  48.0069010  16.8717950  38.7382950  38.4000920
  16.2431110  38.8428620  37.6859150  16.3769870  38.9579730  39.1894800
  11.3176090  50.4588540  35.8334900  11.4188070  50.2552530  34.9036880
  10.4177830  50.2046820  36.0382680   8.8401980  41.0168900  39.8158800
   8.1318130  41.4855240  40.2572410   9.1246460  40.3590910  40.4503990
  10.4657910  42.4365600  47.8151330  10.9643160  42.9111420  48.4803180
  10.6080860  41.5129120  48.0221360  12.8717410  37.7419560  41.2554590
  12.7485190  37.7605690  40.3064100  13.8201970  37.7898500  41.3752990
   9.9594200  52.9774860  40.5282570  10.2135700  52.9396250  39.6061940
   9.0106680  52.8508190  40.5210820   7.0437000  39.3253980  37.1909510
   7.8927530  39.7624130  37.1249700   6.6768270  39.6374240  38.0181570
  17.6724770  38.6533560  48.6579720  17.1698370  39.3938960  48.9973530
  18.4881430  39.0417560  48.3416510  15.9646780  43.8966740  42.1041080
  15.0236920  43.9116970  42.2788770  16.2790850  43.1102700  42.5501380
   5.9428420  45.5786340  35.6645040   6.7091690  45.4667700  36.2270470
   6.0203110  44.8824310  35.0121810   4.6375180  43.0111410  36.3477930
   4.7178770  42.0638920  36.4595330   5.5294930  43.3418290  36.4538590
  17.9672360  51.0675590  43.7795340  18.0919780  51.8906760  44.2519150
  18.8337920  50.8566320  43.4319490   5.4389890  53.1606800  43.4512470
   6.1752370  52.6122260  43.7221040   5.8230810  54.0262810  43.3118460
   4.4448170  52.3452870  52.6398050   5.2460900  52.6664920  53.0533450
   3.9299990  51.9848450  53.3617960   8.5492200  52.3337110  35.2738040
   9.3420810  52.6225940  34.8219830   8.0296550  51.9029280  34.5950520
  13.2812800  48.4532740  52.5873460  12.6750960  48.4764340  51.8469210
  12.9766910  47.7215780  53.1240710  14.7113170  52.1813030  51.1982870
  15.6634920  52.0971050  51.1483110  14.5641390  52.8454740  51.8716660
  17.6022370  51.5607240  36.6974780  17.3163880  51.1472380  35.8828960
  17.4041920  52.4894950  36.5775300   9.0669600  47.5540520  35.1380390
   8.9620240  46.9392870  35.8641770   8.8993820  47.0306410  34.3543400
   9.2183920  46.2397320  51.1169620   8.4529590  46.8082320  51.0324290
   9.3999880  45.9473530  50.2237850  12.3072330  46.6160550  35.7422380
  11.7582430  47.0629850  36.3865120  12.9291590  46.1109800  36.2660050
  16.3607270  47.9702650  51.6744640  17.1016740  48.3078410  51.1712100
  15.5979950  48.1394710  51.1214410   4.1969060  42.9755920  52.4784170
   4.2374400  42.6769790  53.3869400   5.0514560  43.3763530  52.3191690
   7.9747450  45.5751470  37.6387680   8.3963870  45.4091340  38.4819070
   8.0998290  44.7651700  37.1442820   6.1374870  41.5548020  50.4458660
   5.6071330  41.0638970  49.8182000   6.8062940  41.9832220  49.9116590
  10.4875090  44.5989080  34.8864780  11.0080750  43.8838100  34.5205930
  11.1343490  45.2374950  35.1865290  15.0352930  46.0217480  50.2099850
  15.4493950  46.1762560  51.0590270  14.1003930  46.1472700  50.3725630
  15.5075100  43.3613640  52.2139000  16.0895870  42.6065960  52.1259480
  15.6836870  43.8921080  51.4370480   6.6247170  38.5210390  50.5255950
   6.5304040  37.9031140  49.8006820   6.0444560  39.2476680  50.2985860
   9.3908610  37.0783630  47.5583340   8.9425910  37.1007890  46.7128890
   8.7573810  36.6802650  48.1553640   9.7968160  45.9737960  48.1795780
  10.2156270  46.8170690  48.0072020   8.8776790  46.1110000  47.9502560
  12.1332060  43.7054140  49.5633620  12.2528270  43.1095280  50.3028460
  12.9926060  43.7423830  49.1434920  14.4719960  44.2591330  48.1396130
  13.9455180  44.7833950  47.5361270  14.8151300  44.8918720  48.7705860
   6.8706350  41.6484700  34.5845840   6.6695410  40.7852060  34.9459180
   6.6998400  41.5618060  33.6467440   7.6475580  52.2790970  49.2953510
   7.1096670  53.0037030  48.9762210   7.9009540  51.8021310  48.5050850
   8.9000830  40.2475490  50.8209440   9.4900520  39.9391340  51.5087260
   8.0821070  39.7755240  50.9769340  13.7194260  39.8641300  51.0542460
  13.0309780  39.2022840  50.9892450  14.4400280  39.4179570  51.4990920
  14.3494660  36.4592930  37.1132720  14.6296950  35.6160830  37.4692140
  13.5760390  36.6916040  37.6271470   5.6689150  38.7485320  34.5723720
   5.9715050  38.7552750  33.6642870   6.4083740  38.3983180  35.0691380
  10.5037790  53.5142180  49.5540160  10.4296490  54.4177320  49.8612530
   9.6016630  53.1954080  49.5262230   8.8874080  37.6919940  35.5579920
   8.5396080  37.0143930  34.9782370   9.0886850  37.2309450  36.3723310
  11.0523120  52.6800690  37.1766520  11.9473910  53.0185660  37.1985280
  11.0840750  51.9580100  36.5490800   4.6919280  48.0527740  35.4053520
   5.1294150  48.5957410  36.0611100   5.1767010  47.2274690  35.4149860
   1.9065080  50.8416770  42.8573780   2.2368090  49.9737830  42.6252420
   2.3356080  51.0475290  43.6878740   6.5027000  49.1725780  40.5175750
   6.2022540  49.0490750  41.4179660   6.3964490  48.3134370  40.1091480
   2.3955290  51.7087360  45.5955410   1.9586280  51.8888160  46.4279560
   2.9632970  52.4661980  45.4537130  18.0317470  51.2104360  49.8832720
  17.4319460  51.2696920  49.1396640  18.1611370  50.2709340  50.0129570
  19.2718920  48.9522180  35.2202430  18.4411880  49.0198830  35.6909660
  19.4490750  49.8426300  34.9169290  18.7275380  45.6969660  37.7236630
  19.4894290  46.2666310  37.8296320  18.7429750  45.1296860  38.4944940
   2.2279720  44.2207590  41.9544290   1.5728560  43.9519230  41.3103990
   3.0657670  44.1112070  41.5046270  19.7335350  46.5519760  42.5678560
  20.1044180  45.7687080  42.1614530  20.3737280  47.2408860  42.3895860
  16.7169110  47.9356340  47.9808880  15.9028950  48.3653500  48.2434670
  17.1243310  48.5474750  47.3677930  18.7794550  45.9904030  34.8809150
  19.0543390  46.8982910  34.7528370  18.5905290  45.9266560  35.8171140
  15.1770160  39.0148880  36.1762780  15.5955040  38.8279860  35.3359440
  14.8706220  38.1627930  36.4865710  18.6759890  43.9273020  39.8738580
  18.3003490  43.1600950  39.4419870  17.9463010  44.3095720  40.3613510
   3.2655650  44.6060160  46.4947630   3.6328690  44.5187560  47.3743650
   2.6966470  43.8426710  46.3954490  18.0659510  43.0744540  49.5078100
  17.8345600  42.8457290  48.6076050  18.3264060  43.9944090  49.4622990
   2.8171650  41.5169250  50.4006050   1.9227700  41.4836010  50.7399760
   3.3569200  41.7156040  51.1657300  16.5047580  38.3000970  52.2857800
  17.3817760  38.3084370  52.6691800  16.5168420  37.5631810  51.6750150
  17.9510850  42.1530510  43.1745820  18.4748330  41.6593160  42.5435990
  18.5370270  42.2880870  43.9193390  18.1300570  42.2370380  46.6965370
  17.1803280  42.2033920  46.8110360  18.3113580  43.1470490  46.4615140
   3.9845010  40.4872060  35.8064000   4.6936710  40.0655280  35.3211280
   3.2684950  40.5547290  35.1747350   3.6319170  36.5411390  34.8466650
   4.3547300  37.0820330  35.1647870   3.9043690  36.2674810  33.9708190
  17.4410820  41.4103860  39.1138230  17.9369940  41.1774730  39.8987110
  17.2426890  40.5715700  38.6975870   3.3211360  35.7917580  44.7489270
   3.9687550  35.2414960  44.3084430   3.7413200  36.0460730  45.5705080
  18.8697980  40.0464810  41.6475910  18.7597260  39.8920850  42.5858180
  19.6305570  39.5185750  41.4051320  17.2163700  35.9858940  48.1058910
  17.8535920  36.5993080  48.4718100  17.3638590  36.0219600  47.1608140
  19.7588250  37.8772730  34.8882050  20.6837560  37.7453910  34.6800340
  19.7364040  37.9565550  35.8418500  19.8326740  38.6483390  37.5138760
  19.0378240  38.5828510  38.0431670  20.0370020  39.5834030  37.5024110
  16.7745160  52.6874940  41.5077150  17.3704230  52.3659510  40.8311570
  17.0323310  52.2146760  42.2990420   3.0743360  35.9473250  47.4914590
   2.7258180  36.4037070  48.2572770   2.7431060  35.0530380  47.5737020
   4.6807730  49.1192850  51.6567780   4.6377360  48.7485760  52.5382240
   4.8118740  50.0570420  51.7969600   8.3813760  50.6752440  47.2577500
   8.1405120  50.9427000  46.3708020   9.3216400  50.8458170  47.3128360
  10.5868180  37.1385130  51.0134010  10.5257070  37.7306960  51.7629420
  11.5268560  37.0311090  50.8684270  13.2242740  36.7955190  50.6526300
  13.8383150  37.1134480  49.9907380  13.7692300  36.3103780  51.2722160
  19.6417920  52.6946820  48.0588140  19.1476200  53.0915690  47.3415270
  19.0331210  52.0696030  48.4525420   3.7464000  35.4749450  50.7665360
   4.2946990  35.2937500  50.0031470   3.8119310  34.6843560  51.3021670
   4.5195760  52.0655100  48.7765560   3.9256080  51.9339800  49.5155600
   4.5119600  51.2293240  48.3107660  13.9650780  35.3587330  46.9795590
  13.0910620  35.6922440  46.7768520  13.8561530  34.8860510  47.8047460
  14.8722760  37.5658200  48.3637310  14.5436120  36.7509960  47.9839040
  15.8205060  37.5228010  48.2403000  17.3257370  53.3370240  45.3374880
  16.8660340  54.0886050  44.9632900  16.6969830  52.6176710  45.2789680
   4.1507990  49.4313480  47.7273600   3.4242050  48.8118770  47.6599550
   4.2117140  49.8254090  46.8571680   7.7553090  51.6458480  44.5123010
   8.2718110  51.0345840  43.9871270   8.4050470  52.1487260  45.0034020
  10.4948590  52.5366970  45.3391990  10.7826400  52.2821270  44.4625000
  11.0071810  51.9844330  45.9297560  11.7125600  36.2757170  45.9188500
  10.9297390  36.7502670  46.1985260  11.4188530  35.3712000  45.8101680
  16.2646670  36.9780270  43.9637590  16.7054760  36.9225370  43.1159190
  15.9954260  37.8938280  44.0347770  18.1285240  36.6095510  41.9746410
  18.0673640  35.6656730  41.8277430  18.9077270  36.7175600  42.5199870
   2.4337990  52.7487870  40.9370360   2.2660030  52.1158550  41.6352250
   1.5672500  52.9547270  40.5864550   3.0566010  36.5804650  38.4402220
   3.8145370  36.6933530  37.8666250   2.5943180  37.4173850  38.3945650
   9.5979820  38.6943920  41.4304530   8.7854330  38.3200810  41.0900410
  10.1021460  37.9389000  41.7325720  14.1004800  35.3586370  42.6687600
  14.7034170  35.9306580  43.1436120  13.3597790  35.9225810  42.4461500
  17.2439400  35.7607930  37.9427880  17.4390030  36.6591380  38.2095310
  16.4569270  35.5295010  38.4360830   4.0400690  51.4421100  38.3820500
   3.5148310  51.8229130  37.6782460   3.9645270  52.0671870  39.1030210
   5.4291160  37.1068700  36.9804190   5.9583920  36.3198500  36.8512140
   6.0619480  37.7859890  37.2139720   7.6229000  36.8443840  40.0349580
   6.9931740  36.1431150  40.2019710   7.0834140  37.6047970  39.8182740
  10.5620950  53.4583070  52.7060190  11.4888260  53.2227340  52.7496150
  10.5471380  54.2855070  52.2246220  18.7966010  53.0008640  39.7034440
  18.9718200  52.3146380  39.0595360  18.0987580  53.5255690  39.3111110
   7.7484560  36.1227820  52.4702070   7.4668830  36.6261420  51.7062890
   8.1304260  35.3249570  52.1044200   6.6393660  53.3903480  37.2569750
   7.3712480  53.1062760  36.7093640   6.8987330  53.1516760  38.1469130
   5.8008450  49.5068210  37.2616080   5.1717330  49.9753310  37.8101910
   5.9156280  48.6617430  37.6962270  14.3500020  35.5381400  53.0482540
  14.2365470  35.8576010  53.9434060  15.1669760  35.9393910  52.7519820
  17.1298510  52.6852930  52.5301230  17.9223830  52.1902160  52.3227190
  17.4231660  53.3643070  53.1376840  13.2558170  43.5573870  23.4117280
  13.1752220  42.6428480  23.1408990  12.8422590  44.0540940  22.7056990
  11.3876210  45.3352890  25.2926550  10.6118310  44.8553330  25.5825120
  12.0389140  44.6558540  25.1182710   5.4042040  45.6472700  26.1702310
   4.5726920  45.3921410  26.5698820   6.0123020  45.7183470  26.9060230
  15.4083640  49.7413080  24.0725680  14.9465170  48.9700320  24.4012850
  16.2209190  49.7679150  24.5778130   5.3843300  49.6812790  26.3660330
   5.6871340  48.7910530  26.1870550   6.1286890  50.2383010  26.1382580
   3.8133990  40.6074590  19.9544700   2.9250690  40.9490560  19.8524580
   4.0975180  40.4074910  19.0625530   1.7767000  43.2080240  25.8384400
   2.3483110  42.4402440  25.8388040   1.7768540  43.5069000  24.9291010
  11.6346950  52.0271090  23.6929670  11.0158390  52.4828590  23.1224110
  12.4898730  52.1822550  23.2919370  10.8285200  48.0110080  25.2996710
  10.7593480  47.0700020  25.1385840  11.5905060  48.1011490  25.8719280
   3.0191870  38.6164600  27.6253330   2.8394710  37.7190350  27.9056090
   2.6171950  39.1636470  28.3000280  11.8590370  40.8180460  25.5265640
  12.2355190  39.9452340  25.4139310  11.7609880  41.1539160  24.6356080
   5.9895380  39.1906090  20.9883080   6.0962130  40.0909820  21.2951840
   5.0787740  39.1424060  20.6977730  15.6414490  38.3130900  22.4593980
  16.4624110  37.8227470  22.5019460  15.6748570  38.9028560  23.2125820
   3.6378540  41.1125100  26.2335670   4.3188650  41.3763470  26.8523070
   3.3226590  40.2725970  26.5673680   7.8303110  42.1592460  25.3208260
   8.3381330  42.6573430  25.9613280   8.3616350  41.3827660  25.1447620
  19.9314040  40.3297650  29.0237610  19.2266210  40.7179360  28.5052720
  20.1971960  41.0247940  29.6258540   6.1139210  36.7991020  29.5871680
   6.1157650  37.3163410  28.7817580   5.2843520  36.3221200  29.5641610
  12.5010300  46.9110330  21.0861580  11.8827570  47.3759780  20.5224300
  13.0133550  47.6037810  21.5031090   7.3642060  46.4386200  27.7645180
   7.0311440  47.0655120  28.4066250   7.5408740  46.9648080  26.9846850
  15.8775970  40.2531280  25.2321520  15.1731540  40.5416170  25.8124630
  16.2388130  41.0631390  24.8721080   5.7954540  38.5100980  27.5942130
   6.1371350  39.3543030  27.2996000   4.8570350  38.6584720  27.7107470
   6.5761160  48.4067000  29.5794360   7.1935160  49.0818080  29.2978810
   5.7154280  48.8154980  29.4881860  17.4938750  49.8706410  27.4949000
  16.8102270  50.5405520  27.4865670  18.0333040  50.0687060  26.7293860
  18.9462890  39.6986070  25.6230730  17.9987800  39.7325050  25.7546160
  19.2712880  40.5125020  26.0080090   9.4782430  35.9983250  23.9186720
   9.7857410  35.4430140  23.2022220   8.5483130  36.1327710  23.7359710
  15.0297490  51.7150540  26.2094180  15.0424650  51.3112830  25.3416440
  14.4772710  52.4897830  26.1055610  16.3242910  48.4366760  21.2984350
  16.2139240  47.4941090  21.4233770  16.3211160  48.7982400  22.1847110
  14.4282930  46.6180380  27.5376790  14.8451720  46.4040490  26.7030250
  15.1522750  46.8753170  28.1085410  11.8663190  44.0632080  20.6546840
  10.9392470  43.9969460  20.8835310  12.0188010  45.0012210  20.5402080
  11.8532270  40.3349080  17.6514000  10.9135940  40.4963040  17.7366460
  12.1715530  41.0534760  17.1049990  18.3745030  45.0167600  27.6293030
  17.5463660  45.0860690  27.1543160  18.9695510  45.6021910  27.1608860
  15.8960480  45.6252380  21.1582090  15.2772900  45.2871930  20.5108390
  15.8784930  44.9812140  21.8661280  15.3387040  41.8036920  28.5747900
  14.9258220  42.6290630  28.8287890  14.6062990  41.2181960  28.3824260
   7.4719830  44.5896820  23.4366570   7.0676830  43.8774070  22.9412470
   7.5582950  44.2450060  24.3254610   7.9401530  48.2764380  25.6005780
   7.6429820  47.6709850  24.9213560   8.8901350  48.3141690  25.4895140
   6.1848450  41.3640030  27.2165610   6.7363040  41.4735370  26.4418860
   6.6991960  41.7377630  27.9320840  16.0287140  51.8496250  29.2628880
  15.5517700  52.6568440  29.0701490  15.3448930  51.1974580  29.4155090
   7.0319960  48.0146070  32.2513580   6.1348490  48.2386040  32.4986980
   7.0572830  48.1381010  31.3024980  14.0725180  44.8639190  18.1654840
  14.5118460  44.0261620  18.0192660  14.7853600  45.4968590  18.2518980
   5.8591180  44.8859390  30.8270950   5.7198950  45.7582190  31.1958350
   4.9772540  44.5432200  30.6818890  12.1820560  49.8035260  22.1336080
  12.6216470  50.5459590  21.7191470  12.1207450  50.0461830  23.0575040
   7.6571530  50.8281090  33.0356100   7.6286960  51.2324040  32.1684530
   7.4936500  49.8991450  32.8727700  17.6542320  36.1182000  16.4795880
  17.3414980  36.2108830  17.3794950  18.4154790  36.6963030  16.4293310
   4.1724460  43.4841800  20.9373220   4.0522060  44.2103890  20.3254490
   3.8625350  42.7144710  20.4601130  19.6086350  51.6108190  34.3320270
  20.0846070  52.0891080  35.0109350  20.2293510  51.5425680  33.6065770
   1.8109830  46.6556940  26.7441860   1.8890250  46.7905710  25.7997580
   2.4251510  45.9472830  26.9369980   3.0557460  48.3557130  23.1548040
   2.6485540  48.4971720  22.3001640   3.9470470  48.0717290  22.9519250
  19.0119600  48.8021040  31.4920280  19.1382660  48.5632920  30.5737460
  19.0540980  47.9705580  31.9642360  12.8736340  52.5049040  30.0615090
  13.3881010  52.4157050  30.8637520  12.0305420  52.8508740  30.3543000
  14.8490740  52.7904380  19.4899090  14.6891880  52.5007320  20.3880920
  14.6837450  52.0144510  18.9544320   7.3279120  52.5702910  21.2670710
   7.1521600  51.6538450  21.0538510   6.4734860  52.9290200  21.5068510
  14.5516870  50.2991940  18.0497090  13.8582030  50.2969230  17.3899370
  15.2939730  49.8751260  17.6191260  14.1166800  51.9254650  22.1245580
  14.5723750  51.1444030  22.4384200  14.4559320  52.6361470  22.6686760
  18.8643610  40.8553500  32.4570020  18.2487880  41.3633170  31.9285480
  18.5440030  39.9551830  32.3995960   1.8669350  47.6971110  29.2836320
   2.0300390  47.2276470  28.4655690   2.3321800  47.1894670  29.9485160
   6.6388120  36.8276870  24.3196890   6.1956270  37.6086410  23.9881410
   7.1973110  37.1506760  25.0267830  10.9257930  39.6945390  29.9232210
  10.4637300  39.9028410  30.7352150  10.5236040  38.8804740  29.6202880
  15.9262440  40.9154340  31.0528870  15.0756030  40.6160090  31.3737940
  15.7664230  41.1596350  30.1412690  13.0212150  42.4156090  33.1527660
  13.3465560  41.5819840  32.8129890  13.8092480  42.9384610  33.3005990
   9.7546940  36.4487570  19.2002720   9.1301120  36.4447440  19.9256030
   9.6677060  35.5818530  18.8038690   8.6764020  37.3724200  26.1786490
   8.9736350  38.2787030  26.0978510   9.2249580  36.8842980  25.5646060
   6.4302340  41.9510440  22.0478140   6.2043260  41.7347610  22.9524760
   5.6494870  42.3838900  21.7024110  13.6600100  41.9573810  20.6468790
  13.0608990  42.6809610  20.4632410  14.2079710  41.8950590  19.8645240
   8.8701550  42.8496020  32.7138410   8.7745150  41.9090750  32.5638810
   9.7133530  43.0711090  32.3186480  12.2664970  40.5937350  22.6772070
  12.6594540  40.9109550  21.8640760  12.6281820  39.7149230  22.7916590
   4.0012090  39.2609690  30.8672190   3.6075480  40.1084900  31.0744970
   3.3130490  38.6236060  31.0580830  10.5757140  39.3444660  33.9368930
   9.8855460  39.1516860  34.5715020  11.3189440  39.6279300  34.4693230
  12.8520110  43.1843100  26.7722850  12.1201230  43.6929910  27.1212950
  12.4544450  42.3673080  26.4711630   9.2897500  39.8597300  25.1775340
   9.2933560  39.4187250  24.3279880  10.1848620  40.1814630  25.2847160
   5.1399880  39.7423790  24.1369550   4.7999930  40.2199020  24.8936600
   4.3777200  39.2888910  23.7770650   9.3517650  40.8609380  18.1682100
   9.4730470  40.8195860  19.1167920   8.9666160  41.7233530  18.0128830
  13.3146020  38.6376780  26.1845790  13.3318760  39.0885430  27.0287640
  13.0661600  37.7382420  26.3979230   8.3639150  43.1710520  17.5665400
   7.7956050  42.7228770  16.9401310   9.0728150  43.5303300  17.0330550
  16.7416770  36.0508960  32.0232170  17.0662540  35.3198620  32.5490150
  16.7773280  35.7322600  31.1213160   3.4408330  47.0722540  31.4432130
   3.0563120  46.4316210  32.0415090   3.7520520  47.7758660  32.0126860
   9.5905470  43.9199080  26.9240750   9.9575600  43.4457650  27.6702090
   9.4010530  44.7940650  27.2649090   2.4545960  38.6642770  23.0534220
   2.1692880  38.2998440  23.8912840   2.3924820  37.9323230  22.4397360
   7.3804840  42.9607720  29.2424960   7.0761910  43.8399700  29.4675320
   8.3351300  43.0207510  29.2782400   5.9086630  47.1668710  19.8391810
   5.1348890  46.6266330  19.6790530   6.6381260  46.6475320  19.5009570
  16.6674610  46.1634070  25.6318200  17.3873730  46.6589360  25.2414310
  16.4656430  45.4851960  24.9872070  12.1284550  37.5572030  19.7747590
  11.3149160  37.0585200  19.6992900  11.9346500  38.3970280  19.3583940
  12.0493410  46.2343130  31.5187200  11.9830720  45.3138800  31.2644790
  11.4198550  46.3318570  32.2331840  14.8432940  41.9291680  18.0709750
  15.7312560  42.2408910  17.8961090  14.8138030  41.0563930  17.6790330
   5.9524030  46.8349090  23.4770620   6.4702700  46.0317350  23.4227510
   5.5008050  46.7728230  24.3187450  10.8393530  48.1015370  18.7497920
  11.1809230  48.8457600  18.2541240  10.0106240  48.4146490  19.1122750
   3.4368570  43.8010460  30.3896320   3.0783510  44.4664310  30.9769660
   3.1423130  42.9694010  30.7608940   6.6381690  44.2594700  33.2735870
   6.3381830  44.4051880  32.3763690   7.4092930  43.6999990  33.1809260
  11.9810140  49.0563700  31.2691000  11.9954680  48.1244660  31.0509910
  11.2735240  49.1423460  31.9080770  17.1147210  43.2403520  17.5389610
  17.0310930  43.6717740  16.6886050  17.8341400  43.7001870  17.9716430
  18.1921350  45.6971040  30.6159580  17.4669540  46.2899820  30.4188970
  18.7196810  45.6894580  29.8172950  18.1434460  50.0945780  20.2671740
  17.5010620  49.4401400  20.5415460  17.7565120  50.5000870  19.4912410
  13.7220940  47.4231210  24.1143430  14.0744760  46.8259340  23.4544800
  12.8383270  47.0975440  24.2851680   9.8084220  48.1828900  21.5213840
  10.4955350  48.7298110  21.9021430   9.0216640  48.7269630  21.5563450
   9.1111430  45.1874930  21.1339200   9.5674210  45.9980180  21.3599390
   8.7599640  44.8698070  21.9657690  11.4144040  50.6981270  28.3631500
  12.0586260  50.9040650  29.0404920  11.7773480  49.9369670  27.9102350
   5.0123210  35.5312580  21.6061720   4.8837840  35.5230480  22.5546640
   4.1885230  35.8695670  21.2552730  12.6876120  48.7013620  27.0808950
  13.3298350  48.0006780  27.1941120  13.2125470  49.4812060  26.9005840
  16.5331840  48.9862240  16.8048090  16.3069420  48.2692680  17.3972730
  16.1428040  48.7374680  15.9669840  14.4613740  49.5008520  30.2845010
  14.7969980  50.0875210  30.9622930  13.5414080  49.3701230  30.5142800
   2.3147870  53.0129100  17.5792550   2.6745510  53.6118440  16.9249820
   2.1740210  53.5588990  18.3527580  16.1148090  46.9034180  18.4662250
  15.8269790  47.3646870  19.2540130  16.9100260  46.4431950  18.7346470
   2.2989730  51.2783960  32.0534950   2.4080850  50.3378700  31.9130340
   1.6470290  51.5438710  31.4048680  10.2902320  49.5499850  33.4533070
   9.9699190  48.8309090  33.9978760   9.6160680  50.2254920  33.5269130
   8.3316490  50.3960300  18.3966220   8.3226590  51.1289990  17.7810730
   7.4114850  50.1491880  18.4893180   3.9323130  45.6175190  19.1412980
   3.3251080  46.3574090  19.1508280   4.4072480  45.7074550  18.3151180
  13.5055920  39.7826010  28.8169870  13.8736740  38.9621220  29.1449440
  12.6454120  39.8427900  29.2325520  16.8717950  38.7382950  19.6257430
  16.2431110  38.8428620  18.9115660  16.3769870  38.9579730  20.4151310
  11.3176090  50.4588540  17.0591410  11.4188070  50.2552530  16.1293390
  10.4177830  50.2046820  17.2639190   8.8401980  41.0168900  21.0415310
   8.1318130  41.4855240  21.4828920   9.1246460  40.3590910  21.6760500
  10.4657910  42.4365600  29.0407840  10.9643160  42.9111420  29.7059690
  10.6080860  41.5129120  29.2477870  12.8717410  37.7419560  22.4811100
  12.7485190  37.7605690  21.5320610  13.8201970  37.7898500  22.6009500
   9.9594200  52.9774860  21.7539080  10.2135700  52.9396250  20.8318450
   9.0106680  52.8508190  21.7467330   7.0437000  39.3253980  18.4166020
   7.8927530  39.7624130  18.3506210   6.6768270  39.6374240  19.2438080
  17.6724770  38.6533560  29.8836230  17.1698370  39.3938960  30.2230040
  18.4881430  39.0417560  29.5673020  15.9646780  43.8966740  23.3297590
  15.0236920  43.9116970  23.5045280  16.2790850  43.1102700  23.7757890
   5.9428420  45.5786340  16.8901550   6.7091690  45.4667700  17.4526980
   6.0203110  44.8824310  16.2378320   4.6375180  43.0111410  17.5734440
   4.7178770  42.0638920  17.6851840   5.5294930  43.3418290  17.6795100
  17.9672360  51.0675590  25.0051850  18.0919780  51.8906760  25.4775660
  18.8337920  50.8566320  24.6576000   5.4389890  53.1606800  24.6768980
   6.1752370  52.6122260  24.9477550   5.8230810  54.0262810  24.5374970
   4.4448170  52.3452870  33.8654560   5.2460900  52.6664920  34.2789960
   3.9299990  51.9848450  34.5874470   8.5492200  52.3337110  16.4994550
   9.3420810  52.6225940  16.0476340   8.0296550  51.9029280  15.8207030
  13.2812800  48.4532740  33.8129970  12.6750960  48.4764340  33.0725720
  12.9766910  47.7215780  34.3497220  14.7113170  52.1813030  32.4239380
  15.6634920  52.0971050  32.3739620  14.5641390  52.8454740  33.0973170
  17.6022370  51.5607240  17.9231290  17.3163880  51.1472380  17.1085470
  17.4041920  52.4894950  17.8031810   9.0669600  47.5540520  16.3636900
   8.9620240  46.9392870  17.0898280   8.8993820  47.0306410  15.5799910
   9.2183920  46.2397320  32.3426130   8.4529590  46.8082320  32.2580800
   9.3999880  45.9473530  31.4494360  12.3072330  46.6160550  16.9678890
  11.7582430  47.0629850  17.6121630  12.9291590  46.1109800  17.4916560
  16.3607270  47.9702650  32.9001150  17.1016740  48.3078410  32.3968610
  15.5979950  48.1394710  32.3470920   4.1969060  42.9755920  33.7040680
   4.2374400  42.6769790  34.6125910   5.0514560  43.3763530  33.5448200
   7.9747450  45.5751470  18.8644190   8.3963870  45.4091340  19.7075580
   8.0998290  44.7651700  18.3699330   6.1374870  41.5548020  31.6715170
   5.6071330  41.0638970  31.0438510   6.8062940  41.9832220  31.1373100
  10.4875090  44.5989080  16.1121290  11.0080750  43.8838100  15.7462440
  11.1343490  45.2374950  16.4121800  15.0352930  46.0217480  31.4356360
  15.4493950  46.1762560  32.2846780  14.1003930  46.1472700  31.5982140
  15.5075100  43.3613640  33.4395510  16.0895870  42.6065960  33.3515990
  15.6836870  43.8921080  32.6626990   6.6247170  38.5210390  31.7512460
   6.5304040  37.9031140  31.0263330   6.0444560  39.2476680  31.5242370
   9.3908610  37.0783630  28.7839850   8.9425910  37.1007890  27.9385400
   8.7573810  36.6802650  29.3810150   9.7968160  45.9737960  29.4052290
  10.2156270  46.8170690  29.2328530   8.8776790  46.1110000  29.1759070
  12.1332060  43.7054140  30.7890130  12.2528270  43.1095280  31.5284970
  12.9926060  43.7423830  30.3691430  14.4719960  44.2591330  29.3652640
  13.9455180  44.7833950  28.7617780  14.8151300  44.8918720  29.9962370
   6.8706350  41.6484700  15.8102350   6.6695410  40.7852060  16.1715690
   6.6998400  41.5618060  14.8723950   7.6475580  52.2790970  30.5210020
   7.1096670  53.0037030  30.2018720   7.9009540  51.8021310  29.7307360
   8.9000830  40.2475490  32.0465950   9.4900520  39.9391340  32.7343770
   8.0821070  39.7755240  32.2025850  13.7194260  39.8641300  32.2798970
  13.0309780  39.2022840  32.2148960  14.4400280  39.4179570  32.7247430
  14.3494660  36.4592930  18.3389230  14.6296950  35.6160830  18.6948650
  13.5760390  36.6916040  18.8527980   5.6689150  38.7485320  15.7980230
   5.9715050  38.7552750  14.8899380   6.4083740  38.3983180  16.2947890
  10.5037790  53.5142180  30.7796670  10.4296490  54.4177320  31.0869040
   9.6016630  53.1954080  30.7518740   8.8874080  37.6919940  16.7836430
   8.5396080  37.0143930  16.2038880   9.0886850  37.2309450  17.5979820
  11.0523120  52.6800690  18.4023030  11.9473910  53.0185660  18.4241790
  11.0840750  51.9580100  17.7747310   4.6919280  48.0527740  16.6310030
   5.1294150  48.5957410  17.2867610   5.1767010  47.2274690  16.6406370
   1.9065080  50.8416770  24.0830290   2.2368090  49.9737830  23.8508930
   2.3356080  51.0475290  24.9135250   6.5027000  49.1725780  21.7432260
   6.2022540  49.0490750  22.6436170   6.3964490  48.3134370  21.3347990
   2.3955290  51.7087360  26.8211920   1.9586280  51.8888160  27.6536070
   2.9632970  52.4661980  26.6793640  18.0317470  51.2104360  31.1089230
  17.4319460  51.2696920  30.3653150  18.1611370  50.2709340  31.2386080
  19.2718920  48.9522180  16.4458940  18.4411880  49.0198830  16.9166170
  19.4490750  49.8426300  16.1425800  18.7275380  45.6969660  18.9493140
  19.4894290  46.2666310  19.0552830  18.7429750  45.1296860  19.7201450
   2.2279720  44.2207590  23.1800800   1.5728560  43.9519230  22.5360500
   3.0657670  44.1112070  22.7302780  19.7335350  46.5519760  23.7935070
  20.1044180  45.7687080  23.3871040  20.3737280  47.2408860  23.6152370
  16.7169110  47.9356340  29.2065390  15.9028950  48.3653500  29.4691180
  17.1243310  48.5474750  28.5934440  18.7794550  45.9904030  16.1065660
  19.0543390  46.8982910  15.9784880  18.5905290  45.9266560  17.0427650
  15.1770160  39.0148880  17.4019290  15.5955040  38.8279860  16.5615950
  14.8706220  38.1627930  17.7122220  18.6759890  43.9273020  21.0995090
  18.3003490  43.1600950  20.6676380  17.9463010  44.3095720  21.5870020
   3.2655650  44.6060160  27.7204140   3.6328690  44.5187560  28.6000160
   2.6966470  43.8426710  27.6211000  18.0659510  43.0744540  30.7334610
  17.8345600  42.8457290  29.8332560  18.3264060  43.9944090  30.6879500
   2.8171650  41.5169250  31.6262560   1.9227700  41.4836010  31.9656270
   3.3569200  41.7156040  32.3913810  16.5047580  38.3000970  33.5114310
  17.3817760  38.3084370  33.8948310  16.5168420  37.5631810  32.9006660
  17.9510850  42.1530510  24.4002330  18.4748330  41.6593160  23.7692500
  18.5370270  42.2880870  25.1449900  18.1300570  42.2370380  27.9221880
  17.1803280  42.2033920  28.0366870  18.3113580  43.1470490  27.6871650
   3.9845010  40.4872060  17.0320510   4.6936710  40.0655280  16.5467790
   3.2684950  40.5547290  16.4003860   3.6319170  36.5411390  16.0723160
   4.3547300  37.0820330  16.3904380   3.9043690  36.2674810  15.1964700
  17.4410820  41.4103860  20.3394740  17.9369940  41.1774730  21.1243620
  17.2426890  40.5715700  19.9232380   3.3211360  35.7917580  25.9745780
   3.9687550  35.2414960  25.5340940   3.7413200  36.0460730  26.7961590
  18.8697980  40.0464810  22.8732420  18.7597260  39.8920850  23.8114690
  19.6305570  39.5185750  22.6307830  17.2163700  35.9858940  29.3315420
  17.8535920  36.5993080  29.6974610  17.3638590  36.0219600  28.3864650
  19.7588250  37.8772730  16.1138560  20.6837560  37.7453910  15.9056850
  19.7364040  37.9565550  17.0675010  19.8326740  38.6483390  18.7395270
  19.0378240  38.5828510  19.2688180  20.0370020  39.5834030  18.7280620
  16.7745160  52.6874940  22.7333660  17.3704230  52.3659510  22.0568080
  17.0323310  52.2146760  23.5246930   3.0743360  35.9473250  28.7171100
   2.7258180  36.4037070  29.4829280   2.7431060  35.0530380  28.7993530
   4.6807730  49.1192850  32.8824290   4.6377360  48.7485760  33.7638750
   4.8118740  50.0570420  33.0226110   8.3813760  50.6752440  28.4834010
   8.1405120  50.9427000  27.5964530   9.3216400  50.8458170  28.5384870
  10.5868180  37.1385130  32.2390520  10.5257070  37.7306960  32.9885930
  11.5268560  37.0311090  32.0940780  13.2242740  36.7955190  31.8782810
  13.8383150  37.1134480  31.2163890  13.7692300  36.3103780  32.4978670
  19.6417920  52.6946820  29.2844650  19.1476200  53.0915690  28.5671780
  19.0331210  52.0696030  29.6781930   3.7464000  35.4749450  31.9921870
   4.2946990  35.2937500  31.2287980   3.8119310  34.6843560  32.5278180
   4.5195760  52.0655100  30.0022070   3.9256080  51.9339800  30.7412110
   4.5119600  51.2293240  29.5364170  13.9650780  35.3587330  28.2052100
  13.0910620  35.6922440  28.0025030  13.8561530  34.8860510  29.0303970
  14.8722760  37.5658200  29.5893820  14.5436120  36.7509960  29.2095550
  15.8205060  37.5228010  29.4659510  17.3257370  53.3370240  26.5631390
  16.8660340  54.0886050  26.1889410  16.6969830  52.6176710  26.5046190
   4.1507990  49.4313480  28.9530110   3.4242050  48.8118770  28.8856060
   4.2117140  49.8254090  28.0828190   7.7553090  51.6458480  25.7379520
   8.2718110  51.0345840  25.2127780   8.4050470  52.1487260  26.2290530
  10.4948590  52.5366970  26.5648500  10.7826400  52.2821270  25.6881510
  11.0071810  51.9844330  27.1554070  11.7125600  36.2757170  27.1445010
  10.9297390  36.7502670  27.4241770  11.4188530  35.3712000  27.0358190
  16.2646670  36.9780270  25.1894100  16.7054760  36.9225370  24.3415700
  15.9954260  37.8938280  25.2604280  18.1285240  36.6095510  23.2002920
  18.0673640  35.6656730  23.0533940  18.9077270  36.7175600  23.7456380
   2.4337990  52.7487870  22.1626870   2.2660030  52.1158550  22.8608760
   1.5672500  52.9547270  21.8121060   3.0566010  36.5804650  19.6658730
   3.8145370  36.6933530  19.0922760   2.5943180  37.4173850  19.6202160
   9.5979820  38.6943920  22.6561040   8.7854330  38.3200810  22.3156920
  10.1021460  37.9389000  22.9582230  14.1004800  35.3586370  23.8944110
  14.7034170  35.9306580  24.3692630  13.3597790  35.9225810  23.6718010
  17.2439400  35.7607930  19.1684390  17.4390030  36.6591380  19.4351820
  16.4569270  35.5295010  19.6617340   4.0400690  51.4421100  19.6077010
   3.5148310  51.8229130  18.9038970   3.9645270  52.0671870  20.3286720
   5.4291160  37.1068700  18.2060700   5.9583920  36.3198500  18.0768650
   6.0619480  37.7859890  18.4396230   7.6229000  36.8443840  21.2606090
   6.9931740  36.1431150  21.4276220   7.0834140  37.6047970  21.0439250
  10.5620950  53.4583070  33.9316700  11.4888260  53.2227340  33.9752660
  10.5471380  54.2855070  33.4502730  18.7966010  53.0008640  20.9290950
  18.9718200  52.3146380  20.2851870  18.0987580  53.5255690  20.5367620
   7.7484560  36.1227820  33.6958580   7.4668830  36.6261420  32.9319400
   8.1304260  35.3249570  33.3300710   6.6393660  53.3903480  18.4826260
   7.3712480  53.1062760  17.9350150   6.8987330  53.1516760  19.3725640
   5.8008450  49.5068210  18.4872590   5.1717330  49.9753310  19.0358420
   5.9156280  48.6617430  18.9218780  14.3500020  35.5381400  34.2739050
  14.2365470  35.8576010  35.1690570  15.1669760  35.9393910  33.9776330
  17.1298510  52.6852930  33.7557740  17.9223830  52.1902160  33.5483700
  17.4231660  53.3643070  34.3633350  13.2558170  43.5573870   4.6373790
  13.1752220  42.6428480   4.3665500  12.8422590  44.0540940   3.9313500
  11.3876210  45.3352890   6.5183060  10.6118310  44.8553330   6.8081630
  12.0389140  44.6558540   6.3439220   5.4042040  45.6472700   7.3958820
   4.5726920  45.3921410   7.7955330   6.0123020  45.7183470   8.1316740
  15.4083640  49.7413080   5.2982190  14.9465170  48.9700320   5.6269360
  16.2209190  49.7679150   5.8034640   5.3843300  49.6812790   7.5916840
   5.6871340  48.7910530   7.4127060   6.1286890  50.2383010   7.3639090
   1.7767000  43.2080240   7.0640910   2.3483110  42.4402440   7.0644550
   1.7768540  43.5069000   6.1547520  11.6346950  52.0271090   4.9186180
  11.0158390  52.4828590   4.3480620  12.4898730  52.1822550   4.5175880
  10.8285200  48.0110080   6.5253220  10.7593480  47.0700020   6.3642350
  11.5905060  48.1011490   7.0975790   3.0191870  38.6164600   8.8509840
   2.8394710  37.7190350   9.1312600   2.6171950  39.1636470   9.5256790
  11.8590370  40.8180460   6.7522150  12.2355190  39.9452340   6.6395820
  11.7609880  41.1539160   5.8612590   5.9895380  39.1906090   2.2139590
   6.0962130  40.0909820   2.5208350   5.0787740  39.1424060   1.9234240
  15.6414490  38.3130900   3.6850490  16.4624110  37.8227470   3.7275970
  15.6748570  38.9028560   4.4382330   3.6378540  41.1125100   7.4592180
   4.3188650  41.3763470   8.0779580   3.3226590  40.2725970   7.7930190
   7.8303110  42.1592460   6.5464770   8.3381330  42.6573430   7.1869790
   8.3616350  41.3827660   6.3704130  19.9314040  40.3297650  10.2494120
  19.2266210  40.7179360   9.7309230  20.1971960  41.0247940  10.8515050
   6.1139210  36.7991020  10.8128190   6.1157650  37.3163410  10.0074090
   5.2843520  36.3221200  10.7898120  12.5010300  46.9110330   2.3118090
  11.8827570  47.3759780   1.7480810  13.0133550  47.6037810   2.7287600
   7.3642060  46.4386200   8.9901690   7.0311440  47.0655120   9.6322760
   7.5408740  46.9648080   8.2103360  15.8775970  40.2531280   6.4578030
  15.1731540  40.5416170   7.0381140  16.2388130  41.0631390   6.0977590
   5.7954540  38.5100980   8.8198640   6.1371350  39.3543030   8.5252510
   4.8570350  38.6584720   8.9363980   6.5761160  48.4067000  10.8050870
   7.1935160  49.0818080  10.5235320   5.7154280  48.8154980  10.7138370
  17.4938750  49.8706410   8.7205510  16.8102270  50.5405520   8.7122180
  18.0333040  50.0687060   7.9550370  18.9462890  39.6986070   6.8487240
  17.9987800  39.7325050   6.9802670  19.2712880  40.5125020   7.2336600
   9.4782430  35.9983250   5.1443230   9.7857410  35.4430140   4.4278730
   8.5483130  36.1327710   4.9616220  15.0297490  51.7150540   7.4350690
  15.0424650  51.3112830   6.5672950  14.4772710  52.4897830   7.3312120
  16.3242910  48.4366760   2.5240860  16.2139240  47.4941090   2.6490280
  16.3211160  48.7982400   3.4103620  14.4282930  46.6180380   8.7633300
  14.8451720  46.4040490   7.9286760  15.1522750  46.8753170   9.3341920
  11.8663190  44.0632080   1.8803350  10.9392470  43.9969460   2.1091820
  12.0188010  45.0012210   1.7658590  18.3745030  45.0167600   8.8549540
  17.5463660  45.0860690   8.3799670  18.9695510  45.6021910   8.3865370
  15.8960480  45.6252380   2.3838600  15.2772900  45.2871930   1.7364900
  15.8784930  44.9812140   3.0917790  15.3387040  41.8036920   9.8004410
  14.9258220  42.6290630  10.0544400  14.6062990  41.2181960   9.6080770
   7.4719830  44.5896820   4.6623080   7.0676830  43.8774070   4.1668980
   7.5582950  44.2450060   5.5511120   7.9401530  48.2764380   6.8262290
   7.6429820  47.6709850   6.1470070   8.8901350  48.3141690   6.7151650
   6.1848450  41.3640030   8.4422120   6.7363040  41.4735370   7.6675370
   6.6991960  41.7377630   9.1577350  16.0287140  51.8496250  10.4885390
  15.5517700  52.6568440  10.2958000  15.3448930  51.1974580  10.6411600
   7.0319960  48.0146070  13.4770090   6.1348490  48.2386040  13.7243490
   7.0572830  48.1381010  12.5281490   5.8591180  44.8859390  12.0527460
   5.7198950  45.7582190  12.4214860   4.9772540  44.5432200  11.9075400
  12.1820560  49.8035260   3.3592590  12.6216470  50.5459590   2.9447980
  12.1207450  50.0461830   4.2831550   7.6571530  50.8281090  14.2612610
   7.6286960  51.2324040  13.3941040   7.4936500  49.8991450  14.0984210
  19.6086350  51.6108190  15.5576780  20.0846070  52.0891080  16.2365860
  20.2293510  51.5425680  14.8322280   1.8109830  46.6556940   7.9698370
   1.8890250  46.7905710   7.0254090   2.4251510  45.9472830   8.1626490
   3.0557460  48.3557130   4.3804550   2.6485540  48.4971720   3.5258150
   3.9470470  48.0717290   4.1775760  19.0119600  48.8021040  12.7176790
  19.1382660  48.5632920  11.7993970  19.0540980  47.9705580  13.1898870
  12.8736340  52.5049040  11.2871600  13.3881010  52.4157050  12.0894030
  12.0305420  52.8508740  11.5799510   7.3279120  52.5702910   2.4927220
   7.1521600  51.6538450   2.2795020   6.4734860  52.9290200   2.7325020
  14.1166800  51.9254650   3.3502090  14.5723750  51.1444030   3.6640710
  14.4559320  52.6361470   3.8943270  18.8643610  40.8553500  13.6826530
  18.2487880  41.3633170  13.1541990  18.5440030  39.9551830  13.6252470
   1.8669350  47.6971110  10.5092830   2.0300390  47.2276470   9.6912200
   2.3321800  47.1894670  11.1741670   6.6388120  36.8276870   5.5453400
   6.1956270  37.6086410   5.2137920   7.1973110  37.1506760   6.2524340
  10.9257930  39.6945390  11.1488720  10.4637300  39.9028410  11.9608660
  10.5236040  38.8804740  10.8459390  15.9262440  40.9154340  12.2785380
  15.0756030  40.6160090  12.5994450  15.7664230  41.1596350  11.3669200
  13.0212150  42.4156090  14.3784170  13.3465560  41.5819840  14.0386400
  13.8092480  42.9384610  14.5262500   8.6764020  37.3724200   7.4043000
   8.9736350  38.2787030   7.3235020   9.2249580  36.8842980   6.7902570
   6.4302340  41.9510440   3.2734650   6.2043260  41.7347610   4.1781270
   5.6494870  42.3838900   2.9280620   8.8701550  42.8496020  13.9394920
   8.7745150  41.9090750  13.7895320   9.7133530  43.0711090  13.5442990
  12.2664970  40.5937350   3.9028580  12.6594540  40.9109550   3.0897270
  12.6281820  39.7149230   4.0173100   4.0012090  39.2609690  12.0928700
   3.6075480  40.1084900  12.3001480   3.3130490  38.6236060  12.2837340
  10.5757140  39.3444660  15.1625440   9.8855460  39.1516860  15.7971530
  11.3189440  39.6279300  15.6949740  12.8520110  43.1843100   7.9979360
  12.1201230  43.6929910   8.3469460  12.4544450  42.3673080   7.6968140
   9.2897500  39.8597300   6.4031850   9.2933560  39.4187250   5.5536390
  10.1848620  40.1814630   6.5103670   5.1399880  39.7423790   5.3626060
   4.7999930  40.2199020   6.1193110   4.3777200  39.2888910   5.0027160
  13.3146020  38.6376780   7.4102300  13.3318760  39.0885430   8.2544150
  13.0661600  37.7382420   7.6235740  16.7416770  36.0508960  13.2488680
  17.0662540  35.3198620  13.7746660  16.7773280  35.7322600  12.3469670
   3.4408330  47.0722540  12.6688640   3.0563120  46.4316210  13.2671600
   3.7520520  47.7758660  13.2383370   9.5905470  43.9199080   8.1497260
   9.9575600  43.4457650   8.8958600   9.4010530  44.7940650   8.4905600
   2.4545960  38.6642770   4.2790730   2.1692880  38.2998440   5.1169350
   2.3924820  37.9323230   3.6653870   7.3804840  42.9607720  10.4681470
   7.0761910  43.8399700  10.6931830   8.3351300  43.0207510  10.5038910
  16.6674610  46.1634070   6.8574710  17.3873730  46.6589360   6.4670820
  16.4656430  45.4851960   6.2128580  12.0493410  46.2343130  12.7443710
  11.9830720  45.3138800  12.4901300  11.4198550  46.3318570  13.4588350
   5.9524030  46.8349090   4.7027130   6.4702700  46.0317350   4.6484020
   5.5008050  46.7728230   5.5443960   3.4368570  43.8010460  11.6152830
   3.0783510  44.4664310  12.2026170   3.1423130  42.9694010  11.9865450
   6.6381690  44.2594700  14.4992380   6.3381830  44.4051880  13.6020200
   7.4092930  43.6999990  14.4065770  11.9810140  49.0563700  12.4947510
  11.9954680  48.1244660  12.2766420  11.2735240  49.1423460  13.1337280
  18.1921350  45.6971040  11.8416090  17.4669540  46.2899820  11.6445480
  18.7196810  45.6894580  11.0429460  13.7220940  47.4231210   5.3399940
  14.0744760  46.8259340   4.6801310  12.8383270  47.0975440   5.5108190
   9.8084220  48.1828900   2.7470350  10.4955350  48.7298110   3.1277940
   9.0216640  48.7269630   2.7819960   9.1111430  45.1874930   2.3595710
   9.5674210  45.9980180   2.5855900   8.7599640  44.8698070   3.1914200
  11.4144040  50.6981270   9.5888010  12.0586260  50.9040650  10.2661430
  11.7773480  49.9369670   9.1358860   5.0123210  35.5312580   2.8318230
   4.8837840  35.5230480   3.7803150   4.1885230  35.8695670   2.4809240
  12.6876120  48.7013620   8.3065460  13.3298350  48.0006780   8.4197630
  13.2125470  49.4812060   8.1262350  14.4613740  49.5008520  11.5101520
  14.7969980  50.0875210  12.1879440  13.5414080  49.3701230  11.7399310
   2.2989730  51.2783960  13.2791460   2.4080850  50.3378700  13.1386850
   1.6470290  51.5438710  12.6305190  10.2902320  49.5499850  14.6789580
   9.9699190  48.8309090  15.2235270   9.6160680  50.2254920  14.7525640
  13.5055920  39.7826010  10.0426380  13.8736740  38.9621220  10.3705950
  12.6454120  39.8427900  10.4582030   8.8401980  41.0168900   2.2671820
   8.1318130  41.4855240   2.7085430   9.1246460  40.3590910   2.9017010
  10.4657910  42.4365600  10.2664350  10.9643160  42.9111420  10.9316200
  10.6080860  41.5129120  10.4734380  12.8717410  37.7419560   3.7067610
  12.7485190  37.7605690   2.7577120  13.8201970  37.7898500   3.8266010
   9.9594200  52.9774860   2.9795590  10.2135700  52.9396250   2.0574960
   9.0106680  52.8508190   2.9723840  17.6724770  38.6533560  11.1092740
  17.1698370  39.3938960  11.4486550  18.4881430  39.0417560  10.7929530
  15.9646780  43.8966740   4.5554100  15.0236920  43.9116970   4.7301790
  16.2790850  43.1102700   5.0014400  17.9672360  51.0675590   6.2308360
  18.0919780  51.8906760   6.7032170  18.8337920  50.8566320   5.8832510
   5.4389890  53.1606800   5.9025490   6.1752370  52.6122260   6.1734060
   5.8230810  54.0262810   5.7631480   4.4448170  52.3452870  15.0911070
   5.2460900  52.6664920  15.5046470   3.9299990  51.9848450  15.8130980
  13.2812800  48.4532740  15.0386480  12.6750960  48.4764340  14.2982230
  12.9766910  47.7215780  15.5753730  14.7113170  52.1813030  13.6495890
  15.6634920  52.0971050  13.5996130  14.5641390  52.8454740  14.3229680
   9.2183920  46.2397320  13.5682640   8.4529590  46.8082320  13.4837310
   9.3999880  45.9473530  12.6750870  16.3607270  47.9702650  14.1257660
  17.1016740  48.3078410  13.6225120  15.5979950  48.1394710  13.5727430
   4.1969060  42.9755920  14.9297190   4.2374400  42.6769790  15.8382420
   5.0514560  43.3763530  14.7704710   6.1374870  41.5548020  12.8971680
   5.6071330  41.0638970  12.2695020   6.8062940  41.9832220  12.3629610
  15.0352930  46.0217480  12.6612870  15.4493950  46.1762560  13.5103290
  14.1003930  46.1472700  12.8238650  15.5075100  43.3613640  14.6652020
  16.0895870  42.6065960  14.5772500  15.6836870  43.8921080  13.8883500
   6.6247170  38.5210390  12.9768970   6.5304040  37.9031140  12.2519840
   6.0444560  39.2476680  12.7498880   9.3908610  37.0783630  10.0096360
   8.9425910  37.1007890   9.1641910   8.7573810  36.6802650  10.6066660
   9.7968160  45.9737960  10.6308800  10.2156270  46.8170690  10.4585040
   8.8776790  46.1110000  10.4015580  12.1332060  43.7054140  12.0146640
  12.2528270  43.1095280  12.7541480  12.9926060  43.7423830  11.5947940
  14.4719960  44.2591330  10.5909150  13.9455180  44.7833950   9.9874290
  14.8151300  44.8918720  11.2218880   7.6475580  52.2790970  11.7466530
   7.1096670  53.0037030  11.4275230   7.9009540  51.8021310  10.9563870
   8.9000830  40.2475490  13.2722460   9.4900520  39.9391340  13.9600280
   8.0821070  39.7755240  13.4282360  13.7194260  39.8641300  13.5055480
  13.0309780  39.2022840  13.4405470  14.4400280  39.4179570  13.9503940
  10.5037790  53.5142180  12.0053180  10.4296490  54.4177320  12.3125550
   9.6016630  53.1954080  11.9775250   1.9065080  50.8416770   5.3086800
   2.2368090  49.9737830   5.0765440   2.3356080  51.0475290   6.1391760
   6.5027000  49.1725780   2.9688770   6.2022540  49.0490750   3.8692680
   6.3964490  48.3134370   2.5604500   2.3955290  51.7087360   8.0468430
   1.9586280  51.8888160   8.8792580   2.9632970  52.4661980   7.9050150
  18.0317470  51.2104360  12.3345740  17.4319460  51.2696920  11.5909660
  18.1611370  50.2709340  12.4642590   2.2279720  44.2207590   4.4057310
   1.5728560  43.9519230   3.7617010   3.0657670  44.1112070   3.9559290
  19.7335350  46.5519760   5.0191580  20.1044180  45.7687080   4.6127550
  20.3737280  47.2408860   4.8408880  16.7169110  47.9356340  10.4321900
  15.9028950  48.3653500  10.6947690  17.1243310  48.5474750   9.8190950
  18.6759890  43.9273020   2.3251600  18.3003490  43.1600950   1.8932890
  17.9463010  44.3095720   2.8126530   3.2655650  44.6060160   8.9460650
   3.6328690  44.5187560   9.8256670   2.6966470  43.8426710   8.8467510
  18.0659510  43.0744540  11.9591120  17.8345600  42.8457290  11.0589070
  18.3264060  43.9944090  11.9136010   2.8171650  41.5169250  12.8519070
   1.9227700  41.4836010  13.1912780   3.3569200  41.7156040  13.6170320
  16.5047580  38.3000970  14.7370820  17.3817760  38.3084370  15.1204820
  16.5168420  37.5631810  14.1263170  17.9510850  42.1530510   5.6258840
  18.4748330  41.6593160   4.9949010  18.5370270  42.2880870   6.3706410
  18.1300570  42.2370380   9.1478390  17.1803280  42.2033920   9.2623380
  18.3113580  43.1470490   8.9128160   3.3211360  35.7917580   7.2002290
   3.9687550  35.2414960   6.7597450   3.7413200  36.0460730   8.0218100
  18.8697980  40.0464810   4.0988930  18.7597260  39.8920850   5.0371200
  19.6305570  39.5185750   3.8564340  17.2163700  35.9858940  10.5571930
  17.8535920  36.5993080  10.9231120  17.3638590  36.0219600   9.6121160
  16.7745160  52.6874940   3.9590170  17.3704230  52.3659510   3.2824590
  17.0323310  52.2146760   4.7503440   3.0743360  35.9473250   9.9427610
   2.7258180  36.4037070  10.7085790   2.7431060  35.0530380  10.0250040
   4.6807730  49.1192850  14.1080800   4.6377360  48.7485760  14.9895260
   4.8118740  50.0570420  14.2482620   8.3813760  50.6752440   9.7090520
   8.1405120  50.9427000   8.8221040   9.3216400  50.8458170   9.7641380
  10.5868180  37.1385130  13.4647030  10.5257070  37.7306960  14.2142440
  11.5268560  37.0311090  13.3197290  13.2242740  36.7955190  13.1039320
  13.8383150  37.1134480  12.4420400  13.7692300  36.3103780  13.7235180
  19.6417920  52.6946820  10.5101160  19.1476200  53.0915690   9.7928290
  19.0331210  52.0696030  10.9038440   3.7464000  35.4749450  13.2178380
   4.2946990  35.2937500  12.4544490   3.8119310  34.6843560  13.7534690
   4.5195760  52.0655100  11.2278580   3.9256080  51.9339800  11.9668620
   4.5119600  51.2293240  10.7620680  13.9650780  35.3587330   9.4308610
  13.0910620  35.6922440   9.2281540  13.8561530  34.8860510  10.2560480
  14.8722760  37.5658200  10.8150330  14.5436120  36.7509960  10.4352060
  15.8205060  37.5228010  10.6916020  17.3257370  53.3370240   7.7887900
  16.8660340  54.0886050   7.4145920  16.6969830  52.6176710   7.7302700
   4.1507990  49.4313480  10.1786620   3.4242050  48.8118770  10.1112570
   4.2117140  49.8254090   9.3084700   7.7553090  51.6458480   6.9636030
   8.2718110  51.0345840   6.4384290   8.4050470  52.1487260   7.4547040
  10.4948590  52.5366970   7.7905010  10.7826400  52.2821270   6.9138020
  11.0071810  51.9844330   8.3810580  11.7125600  36.2757170   8.3701520
  10.9297390  36.7502670   8.6498280  11.4188530  35.3712000   8.2614700
  16.2646670  36.9780270   6.4150610  16.7054760  36.9225370   5.5672210
  15.9954260  37.8938280   6.4860790  18.1285240  36.6095510   4.4259430
  18.0673640  35.6656730   4.2790450  18.9077270  36.7175600   4.9712890
   2.4337990  52.7487870   3.3883380   2.2660030  52.1158550   4.0865270
   1.5672500  52.9547270   3.0377570   9.5979820  38.6943920   3.8817550
   8.7854330  38.3200810   3.5413430  10.1021460  37.9389000   4.1838740
  14.1004800  35.3586370   5.1200620  14.7034170  35.9306580   5.5949140
  13.3597790  35.9225810   4.8974520   7.6229000  36.8443840   2.4862600
   6.9931740  36.1431150   2.6532730   7.0834140  37.6047970   2.2695760
  10.5620950  53.4583070  15.1573210  11.4888260  53.2227340  15.2009170
  10.5471380  54.2855070  14.6759240   7.7484560  36.1227820  14.9215090
   7.4668830  36.6261420  14.1575910   8.1304260  35.3249570  14.5557220
  14.3500020  35.5381400  15.4995560  14.2365470  35.8576010  16.3947080
  15.1669760  35.9393910  15.2032840  17.1298510  52.6852930  14.9814250
  17.9223830  52.1902160  14.7740210  17.4231660  53.3643070  15.5889860
  13.2558170  24.7830380  79.7347750  13.1752220  23.8684990  79.4639460
  12.8422590  25.2797450  79.0287460  11.3876210  26.5609400  81.6157020
  10.6118310  26.0809840  81.9055590  12.0389140  25.8815050  81.4413180
   5.4042040  26.8729210  82.4932780   4.5726920  26.6177920  82.8929290
   6.0123020  26.9439980  83.2290700  15.4083640  30.9669590  80.3956150
  14.9465170  30.1956830  80.7243320  16.2209190  30.9935660  80.9008600
   5.3843300  30.9069300  82.6890800   5.6871340  30.0167040  82.5101020
   6.1286890  31.4639520  82.4613050   3.8133990  21.8331100  76.2775170
   2.9250690  22.1747070  76.1755050   4.0975180  21.6331420  75.3856000
   1.7767000  24.4336750  82.1614870   2.3483110  23.6658950  82.1618510
   1.7768540  24.7325510  81.2521480  11.6346950  33.2527600  80.0160140
  11.0158390  33.7085100  79.4454580  12.4898730  33.4079060  79.6149840
  10.8285200  29.2366590  81.6227180  10.7593480  28.2956530  81.4616310
  11.5905060  29.3268000  82.1949750   3.0191870  19.8421110  83.9483800
   2.8394710  18.9446860  84.2286560   2.6171950  20.3892980  84.6230750
  11.8590370  22.0436970  81.8496110  12.2355190  21.1708850  81.7369780
  11.7609880  22.3795670  80.9586550   5.9895380  20.4162600  77.3113550
   6.0962130  21.3166330  77.6182310   5.0787740  20.3680570  77.0208200
  15.6414490  19.5387410  78.7824450  16.4624110  19.0483980  78.8249930
  15.6748570  20.1285070  79.5356290   3.6378540  22.3381610  82.5566140
   4.3188650  22.6019980  83.1753540   3.3226590  21.4982480  82.8904150
   7.8303110  23.3848970  81.6438730   8.3381330  23.8829940  82.2843750
   8.3616350  22.6084170  81.4678090  19.9314040  21.5554160  85.3468080
  19.2266210  21.9435870  84.8283190  20.1971960  22.2504450  85.9489010
   6.1139210  18.0247530  85.9102150   6.1157650  18.5419920  85.1048050
   5.2843520  17.5477710  85.8872080  12.5010300  28.1366840  77.4092050
  11.8827570  28.6016290  76.8454770  13.0133550  28.8294320  77.8261560
   7.3642060  27.6642710  84.0875650   7.0311440  28.2911630  84.7296720
   7.5408740  28.1904590  83.3077320  15.8775970  21.4787790  81.5551990
  15.1731540  21.7672680  82.1355100  16.2388130  22.2887900  81.1951550
   5.7954540  19.7357490  83.9172600   6.1371350  20.5799540  83.6226470
   4.8570350  19.8841230  84.0337940   6.5761160  29.6323510  85.9024830
   7.1935160  30.3074590  85.6209280   5.7154280  30.0411490  85.8112330
  17.4938750  31.0962920  83.8179470  16.8102270  31.7662030  83.8096140
  18.0333040  31.2943570  83.0524330  18.9462890  20.9242580  81.9461200
  17.9987800  20.9581560  82.0776630  19.2712880  21.7381530  82.3310560
   9.4782430  17.2239760  80.2417190   9.7857410  16.6686650  79.5252690
   8.5483130  17.3584220  80.0590180  15.0297490  32.9407050  82.5324650
  15.0424650  32.5369340  81.6646910  14.4772710  33.7154340  82.4286080
  16.3242910  29.6623270  77.6214820  16.2139240  28.7197600  77.7464240
  16.3211160  30.0238910  78.5077580  14.4282930  27.8436890  83.8607260
  14.8451720  27.6297000  83.0260720  15.1522750  28.1009680  84.4315880
  11.8663190  25.2888590  76.9777310  10.9392470  25.2225970  77.2065780
  12.0188010  26.2268720  76.8632550  11.8532270  21.5605590  73.9744470
  10.9135940  21.7219550  74.0596930  12.1715530  22.2791270  73.4280460
  18.3745030  26.2424110  83.9523500  17.5463660  26.3117200  83.4773630
  18.9695510  26.8278420  83.4839330  15.8960480  26.8508890  77.4812560
  15.2772900  26.5128440  76.8338860  15.8784930  26.2068650  78.1891750
  15.3387040  23.0293430  84.8978370  14.9258220  23.8547140  85.1518360
  14.6062990  22.4438470  84.7054730   7.4719830  25.8153330  79.7597040
   7.0676830  25.1030580  79.2642940   7.5582950  25.4706570  80.6485080
   7.9401530  29.5020890  81.9236250   7.6429820  28.8966360  81.2444030
   8.8901350  29.5398200  81.8125610   6.1848450  22.5896540  83.5396080
   6.7363040  22.6991880  82.7649330   6.6991960  22.9634140  84.2551310
  16.0287140  33.0752760  85.5859350  15.5517700  33.8824950  85.3931960
  15.3448930  32.4231090  85.7385560  14.0725180  26.0895700  74.4885310
  14.5118460  25.2518130  74.3423130  14.7853600  26.7225100  74.5749450
  12.1820560  31.0291770  78.4566550  12.6216470  31.7716100  78.0421940
  12.1207450  31.2718340  79.3805510  17.6542320  17.3438510  72.8026350
  17.3414980  17.4365340  73.7025420  18.4154790  17.9219540  72.7523780
   4.1724460  24.7098310  77.2603690   4.0522060  25.4360400  76.6484960
   3.8625350  23.9401220  76.7831600   1.8109830  27.8813450  83.0672330
   1.8890250  28.0162220  82.1228050   2.4251510  27.1729340  83.2600450
   3.0557460  29.5813640  79.4778510   2.6485540  29.7228230  78.6232110
   3.9470470  29.2973800  79.2749720  14.8490740  34.0160890  75.8129560
  14.6891880  33.7263830  76.7111390  14.6837450  33.2401020  75.2774790
   7.3279120  33.7959420  77.5901180   7.1521600  32.8794960  77.3768980
   6.4734860  34.1546710  77.8298980  14.5516870  31.5248450  74.3727560
  13.8582030  31.5225740  73.7129840  15.2939730  31.1007770  73.9421730
  14.1166800  33.1511160  78.4476050  14.5723750  32.3700540  78.7614670
  14.4559320  33.8617980  78.9917230   6.6388120  18.0533380  80.6427360
   6.1956270  18.8342920  80.3111880   7.1973110  18.3763270  81.3498300
   9.7546940  17.6744080  75.5233190   9.1301120  17.6703950  76.2486500
   9.6677060  16.8075040  75.1269160   8.6764020  18.5980710  82.5016960
   8.9736350  19.5043540  82.4208980   9.2249580  18.1099490  81.8876530
   6.4302340  23.1766950  78.3708610   6.2043260  22.9604120  79.2755230
   5.6494870  23.6095410  78.0254580  13.6600100  23.1830320  76.9699260
  13.0608990  23.9066120  76.7862880  14.2079710  23.1207100  76.1875710
  12.2664970  21.8193860  79.0002540  12.6594540  22.1366060  78.1871230
  12.6281820  20.9405740  79.1147060  12.8520110  24.4099610  83.0953320
  12.1201230  24.9186420  83.4443420  12.4544450  23.5929590  82.7942100
   9.2897500  21.0853810  81.5005810   9.2933560  20.6443760  80.6510350
  10.1848620  21.4071140  81.6077630   5.1399880  20.9680300  80.4600020
   4.7999930  21.4455530  81.2167070   4.3777200  20.5145420  80.1001120
   9.3517650  22.0865890  74.4912570   9.4730470  22.0452370  75.4398390
   8.9666160  22.9490040  74.3359300  13.3146020  19.8633290  82.5076260
  13.3318760  20.3141940  83.3518110  13.0661600  18.9638930  82.7209700
   8.3639150  24.3967030  73.8895870   7.7956050  23.9485280  73.2631780
   9.0728150  24.7559810  73.3561020   9.5905470  25.1455590  83.2471220
   9.9575600  24.6714160  83.9932560   9.4010530  26.0197160  83.5879560
   2.4545960  19.8899280  79.3764690   2.1692880  19.5254950  80.2143310
   2.3924820  19.1579740  78.7627830   7.3804840  24.1864230  85.5655430
   7.0761910  25.0656210  85.7905790   8.3351300  24.2464020  85.6012870
   5.9086630  28.3925220  76.1622280   5.1348890  27.8522840  76.0021000
   6.6381260  27.8731830  75.8240040  16.6674610  27.3890580  81.9548670
  17.3873730  27.8845870  81.5644780  16.4656430  26.7108470  81.3102540
  12.1284550  18.7828540  76.0978060  11.3149160  18.2841710  76.0223370
  11.9346500  19.6226790  75.6814410  14.8432940  23.1548190  74.3940220
  15.7312560  23.4665420  74.2191560  14.8138030  22.2820440  74.0020800
   5.9524030  28.0605600  79.8001090   6.4702700  27.2573860  79.7457980
   5.5008050  27.9984740  80.6417920  10.8393530  29.3271880  75.0728390
  11.1809230  30.0714110  74.5771710  10.0106240  29.6403000  75.4353220
  17.1147210  24.4660030  73.8620080  17.0310930  24.8974250  73.0116520
  17.8341400  24.9258380  74.2946900  18.1434460  31.3202290  76.5902210
  17.5010620  30.6657910  76.8645930  17.7565120  31.7257380  75.8142880
  13.7220940  28.6487720  80.4373900  14.0744760  28.0515850  79.7775270
  12.8383270  28.3231950  80.6082150   9.8084220  29.4085410  77.8444310
  10.4955350  29.9554620  78.2251900   9.0216640  29.9526140  77.8793920
   9.1111430  26.4131440  77.4569670   9.5674210  27.2236690  77.6829860
   8.7599640  26.0954580  78.2888160  11.4144040  31.9237780  84.6861970
  12.0586260  32.1297160  85.3635390  11.7773480  31.1626180  84.2332820
   5.0123210  16.7569090  77.9292190   4.8837840  16.7486990  78.8777110
   4.1885230  17.0952180  77.5783200  12.6876120  29.9270130  83.4039420
  13.3298350  29.2263290  83.5171590  13.2125470  30.7068570  83.2236310
  16.5331840  30.2118750  73.1278560  16.3069420  29.4949190  73.7203200
  16.1428040  29.9631190  72.2900310   2.3147870  34.2385610  73.9023020
   2.6745510  34.8374950  73.2480290   2.1740210  34.7845500  74.6758050
  16.1148090  28.1290690  74.7892720  15.8269790  28.5903380  75.5770600
  16.9100260  27.6688460  75.0576940   8.3316490  31.6216810  74.7196690
   8.3226590  32.3546500  74.1041200   7.4114850  31.3748390  74.8123650
   3.9323130  26.8431700  75.4643450   3.3251080  27.5830600  75.4738750
   4.4072480  26.9331060  74.6381650  13.5055920  21.0082520  85.1400340
  13.8736740  20.1877730  85.4679910  12.6454120  21.0684410  85.5555990
  16.8717950  19.9639460  75.9487900  16.2431110  20.0685130  75.2346130
  16.3769870  20.1836240  76.7381780  11.3176090  31.6845050  73.3821880
  11.4188070  31.4809040  72.4523860  10.4177830  31.4303330  73.5869660
   8.8401980  22.2425410  77.3645780   8.1318130  22.7111750  77.8059390
   9.1246460  21.5847420  77.9990970  12.8717410  18.9676070  78.8041570
  12.7485190  18.9862200  77.8551080  13.8201970  19.0155010  78.9239970
   9.9594200  34.2031370  78.0769550  10.2135700  34.1652760  77.1548920
   9.0106680  34.0764700  78.0697800   7.0437000  20.5510490  74.7396490
   7.8927530  20.9880640  74.6736680   6.6768270  20.8630750  75.5668550
  15.9646780  25.1223250  79.6528060  15.0236920  25.1373480  79.8275750
  16.2790850  24.3359210  80.0988360   5.9428420  26.8042850  73.2132020
   6.7091690  26.6924210  73.7757450   6.0203110  26.1080820  72.5608790
   4.6375180  24.2367920  73.8964910   4.7178770  23.2895430  74.0082310
   5.5294930  24.5674800  74.0025570  17.9672360  32.2932100  81.3282320
  18.0919780  33.1163270  81.8006130  18.8337920  32.0822830  80.9806470
   5.4389890  34.3863310  80.9999450   6.1752370  33.8378770  81.2708020
   5.8230810  35.2519320  80.8605440   8.5492200  33.5593620  72.8225020
   9.3420810  33.8482450  72.3706810   8.0296550  33.1285790  72.1437500
  17.6022370  32.7863750  74.2461760  17.3163880  32.3728890  73.4315940
  17.4041920  33.7151460  74.1262280   9.0669600  28.7797030  72.6867370
   8.9620240  28.1649380  73.4128750   8.8993820  28.2562920  71.9030380
  12.3072330  27.8417060  73.2909360  11.7582430  28.2886360  73.9352100
  12.9291590  27.3366310  73.8147030   7.9747450  26.8007980  75.1874660
   8.3963870  26.6347850  76.0306050   8.0998290  25.9908210  74.6929800
  10.4875090  25.8245590  72.4351760  11.0080750  25.1094610  72.0692910
  11.1343490  26.4631460  72.7352270   9.3908610  18.3040140  85.1070320
   8.9425910  18.3264400  84.2615870   8.7573810  17.9059160  85.7040620
   9.7968160  27.1994470  85.7282760  10.2156270  28.0427200  85.5559000
   8.8776790  27.3366510  85.4989540   6.8706350  22.8741210  72.1332820
   6.6695410  22.0108570  72.4946160   6.6998400  22.7874570  71.1954420
  14.3494660  17.6849440  74.6619700  14.6296950  16.8417340  75.0179120
  13.5760390  17.9172550  75.1758450   5.6689150  19.9741830  72.1210700
   5.9715050  19.9809260  71.2129850   6.4083740  19.6239690  72.6178360
   8.8874080  18.9176450  73.1066900   8.5396080  18.2400440  72.5269350
   9.0886850  18.4565960  73.9210290  11.0523120  33.9057200  74.7253500
  11.9473910  34.2442170  74.7472260  11.0840750  33.1836610  74.0977780
   4.6919280  29.2784250  72.9540500   5.1294150  29.8213920  73.6098080
   5.1767010  28.4531200  72.9636840   1.9065080  32.0673280  80.4060760
   2.2368090  31.1994340  80.1739400   2.3356080  32.2731800  81.2365720
   6.5027000  30.3982290  78.0662730   6.2022540  30.2747260  78.9666640
   6.3964490  29.5390880  77.6578460   2.3955290  32.9343870  83.1442390
   1.9586280  33.1144670  83.9766540   2.9632970  33.6918490  83.0024110
  19.2718920  30.1778690  72.7689410  18.4411880  30.2455340  73.2396640
  19.4490750  31.0682810  72.4656270  18.7275380  26.9226170  75.2723610
  19.4894290  27.4922820  75.3783300  18.7429750  26.3553370  76.0431920
   2.2279720  25.4464100  79.5031270   1.5728560  25.1775740  78.8590970
   3.0657670  25.3368580  79.0533250  19.7335350  27.7776270  80.1165540
  20.1044180  26.9943590  79.7101510  20.3737280  28.4665370  79.9382840
  16.7169110  29.1612850  85.5295860  15.9028950  29.5910010  85.7921650
  17.1243310  29.7731260  84.9164910  18.7794550  27.2160540  72.4296130
  19.0543390  28.1239420  72.3015350  18.5905290  27.1523070  73.3658120
  15.1770160  20.2405390  73.7249760  15.5955040  20.0536370  72.8846420
  14.8706220  19.3884440  74.0352690  18.6759890  25.1529530  77.4225560
  18.3003490  24.3857460  76.9906850  17.9463010  25.5352230  77.9100490
   3.2655650  25.8316670  84.0434610   3.6328690  25.7444070  84.9230630
   2.6966470  25.0683220  83.9441470  17.9510850  23.3787020  80.7232800
  18.4748330  22.8849670  80.0922970  18.5370270  23.5137380  81.4680370
  18.1300570  23.4626890  84.2452350  17.1803280  23.4290430  84.3597340
  18.3113580  24.3727000  84.0102120   3.9845010  21.7128570  73.3550980
   4.6936710  21.2911790  72.8698260   3.2684950  21.7803800  72.7234330
   3.6319170  17.7667900  72.3953630   4.3547300  18.3076840  72.7134850
   3.9043690  17.4931320  71.5195170  17.4410820  22.6360370  76.6625210
  17.9369940  22.4031240  77.4474090  17.2426890  21.7972210  76.2462850
   3.3211360  17.0174090  82.2976250   3.9687550  16.4671470  81.8571410
   3.7413200  17.2717240  83.1192060  18.8697980  21.2721320  79.1962890
  18.7597260  21.1177360  80.1345160  19.6305570  20.7442260  78.9538300
  19.7588250  19.1029240  72.4369030  20.6837560  18.9710420  72.2287320
  19.7364040  19.1822060  73.3905480  19.8326740  19.8739900  75.0625740
  19.0378240  19.8085020  75.5918650  20.0370020  20.8090540  75.0511090
  16.7745160  33.9131450  79.0564130  17.3704230  33.5916020  78.3798550
  17.0323310  33.4403270  79.8477400   3.0743360  17.1729760  85.0401570
   2.7258180  17.6293580  85.8059750   2.7431060  16.2786890  85.1224000
   8.3813760  31.9008950  84.8064480   8.1405120  32.1683510  83.9195000
   9.3216400  32.0714680  84.8615340  13.9650780  16.5843840  84.5282570
  13.0910620  16.9178950  84.3255500  13.8561530  16.1117020  85.3534440
  14.8722760  18.7914710  85.9124290  14.5436120  17.9766470  85.5326020
  15.8205060  18.7484520  85.7889980  17.3257370  34.5626750  82.8861860
  16.8660340  35.3142560  82.5119880  16.6969830  33.8433220  82.8276660
   4.1507990  30.6569990  85.2760580   3.4242050  30.0375280  85.2086530
   4.2117140  31.0510600  84.4058660   7.7553090  32.8714990  82.0609990
   8.2718110  32.2602350  81.5358250   8.4050470  33.3743770  82.5521000
  10.4948590  33.7623480  82.8878970  10.7826400  33.5077780  82.0111980
  11.0071810  33.2100840  83.4784540  11.7125600  17.5013680  83.4675480
  10.9297390  17.9759180  83.7472240  11.4188530  16.5968510  83.3588660
  16.2646670  18.2036780  81.5124570  16.7054760  18.1481880  80.6646170
  15.9954260  19.1194790  81.5834750  18.1285240  17.8352020  79.5233390
  18.0673640  16.8913240  79.3764410  18.9077270  17.9432110  80.0686850
   2.4337990  33.9744380  78.4857340   2.2660030  33.3415060  79.1839230
   1.5672500  34.1803780  78.1351530   3.0566010  17.8061160  75.9889200
   3.8145370  17.9190040  75.4153230   2.5943180  18.6430360  75.9432630
   9.5979820  19.9200430  78.9791510   8.7854330  19.5457320  78.6387390
  10.1021460  19.1645510  79.2812700  14.1004800  16.5842880  80.2174580
  14.7034170  17.1563090  80.6923100  13.3597790  17.1482320  79.9948480
  17.2439400  16.9864440  75.4914860  17.4390030  17.8847890  75.7582290
  16.4569270  16.7551520  75.9847810   4.0400690  32.6677610  75.9307480
   3.5148310  33.0485640  75.2269440   3.9645270  33.2928380  76.6517190
   5.4291160  18.3325210  74.5291170   5.9583920  17.5455010  74.3999120
   6.0619480  19.0116400  74.7626700   7.6229000  18.0700350  77.5836560
   6.9931740  17.3687660  77.7506690   7.0834140  18.8304480  77.3669720
  18.7966010  34.2265150  77.2521420  18.9718200  33.5402890  76.6082340
  18.0987580  34.7512200  76.8598090   6.6393660  34.6159990  74.8056730
   7.3712480  34.3319270  74.2580620   6.8987330  34.3773270  75.6956110
   5.8008450  30.7324720  74.8103060   5.1717330  31.2009820  75.3588890
   5.9156280  29.8873940  75.2449250  13.2558170  24.7830380  60.9604260
  13.1752220  23.8684990  60.6895970  12.8422590  25.2797450  60.2543970
  11.3876210  26.5609400  62.8413530  10.6118310  26.0809840  63.1312100
  12.0389140  25.8815050  62.6669690   5.4042040  26.8729210  63.7189290
   4.5726920  26.6177920  64.1185800   6.0123020  26.9439980  64.4547210
  15.4083640  30.9669590  61.6212660  14.9465170  30.1956830  61.9499830
  16.2209190  30.9935660  62.1265110   5.3843300  30.9069300  63.9147310
   5.6871340  30.0167040  63.7357530   6.1286890  31.4639520  63.6869560
   3.8133990  21.8331100  57.5031680   2.9250690  22.1747070  57.4011560
   4.0975180  21.6331420  56.6112510   1.7767000  24.4336750  63.3871380
   2.3483110  23.6658950  63.3875020   1.7768540  24.7325510  62.4777990
  11.6346950  33.2527600  61.2416650  11.0158390  33.7085100  60.6711090
  12.4898730  33.4079060  60.8406350  10.8285200  29.2366590  62.8483690
  10.7593480  28.2956530  62.6872820  11.5905060  29.3268000  63.4206260
   3.0191870  19.8421110  65.1740310   2.8394710  18.9446860  65.4543070
   2.6171950  20.3892980  65.8487260  11.8590370  22.0436970  63.0752620
  12.2355190  21.1708850  62.9626290  11.7609880  22.3795670  62.1843060
   5.9895380  20.4162600  58.5370060   6.0962130  21.3166330  58.8438820
   5.0787740  20.3680570  58.2464710  15.6414490  19.5387410  60.0080960
  16.4624110  19.0483980  60.0506440  15.6748570  20.1285070  60.7612800
   3.6378540  22.3381610  63.7822650   4.3188650  22.6019980  64.4010050
   3.3226590  21.4982480  64.1160660   7.8303110  23.3848970  62.8695240
   8.3381330  23.8829940  63.5100260   8.3616350  22.6084170  62.6934600
  19.9314040  21.5554160  66.5724590  19.2266210  21.9435870  66.0539700
  20.1971960  22.2504450  67.1745520   6.1139210  18.0247530  67.1358660
   6.1157650  18.5419920  66.3304560   5.2843520  17.5477710  67.1128590
  12.5010300  28.1366840  58.6348560  11.8827570  28.6016290  58.0711280
  13.0133550  28.8294320  59.0518070   7.3642060  27.6642710  65.3132160
   7.0311440  28.2911630  65.9553230   7.5408740  28.1904590  64.5333830
  15.8775970  21.4787790  62.7808500  15.1731540  21.7672680  63.3611610
  16.2388130  22.2887900  62.4208060   5.7954540  19.7357490  65.1429110
   6.1371350  20.5799540  64.8482980   4.8570350  19.8841230  65.2594450
   6.5761160  29.6323510  67.1281340   7.1935160  30.3074590  66.8465790
   5.7154280  30.0411490  67.0368840  17.4938750  31.0962920  65.0435980
  16.8102270  31.7662030  65.0352650  18.0333040  31.2943570  64.2780840
  18.9462890  20.9242580  63.1717710  17.9987800  20.9581560  63.3033140
  19.2712880  21.7381530  63.5567070   9.4782430  17.2239760  61.4673700
   9.7857410  16.6686650  60.7509200   8.5483130  17.3584220  61.2846690
  15.0297490  32.9407050  63.7581160  15.0424650  32.5369340  62.8903420
  14.4772710  33.7154340  63.6542590  16.3242910  29.6623270  58.8471330
  16.2139240  28.7197600  58.9720750  16.3211160  30.0238910  59.7334090
  14.4282930  27.8436890  65.0863770  14.8451720  27.6297000  64.2517230
  15.1522750  28.1009680  65.6572390  11.8663190  25.2888590  58.2033820
  10.9392470  25.2225970  58.4322290  12.0188010  26.2268720  58.0889060
  11.8532270  21.5605590  55.2000980  10.9135940  21.7219550  55.2853440
  12.1715530  22.2791270  54.6536970  18.3745030  26.2424110  65.1780010
  17.5463660  26.3117200  64.7030140  18.9695510  26.8278420  64.7095840
  15.8960480  26.8508890  58.7069070  15.2772900  26.5128440  58.0595370
  15.8784930  26.2068650  59.4148260  15.3387040  23.0293430  66.1234880
  14.9258220  23.8547140  66.3774870  14.6062990  22.4438470  65.9311240
   7.4719830  25.8153330  60.9853550   7.0676830  25.1030580  60.4899450
   7.5582950  25.4706570  61.8741590   7.9401530  29.5020890  63.1492760
   7.6429820  28.8966360  62.4700540   8.8901350  29.5398200  63.0382120
   6.1848450  22.5896540  64.7652590   6.7363040  22.6991880  63.9905840
   6.6991960  22.9634140  65.4807820  16.0287140  33.0752760  66.8115860
  15.5517700  33.8824950  66.6188470  15.3448930  32.4231090  66.9642070
   7.0319960  29.2402580  69.8000560   6.1348490  29.4642550  70.0473960
   7.0572830  29.3637520  68.8511960  14.0725180  26.0895700  55.7141820
  14.5118460  25.2518130  55.5679640  14.7853600  26.7225100  55.8005960
   5.8591180  26.1115900  68.3757930   5.7198950  26.9838700  68.7445330
   4.9772540  25.7688710  68.2305870  12.1820560  31.0291770  59.6823060
  12.6216470  31.7716100  59.2678450  12.1207450  31.2718340  60.6062020
   7.6571530  32.0537600  70.5843080   7.6286960  32.4580550  69.7171510
   7.4936500  31.1247960  70.4214680  17.6542320  17.3438510  54.0282860
  17.3414980  17.4365340  54.9281930  18.4154790  17.9219540  53.9780290
   4.1724460  24.7098310  58.4860200   4.0522060  25.4360400  57.8741470
   3.8625350  23.9401220  58.0088110  19.6086350  32.8364700  71.8807250
  20.0846070  33.3147590  72.5596330  20.2293510  32.7682190  71.1552750
   1.8109830  27.8813450  64.2928840   1.8890250  28.0162220  63.3484560
   2.4251510  27.1729340  64.4856960   3.0557460  29.5813640  60.7035020
   2.6485540  29.7228230  59.8488620   3.9470470  29.2973800  60.5006230
  19.0119600  30.0277550  69.0407260  19.1382660  29.7889430  68.1224440
  19.0540980  29.1962090  69.5129340  12.8736340  33.7305550  67.6102070
  13.3881010  33.6413560  68.4124500  12.0305420  34.0765250  67.9029980
  14.8490740  34.0160890  57.0386070  14.6891880  33.7263830  57.9367900
  14.6837450  33.2401020  56.5031300   7.3279120  33.7959420  58.8157690
   7.1521600  32.8794960  58.6025490   6.4734860  34.1546710  59.0555490
  14.5516870  31.5248450  55.5984070  13.8582030  31.5225740  54.9386350
  15.2939730  31.1007770  55.1678240  14.1166800  33.1511160  59.6732560
  14.5723750  32.3700540  59.9871180  14.4559320  33.8617980  60.2173740
  18.8643610  22.0810010  70.0057000  18.2487880  22.5889680  69.4772460
  18.5440030  21.1808340  69.9482940   1.8669350  28.9227620  66.8323300
   2.0300390  28.4532980  66.0142670   2.3321800  28.4151180  67.4972140
   6.6388120  18.0533380  61.8683870   6.1956270  18.8342920  61.5368390
   7.1973110  18.3763270  62.5754810  10.9257930  20.9201900  67.4719190
  10.4637300  21.1284920  68.2839130  10.5236040  20.1061250  67.1689860
  15.9262440  22.1410850  68.6015850  15.0756030  21.8416600  68.9224920
  15.7664230  22.3852860  67.6899670  13.0212150  23.6412600  70.7014640
  13.3465560  22.8076350  70.3616870  13.8092480  24.1641120  70.8492970
   9.7546940  17.6744080  56.7489700   9.1301120  17.6703950  57.4743010
   9.6677060  16.8075040  56.3525670   8.6764020  18.5980710  63.7273470
   8.9736350  19.5043540  63.6465490   9.2249580  18.1099490  63.1133040
   6.4302340  23.1766950  59.5965120   6.2043260  22.9604120  60.5011740
   5.6494870  23.6095410  59.2511090  13.6600100  23.1830320  58.1955770
  13.0608990  23.9066120  58.0119390  14.2079710  23.1207100  57.4132220
   8.8701550  24.0752530  70.2625390   8.7745150  23.1347260  70.1125790
   9.7133530  24.2967600  69.8673460  12.2664970  21.8193860  60.2259050
  12.6594540  22.1366060  59.4127740  12.6281820  20.9405740  60.3403570
   4.0012090  20.4866200  68.4159170   3.6075480  21.3341410  68.6231950
   3.3130490  19.8492570  68.6067810  10.5757140  20.5701170  71.4855910
   9.8855460  20.3773370  72.1202000  11.3189440  20.8535810  72.0180210
  12.8520110  24.4099610  64.3209830  12.1201230  24.9186420  64.6699930
  12.4544450  23.5929590  64.0198610   9.2897500  21.0853810  62.7262320
   9.2933560  20.6443760  61.8766860  10.1848620  21.4071140  62.8334140
   5.1399880  20.9680300  61.6856530   4.7999930  21.4455530  62.4423580
   4.3777200  20.5145420  61.3257630   9.3517650  22.0865890  55.7169080
   9.4730470  22.0452370  56.6654900   8.9666160  22.9490040  55.5615810
  13.3146020  19.8633290  63.7332770  13.3318760  20.3141940  64.5774620
  13.0661600  18.9638930  63.9466210   8.3639150  24.3967030  55.1152380
   7.7956050  23.9485280  54.4888290   9.0728150  24.7559810  54.5817530
  16.7416770  17.2765470  69.5719150  17.0662540  16.5455130  70.0977130
  16.7773280  16.9579110  68.6700140   3.4408330  28.2979050  68.9919110
   3.0563120  27.6572720  69.5902070   3.7520520  29.0015170  69.5613840
   9.5905470  25.1455590  64.4727730   9.9575600  24.6714160  65.2189070
   9.4010530  26.0197160  64.8136070   2.4545960  19.8899280  60.6021200
   2.1692880  19.5254950  61.4399820   2.3924820  19.1579740  59.9884340
   7.3804840  24.1864230  66.7911940   7.0761910  25.0656210  67.0162300
   8.3351300  24.2464020  66.8269380   5.9086630  28.3925220  57.3878790
   5.1348890  27.8522840  57.2277510   6.6381260  27.8731830  57.0496550
  16.6674610  27.3890580  63.1805180  17.3873730  27.8845870  62.7901290
  16.4656430  26.7108470  62.5359050  12.1284550  18.7828540  57.3234570
  11.3149160  18.2841710  57.2479880  11.9346500  19.6226790  56.9070920
  12.0493410  27.4599640  69.0674180  11.9830720  26.5395310  68.8131770
  11.4198550  27.5575080  69.7818820  14.8432940  23.1548190  55.6196730
  15.7312560  23.4665420  55.4448070  14.8138030  22.2820440  55.2277310
   5.9524030  28.0605600  61.0257600   6.4702700  27.2573860  60.9714490
   5.5008050  27.9984740  61.8674430  10.8393530  29.3271880  56.2984900
  11.1809230  30.0714110  55.8028220  10.0106240  29.6403000  56.6609730
   3.4368570  25.0266970  67.9383300   3.0783510  25.6920820  68.5256640
   3.1423130  24.1950520  68.3095920   6.6381690  25.4851210  70.8222850
   6.3381830  25.6308390  69.9250670   7.4092930  24.9256500  70.7296240
  11.9810140  30.2820210  68.8177980  11.9954680  29.3501170  68.5996890
  11.2735240  30.3679970  69.4567750  17.1147210  24.4660030  55.0876590
  17.0310930  24.8974250  54.2373030  17.8341400  24.9258380  55.5203410
  18.1921350  26.9227550  68.1646560  17.4669540  27.5156330  67.9675950
  18.7196810  26.9151090  67.3659930  18.1434460  31.3202290  57.8158720
  17.5010620  30.6657910  58.0902440  17.7565120  31.7257380  57.0399390
  13.7220940  28.6487720  61.6630410  14.0744760  28.0515850  61.0031780
  12.8383270  28.3231950  61.8338660   9.8084220  29.4085410  59.0700820
  10.4955350  29.9554620  59.4508410   9.0216640  29.9526140  59.1050430
   9.1111430  26.4131440  58.6826180   9.5674210  27.2236690  58.9086370
   8.7599640  26.0954580  59.5144670  11.4144040  31.9237780  65.9118480
  12.0586260  32.1297160  66.5891900  11.7773480  31.1626180  65.4589330
   5.0123210  16.7569090  59.1548700   4.8837840  16.7486990  60.1033620
   4.1885230  17.0952180  58.8039710  12.6876120  29.9270130  64.6295930
  13.3298350  29.2263290  64.7428100  13.2125470  30.7068570  64.4492820
  16.5331840  30.2118750  54.3535070  16.3069420  29.4949190  54.9459710
  16.1428040  29.9631190  53.5156820  14.4613740  30.7265030  67.8331990
  14.7969980  31.3131720  68.5109910  13.5414080  30.5957740  68.0629780
   2.3147870  34.2385610  55.1279530   2.6745510  34.8374950  54.4736800
   2.1740210  34.7845500  55.9014560  16.1148090  28.1290690  56.0149230
  15.8269790  28.5903380  56.8027110  16.9100260  27.6688460  56.2833450
   2.2989730  32.5040470  69.6021930   2.4080850  31.5635210  69.4617320
   1.6470290  32.7695220  68.9535660  10.2902320  30.7756360  71.0020050
   9.9699190  30.0565600  71.5465740   9.6160680  31.4511430  71.0756110
   8.3316490  31.6216810  55.9453200   8.3226590  32.3546500  55.3297710
   7.4114850  31.3748390  56.0380160   3.9323130  26.8431700  56.6899960
   3.3251080  27.5830600  56.6995260   4.4072480  26.9331060  55.8638160
  13.5055920  21.0082520  66.3656850  13.8736740  20.1877730  66.6936420
  12.6454120  21.0684410  66.7812500  16.8717950  19.9639460  57.1744410
  16.2431110  20.0685130  56.4602640  16.3769870  20.1836240  57.9638290
  11.3176090  31.6845050  54.6078390  11.4188070  31.4809040  53.6780370
  10.4177830  31.4303330  54.8126170   8.8401980  22.2425410  58.5902290
   8.1318130  22.7111750  59.0315900   9.1246460  21.5847420  59.2247480
  10.4657910  23.6622110  66.5894820  10.9643160  24.1367930  67.2546670
  10.6080860  22.7385630  66.7964850  12.8717410  18.9676070  60.0298080
  12.7485190  18.9862200  59.0807590  13.8201970  19.0155010  60.1496480
   9.9594200  34.2031370  59.3026060  10.2135700  34.1652760  58.3805430
   9.0106680  34.0764700  59.2954310   7.0437000  20.5510490  55.9653000
   7.8927530  20.9880640  55.8993190   6.6768270  20.8630750  56.7925060
  17.6724770  19.8790070  67.4323210  17.1698370  20.6195470  67.7717020
  18.4881430  20.2674070  67.1160000  15.9646780  25.1223250  60.8784570
  15.0236920  25.1373480  61.0532260  16.2790850  24.3359210  61.3244870
   5.9428420  26.8042850  54.4388530   6.7091690  26.6924210  55.0013960
   6.0203110  26.1080820  53.7865300   4.6375180  24.2367920  55.1221420
   4.7178770  23.2895430  55.2338820   5.5294930  24.5674800  55.2282080
  17.9672360  32.2932100  62.5538830  18.0919780  33.1163270  63.0262640
  18.8337920  32.0822830  62.2062980   5.4389890  34.3863310  62.2255960
   6.1752370  33.8378770  62.4964530   5.8230810  35.2519320  62.0861950
   4.4448170  33.5709380  71.4141540   5.2460900  33.8921430  71.8276940
   3.9299990  33.2104960  72.1361450   8.5492200  33.5593620  54.0481530
   9.3420810  33.8482450  53.5963320   8.0296550  33.1285790  53.3694010
  13.2812800  29.6789250  71.3616950  12.6750960  29.7020850  70.6212700
  12.9766910  28.9472290  71.8984200  14.7113170  33.4069540  69.9726360
  15.6634920  33.3227560  69.9226600  14.5641390  34.0711250  70.6460150
  17.6022370  32.7863750  55.4718270  17.3163880  32.3728890  54.6572450
  17.4041920  33.7151460  55.3518790   9.0669600  28.7797030  53.9123880
   8.9620240  28.1649380  54.6385260   8.8993820  28.2562920  53.1286890
   9.2183920  27.4653830  69.8913110   8.4529590  28.0338830  69.8067780
   9.3999880  27.1730040  68.9981340  12.3072330  27.8417060  54.5165870
  11.7582430  28.2886360  55.1608610  12.9291590  27.3366310  55.0403540
  16.3607270  29.1959160  70.4488130  17.1016740  29.5334920  69.9455590
  15.5979950  29.3651220  69.8957900   4.1969060  24.2012430  71.2527660
   4.2374400  23.9026300  72.1612890   5.0514560  24.6020040  71.0935180
   7.9747450  26.8007980  56.4131170   8.3963870  26.6347850  57.2562560
   8.0998290  25.9908210  55.9186310   6.1374870  22.7804530  69.2202150
   5.6071330  22.2895480  68.5925490   6.8062940  23.2088730  68.6860080
  10.4875090  25.8245590  53.6608270  11.0080750  25.1094610  53.2949420
  11.1343490  26.4631460  53.9608780  15.0352930  27.2473990  68.9843340
  15.4493950  27.4019070  69.8333760  14.1003930  27.3729210  69.1469120
  15.5075100  24.5870150  70.9882490  16.0895870  23.8322470  70.9002970
  15.6836870  25.1177590  70.2113970   6.6247170  19.7466900  69.2999440
   6.5304040  19.1287650  68.5750310   6.0444560  20.4733190  69.0729350
   9.3908610  18.3040140  66.3326830   8.9425910  18.3264400  65.4872380
   8.7573810  17.9059160  66.9297130   9.7968160  27.1994470  66.9539270
  10.2156270  28.0427200  66.7815510   8.8776790  27.3366510  66.7246050
  12.1332060  24.9310650  68.3377110  12.2528270  24.3351790  69.0771950
  12.9926060  24.9680340  67.9178410  14.4719960  25.4847840  66.9139620
  13.9455180  26.0090460  66.3104760  14.8151300  26.1175230  67.5449350
   6.8706350  22.8741210  53.3589330   6.6695410  22.0108570  53.7202670
   6.6998400  22.7874570  52.4210930   7.6475580  33.5047480  68.0697000
   7.1096670  34.2293540  67.7505700   7.9009540  33.0277820  67.2794340
   8.9000830  21.4732000  69.5952930   9.4900520  21.1647850  70.2830750
   8.0821070  21.0011750  69.7512830  13.7194260  21.0897810  69.8285950
  13.0309780  20.4279350  69.7635940  14.4400280  20.6436080  70.2734410
  14.3494660  17.6849440  55.8876210  14.6296950  16.8417340  56.2435630
  13.5760390  17.9172550  56.4014960   5.6689150  19.9741830  53.3467210
   5.9715050  19.9809260  52.4386360   6.4083740  19.6239690  53.8434870
  10.5037790  34.7398690  68.3283650  10.4296490  35.6433830  68.6356020
   9.6016630  34.4210590  68.3005720   8.8874080  18.9176450  54.3323410
   8.5396080  18.2400440  53.7525860   9.0886850  18.4565960  55.1466800
  11.0523120  33.9057200  55.9510010  11.9473910  34.2442170  55.9728770
  11.0840750  33.1836610  55.3234290   4.6919280  29.2784250  54.1797010
   5.1294150  29.8213920  54.8354590   5.1767010  28.4531200  54.1893350
   1.9065080  32.0673280  61.6317270   2.2368090  31.1994340  61.3995910
   2.3356080  32.2731800  62.4622230   6.5027000  30.3982290  59.2919240
   6.2022540  30.2747260  60.1923150   6.3964490  29.5390880  58.8834970
   2.3955290  32.9343870  64.3698900   1.9586280  33.1144670  65.2023050
   2.9632970  33.6918490  64.2280620  18.0317470  32.4360870  68.6576210
  17.4319460  32.4953430  67.9140130  18.1611370  31.4965850  68.7873060
  19.2718920  30.1778690  53.9945920  18.4411880  30.2455340  54.4653150
  19.4490750  31.0682810  53.6912780  18.7275380  26.9226170  56.4980120
  19.4894290  27.4922820  56.6039810  18.7429750  26.3553370  57.2688430
   2.2279720  25.4464100  60.7287780   1.5728560  25.1775740  60.0847480
   3.0657670  25.3368580  60.2789760  19.7335350  27.7776270  61.3422050
  20.1044180  26.9943590  60.9358020  20.3737280  28.4665370  61.1639350
  16.7169110  29.1612850  66.7552370  15.9028950  29.5910010  67.0178160
  17.1243310  29.7731260  66.1421420  18.7794550  27.2160540  53.6552640
  19.0543390  28.1239420  53.5271860  18.5905290  27.1523070  54.5914630
  15.1770160  20.2405390  54.9506270  15.5955040  20.0536370  54.1102930
  14.8706220  19.3884440  55.2609200  18.6759890  25.1529530  58.6482070
  18.3003490  24.3857460  58.2163360  17.9463010  25.5352230  59.1357000
   3.2655650  25.8316670  65.2691120   3.6328690  25.7444070  66.1487140
   2.6966470  25.0683220  65.1697980  18.0659510  24.3001050  68.2821590
  17.8345600  24.0713800  67.3819540  18.3264060  25.2200600  68.2366480
   2.8171650  22.7425760  69.1749540   1.9227700  22.7092520  69.5143250
   3.3569200  22.9412550  69.9400790  16.5047580  19.5257480  71.0601290
  17.3817760  19.5340880  71.4435290  16.5168420  18.7888320  70.4493640
  17.9510850  23.3787020  61.9489310  18.4748330  22.8849670  61.3179480
  18.5370270  23.5137380  62.6936880  18.1300570  23.4626890  65.4708860
  17.1803280  23.4290430  65.5853850  18.3113580  24.3727000  65.2358630
   3.9845010  21.7128570  54.5807490   4.6936710  21.2911790  54.0954770
   3.2684950  21.7803800  53.9490840   3.6319170  17.7667900  53.6210140
   4.3547300  18.3076840  53.9391360   3.9043690  17.4931320  52.7451680
  17.4410820  22.6360370  57.8881720  17.9369940  22.4031240  58.6730600
  17.2426890  21.7972210  57.4719360   3.3211360  17.0174090  63.5232760
   3.9687550  16.4671470  63.0827920   3.7413200  17.2717240  64.3448570
  18.8697980  21.2721320  60.4219400  18.7597260  21.1177360  61.3601670
  19.6305570  20.7442260  60.1794810  17.2163700  17.2115450  66.8802400
  17.8535920  17.8249590  67.2461590  17.3638590  17.2476110  65.9351630
  19.7588250  19.1029240  53.6625540  20.6837560  18.9710420  53.4543830
  19.7364040  19.1822060  54.6161990  19.8326740  19.8739900  56.2882250
  19.0378240  19.8085020  56.8175160  20.0370020  20.8090540  56.2767600
  16.7745160  33.9131450  60.2820640  17.3704230  33.5916020  59.6055060
  17.0323310  33.4403270  61.0733910   3.0743360  17.1729760  66.2658080
   2.7258180  17.6293580  67.0316260   2.7431060  16.2786890  66.3480510
   4.6807730  30.3449360  70.4311270   4.6377360  29.9742270  71.3125730
   4.8118740  31.2826930  70.5713090   8.3813760  31.9008950  66.0320990
   8.1405120  32.1683510  65.1451510   9.3216400  32.0714680  66.0871850
  10.5868180  18.3641640  69.7877500  10.5257070  18.9563470  70.5372910
  11.5268560  18.2567600  69.6427760  13.2242740  18.0211700  69.4269790
  13.8383150  18.3390990  68.7650870  13.7692300  17.5360290  70.0465650
  19.6417920  33.9203330  66.8331630  19.1476200  34.3172200  66.1158760
  19.0331210  33.2952540  67.2268910   3.7464000  16.7005960  69.5408850
   4.2946990  16.5194010  68.7774960   3.8119310  15.9100070  70.0765160
   4.5195760  33.2911610  67.5509050   3.9256080  33.1596310  68.2899090
   4.5119600  32.4549750  67.0851150  13.9650780  16.5843840  65.7539080
  13.0910620  16.9178950  65.5512010  13.8561530  16.1117020  66.5790950
  14.8722760  18.7914710  67.1380800  14.5436120  17.9766470  66.7582530
  15.8205060  18.7484520  67.0146490  17.3257370  34.5626750  64.1118370
  16.8660340  35.3142560  63.7376390  16.6969830  33.8433220  64.0533170
   4.1507990  30.6569990  66.5017090   3.4242050  30.0375280  66.4343040
   4.2117140  31.0510600  65.6315170   7.7553090  32.8714990  63.2866500
   8.2718110  32.2602350  62.7614760   8.4050470  33.3743770  63.7777510
  10.4948590  33.7623480  64.1135480  10.7826400  33.5077780  63.2368490
  11.0071810  33.2100840  64.7041050  11.7125600  17.5013680  64.6931990
  10.9297390  17.9759180  64.9728750  11.4188530  16.5968510  64.5845170
  16.2646670  18.2036780  62.7381080  16.7054760  18.1481880  61.8902680
  15.9954260  19.1194790  62.8091260  18.1285240  17.8352020  60.7489900
  18.0673640  16.8913240  60.6020920  18.9077270  17.9432110  61.2943360
   2.4337990  33.9744380  59.7113850   2.2660030  33.3415060  60.4095740
   1.5672500  34.1803780  59.3608040   3.0566010  17.8061160  57.2145710
   3.8145370  17.9190040  56.6409740   2.5943180  18.6430360  57.1689140
   9.5979820  19.9200430  60.2048020   8.7854330  19.5457320  59.8643900
  10.1021460  19.1645510  60.5069210  14.1004800  16.5842880  61.4431090
  14.7034170  17.1563090  61.9179610  13.3597790  17.1482320  61.2204990
  17.2439400  16.9864440  56.7171370  17.4390030  17.8847890  56.9838800
  16.4569270  16.7551520  57.2104320   4.0400690  32.6677610  57.1563990
   3.5148310  33.0485640  56.4525950   3.9645270  33.2928380  57.8773700
   5.4291160  18.3325210  55.7547680   5.9583920  17.5455010  55.6255630
   6.0619480  19.0116400  55.9883210   7.6229000  18.0700350  58.8093070
   6.9931740  17.3687660  58.9763200   7.0834140  18.8304480  58.5926230
  10.5620950  34.6839580  71.4803680  11.4888260  34.4483850  71.5239640
  10.5471380  35.5111580  70.9989710  18.7966010  34.2265150  58.4777930
  18.9718200  33.5402890  57.8338850  18.0987580  34.7512200  58.0854600
   7.7484560  17.3484330  71.2445560   7.4668830  17.8517930  70.4806380
   8.1304260  16.5506080  70.8787690   6.6393660  34.6159990  56.0313240
   7.3712480  34.3319270  55.4837130   6.8987330  34.3773270  56.9212620
   5.8008450  30.7324720  56.0359570   5.1717330  31.2009820  56.5845400
   5.9156280  29.8873940  56.4705760  14.3500020  16.7637910  71.8226030
  14.2365470  17.0832520  72.7177550  15.1669760  17.1650420  71.5263310
  17.1298510  33.9109440  71.3044720  17.9223830  33.4158670  71.0970680
  17.4231660  34.5899580  71.9120330  13.2558170  24.7830380  42.1860770
  13.1752220  23.8684990  41.9152480  12.8422590  25.2797450  41.4800480
  11.3876210  26.5609400  44.0670040  10.6118310  26.0809840  44.3568610
  12.0389140  25.8815050  43.8926200   5.4042040  26.8729210  44.9445800
   4.5726920  26.6177920  45.3442310   6.0123020  26.9439980  45.6803720
  15.4083640  30.9669590  42.8469170  14.9465170  30.1956830  43.1756340
  16.2209190  30.9935660  43.3521620   5.3843300  30.9069300  45.1403820
   5.6871340  30.0167040  44.9614040   6.1286890  31.4639520  44.9126070
   3.8133990  21.8331100  38.7288190   2.9250690  22.1747070  38.6268070
   4.0975180  21.6331420  37.8369020   1.7767000  24.4336750  44.6127890
   2.3483110  23.6658950  44.6131530   1.7768540  24.7325510  43.7034500
  11.6346950  33.2527600  42.4673160  11.0158390  33.7085100  41.8967600
  12.4898730  33.4079060  42.0662860  10.8285200  29.2366590  44.0740200
  10.7593480  28.2956530  43.9129330  11.5905060  29.3268000  44.6462770
   3.0191870  19.8421110  46.3996820   2.8394710  18.9446860  46.6799580
   2.6171950  20.3892980  47.0743770  11.8590370  22.0436970  44.3009130
  12.2355190  21.1708850  44.1882800  11.7609880  22.3795670  43.4099570
   5.9895380  20.4162600  39.7626570   6.0962130  21.3166330  40.0695330
   5.0787740  20.3680570  39.4721220  15.6414490  19.5387410  41.2337470
  16.4624110  19.0483980  41.2762950  15.6748570  20.1285070  41.9869310
   3.6378540  22.3381610  45.0079160   4.3188650  22.6019980  45.6266560
   3.3226590  21.4982480  45.3417170   7.8303110  23.3848970  44.0951750
   8.3381330  23.8829940  44.7356770   8.3616350  22.6084170  43.9191110
  19.9314040  21.5554160  47.7981100  19.2266210  21.9435870  47.2796210
  20.1971960  22.2504450  48.4002030   6.1139210  18.0247530  48.3615170
   6.1157650  18.5419920  47.5561070   5.2843520  17.5477710  48.3385100
  12.5010300  28.1366840  39.8605070  11.8827570  28.6016290  39.2967790
  13.0133550  28.8294320  40.2774580   7.3642060  27.6642710  46.5388670
   7.0311440  28.2911630  47.1809740   7.5408740  28.1904590  45.7590340
  15.8775970  21.4787790  44.0065010  15.1731540  21.7672680  44.5868120
  16.2388130  22.2887900  43.6464570   5.7954540  19.7357490  46.3685620
   6.1371350  20.5799540  46.0739490   4.8570350  19.8841230  46.4850960
   6.5761160  29.6323510  48.3537850   7.1935160  30.3074590  48.0722300
   5.7154280  30.0411490  48.2625350  17.4938750  31.0962920  46.2692490
  16.8102270  31.7662030  46.2609160  18.0333040  31.2943570  45.5037350
  18.9462890  20.9242580  44.3974220  17.9987800  20.9581560  44.5289650
  19.2712880  21.7381530  44.7823580   9.4782430  17.2239760  42.6930210
   9.7857410  16.6686650  41.9765710   8.5483130  17.3584220  42.5103200
  15.0297490  32.9407050  44.9837670  15.0424650  32.5369340  44.1159930
  14.4772710  33.7154340  44.8799100  16.3242910  29.6623270  40.0727840
  16.2139240  28.7197600  40.1977260  16.3211160  30.0238910  40.9590600
  14.4282930  27.8436890  46.3120280  14.8451720  27.6297000  45.4773740
  15.1522750  28.1009680  46.8828900  11.8663190  25.2888590  39.4290330
  10.9392470  25.2225970  39.6578800  12.0188010  26.2268720  39.3145570
  11.8532270  21.5605590  36.4257490  10.9135940  21.7219550  36.5109950
  12.1715530  22.2791270  35.8793480  18.3745030  26.2424110  46.4036520
  17.5463660  26.3117200  45.9286650  18.9695510  26.8278420  45.9352350
  15.8960480  26.8508890  39.9325580  15.2772900  26.5128440  39.2851880
  15.8784930  26.2068650  40.6404770  15.3387040  23.0293430  47.3491390
  14.9258220  23.8547140  47.6031380  14.6062990  22.4438470  47.1567750
   7.4719830  25.8153330  42.2110060   7.0676830  25.1030580  41.7155960
   7.5582950  25.4706570  43.0998100   7.9401530  29.5020890  44.3749270
   7.6429820  28.8966360  43.6957050   8.8901350  29.5398200  44.2638630
   6.1848450  22.5896540  45.9909100   6.7363040  22.6991880  45.2162350
   6.6991960  22.9634140  46.7064330  16.0287140  33.0752760  48.0372370
  15.5517700  33.8824950  47.8444980  15.3448930  32.4231090  48.1898580
   7.0319960  29.2402580  51.0257070   6.1348490  29.4642550  51.2730470
   7.0572830  29.3637520  50.0768470  14.0725180  26.0895700  36.9398330
  14.5118460  25.2518130  36.7936150  14.7853600  26.7225100  37.0262470
   5.8591180  26.1115900  49.6014440   5.7198950  26.9838700  49.9701840
   4.9772540  25.7688710  49.4562380  12.1820560  31.0291770  40.9079570
  12.6216470  31.7716100  40.4934960  12.1207450  31.2718340  41.8318530
   7.6571530  32.0537600  51.8099590   7.6286960  32.4580550  50.9428020
   7.4936500  31.1247960  51.6471190  17.6542320  17.3438510  35.2539370
  17.3414980  17.4365340  36.1538440  18.4154790  17.9219540  35.2036800
   4.1724460  24.7098310  39.7116710   4.0522060  25.4360400  39.0997980
   3.8625350  23.9401220  39.2344620  19.6086350  32.8364700  53.1063760
  20.0846070  33.3147590  53.7852840  20.2293510  32.7682190  52.3809260
   1.8109830  27.8813450  45.5185350   1.8890250  28.0162220  44.5741070
   2.4251510  27.1729340  45.7113470   3.0557460  29.5813640  41.9291530
   2.6485540  29.7228230  41.0745130   3.9470470  29.2973800  41.7262740
  19.0119600  30.0277550  50.2663770  19.1382660  29.7889430  49.3480950
  19.0540980  29.1962090  50.7385850  12.8736340  33.7305550  48.8358580
  13.3881010  33.6413560  49.6381010  12.0305420  34.0765250  49.1286490
  14.8490740  34.0160890  38.2642580  14.6891880  33.7263830  39.1624410
  14.6837450  33.2401020  37.7287810   7.3279120  33.7959420  40.0414200
   7.1521600  32.8794960  39.8282000   6.4734860  34.1546710  40.2812000
  14.5516870  31.5248450  36.8240580  13.8582030  31.5225740  36.1642860
  15.2939730  31.1007770  36.3934750  14.1166800  33.1511160  40.8989070
  14.5723750  32.3700540  41.2127690  14.4559320  33.8617980  41.4430250
  18.8643610  22.0810010  51.2313510  18.2487880  22.5889680  50.7028970
  18.5440030  21.1808340  51.1739450   1.8669350  28.9227620  48.0579810
   2.0300390  28.4532980  47.2399180   2.3321800  28.4151180  48.7228650
   6.6388120  18.0533380  43.0940380   6.1956270  18.8342920  42.7624900
   7.1973110  18.3763270  43.8011320  10.9257930  20.9201900  48.6975700
  10.4637300  21.1284920  49.5095640  10.5236040  20.1061250  48.3946370
  15.9262440  22.1410850  49.8272360  15.0756030  21.8416600  50.1481430
  15.7664230  22.3852860  48.9156180  13.0212150  23.6412600  51.9271150
  13.3465560  22.8076350  51.5873380  13.8092480  24.1641120  52.0749480
   9.7546940  17.6744080  37.9746210   9.1301120  17.6703950  38.6999520
   9.6677060  16.8075040  37.5782180   8.6764020  18.5980710  44.9529980
   8.9736350  19.5043540  44.8722000   9.2249580  18.1099490  44.3389550
   6.4302340  23.1766950  40.8221630   6.2043260  22.9604120  41.7268250
   5.6494870  23.6095410  40.4767600  13.6600100  23.1830320  39.4212280
  13.0608990  23.9066120  39.2375900  14.2079710  23.1207100  38.6388730
   8.8701550  24.0752530  51.4881900   8.7745150  23.1347260  51.3382300
   9.7133530  24.2967600  51.0929970  12.2664970  21.8193860  41.4515560
  12.6594540  22.1366060  40.6384250  12.6281820  20.9405740  41.5660080
   4.0012090  20.4866200  49.6415680   3.6075480  21.3341410  49.8488460
   3.3130490  19.8492570  49.8324320  10.5757140  20.5701170  52.7112420
   9.8855460  20.3773370  53.3458510  11.3189440  20.8535810  53.2436720
  12.8520110  24.4099610  45.5466340  12.1201230  24.9186420  45.8956440
  12.4544450  23.5929590  45.2455120   9.2897500  21.0853810  43.9518830
   9.2933560  20.6443760  43.1023370  10.1848620  21.4071140  44.0590650
   5.1399880  20.9680300  42.9113040   4.7999930  21.4455530  43.6680090
   4.3777200  20.5145420  42.5514140   9.3517650  22.0865890  36.9425590
   9.4730470  22.0452370  37.8911410   8.9666160  22.9490040  36.7872320
  13.3146020  19.8633290  44.9589280  13.3318760  20.3141940  45.8031130
  13.0661600  18.9638930  45.1722720   8.3639150  24.3967030  36.3408890
   7.7956050  23.9485280  35.7144800   9.0728150  24.7559810  35.8074040
  16.7416770  17.2765470  50.7975660  17.0662540  16.5455130  51.3233640
  16.7773280  16.9579110  49.8956650   3.4408330  28.2979050  50.2175620
   3.0563120  27.6572720  50.8158580   3.7520520  29.0015170  50.7870350
   9.5905470  25.1455590  45.6984240   9.9575600  24.6714160  46.4445580
   9.4010530  26.0197160  46.0392580   2.4545960  19.8899280  41.8277710
   2.1692880  19.5254950  42.6656330   2.3924820  19.1579740  41.2140850
   7.3804840  24.1864230  48.0168450   7.0761910  25.0656210  48.2418810
   8.3351300  24.2464020  48.0525890   5.9086630  28.3925220  38.6135300
   5.1348890  27.8522840  38.4534020   6.6381260  27.8731830  38.2753060
  16.6674610  27.3890580  44.4061690  17.3873730  27.8845870  44.0157800
  16.4656430  26.7108470  43.7615560  12.1284550  18.7828540  38.5491080
  11.3149160  18.2841710  38.4736390  11.9346500  19.6226790  38.1327430
  12.0493410  27.4599640  50.2930690  11.9830720  26.5395310  50.0388280
  11.4198550  27.5575080  51.0075330  14.8432940  23.1548190  36.8453240
  15.7312560  23.4665420  36.6704580  14.8138030  22.2820440  36.4533820
   5.9524030  28.0605600  42.2514110   6.4702700  27.2573860  42.1971000
   5.5008050  27.9984740  43.0930940  10.8393530  29.3271880  37.5241410
  11.1809230  30.0714110  37.0284730  10.0106240  29.6403000  37.8866240
   3.4368570  25.0266970  49.1639810   3.0783510  25.6920820  49.7513150
   3.1423130  24.1950520  49.5352430   6.6381690  25.4851210  52.0479360
   6.3381830  25.6308390  51.1507180   7.4092930  24.9256500  51.9552750
  11.9810140  30.2820210  50.0434490  11.9954680  29.3501170  49.8253400
  11.2735240  30.3679970  50.6824260  17.1147210  24.4660030  36.3133100
  17.0310930  24.8974250  35.4629540  17.8341400  24.9258380  36.7459920
  18.1921350  26.9227550  49.3903070  17.4669540  27.5156330  49.1932460
  18.7196810  26.9151090  48.5916440  18.1434460  31.3202290  39.0415230
  17.5010620  30.6657910  39.3158950  17.7565120  31.7257380  38.2655900
  13.7220940  28.6487720  42.8886920  14.0744760  28.0515850  42.2288290
  12.8383270  28.3231950  43.0595170   9.8084220  29.4085410  40.2957330
  10.4955350  29.9554620  40.6764920   9.0216640  29.9526140  40.3306940
   9.1111430  26.4131440  39.9082690   9.5674210  27.2236690  40.1342880
   8.7599640  26.0954580  40.7401180  11.4144040  31.9237780  47.1374990
  12.0586260  32.1297160  47.8148410  11.7773480  31.1626180  46.6845840
   5.0123210  16.7569090  40.3805210   4.8837840  16.7486990  41.3290130
   4.1885230  17.0952180  40.0296220  12.6876120  29.9270130  45.8552440
  13.3298350  29.2263290  45.9684610  13.2125470  30.7068570  45.6749330
  16.5331840  30.2118750  35.5791580  16.3069420  29.4949190  36.1716220
  16.1428040  29.9631190  34.7413330  14.4613740  30.7265030  49.0588500
  14.7969980  31.3131720  49.7366420  13.5414080  30.5957740  49.2886290
   2.3147870  34.2385610  36.3536040   2.6745510  34.8374950  35.6993310
   2.1740210  34.7845500  37.1271070  16.1148090  28.1290690  37.2405740
  15.8269790  28.5903380  38.0283620  16.9100260  27.6688460  37.5089960
   2.2989730  32.5040470  50.8278440   2.4080850  31.5635210  50.6873830
   1.6470290  32.7695220  50.1792170  10.2902320  30.7756360  52.2276560
   9.9699190  30.0565600  52.7722250   9.6160680  31.4511430  52.3012620
   8.3316490  31.6216810  37.1709710   8.3226590  32.3546500  36.5554220
   7.4114850  31.3748390  37.2636670   3.9323130  26.8431700  37.9156470
   3.3251080  27.5830600  37.9251770   4.4072480  26.9331060  37.0894670
  13.5055920  21.0082520  47.5913360  13.8736740  20.1877730  47.9192930
  12.6454120  21.0684410  48.0069010  16.8717950  19.9639460  38.4000920
  16.2431110  20.0685130  37.6859150  16.3769870  20.1836240  39.1894800
  11.3176090  31.6845050  35.8334900  11.4188070  31.4809040  34.9036880
  10.4177830  31.4303330  36.0382680   8.8401980  22.2425410  39.8158800
   8.1318130  22.7111750  40.2572410   9.1246460  21.5847420  40.4503990
  10.4657910  23.6622110  47.8151330  10.9643160  24.1367930  48.4803180
  10.6080860  22.7385630  48.0221360  12.8717410  18.9676070  41.2554590
  12.7485190  18.9862200  40.3064100  13.8201970  19.0155010  41.3752990
   9.9594200  34.2031370  40.5282570  10.2135700  34.1652760  39.6061940
   9.0106680  34.0764700  40.5210820   7.0437000  20.5510490  37.1909510
   7.8927530  20.9880640  37.1249700   6.6768270  20.8630750  38.0181570
  17.6724770  19.8790070  48.6579720  17.1698370  20.6195470  48.9973530
  18.4881430  20.2674070  48.3416510  15.9646780  25.1223250  42.1041080
  15.0236920  25.1373480  42.2788770  16.2790850  24.3359210  42.5501380
   5.9428420  26.8042850  35.6645040   6.7091690  26.6924210  36.2270470
   6.0203110  26.1080820  35.0121810   4.6375180  24.2367920  36.3477930
   4.7178770  23.2895430  36.4595330   5.5294930  24.5674800  36.4538590
  17.9672360  32.2932100  43.7795340  18.0919780  33.1163270  44.2519150
  18.8337920  32.0822830  43.4319490   5.4389890  34.3863310  43.4512470
   6.1752370  33.8378770  43.7221040   5.8230810  35.2519320  43.3118460
   4.4448170  33.5709380  52.6398050   5.2460900  33.8921430  53.0533450
   3.9299990  33.2104960  53.3617960   8.5492200  33.5593620  35.2738040
   9.3420810  33.8482450  34.8219830   8.0296550  33.1285790  34.5950520
  13.2812800  29.6789250  52.5873460  12.6750960  29.7020850  51.8469210
  12.9766910  28.9472290  53.1240710  14.7113170  33.4069540  51.1982870
  15.6634920  33.3227560  51.1483110  14.5641390  34.0711250  51.8716660
  17.6022370  32.7863750  36.6974780  17.3163880  32.3728890  35.8828960
  17.4041920  33.7151460  36.5775300   9.0669600  28.7797030  35.1380390
   8.9620240  28.1649380  35.8641770   8.8993820  28.2562920  34.3543400
   9.2183920  27.4653830  51.1169620   8.4529590  28.0338830  51.0324290
   9.3999880  27.1730040  50.2237850  12.3072330  27.8417060  35.7422380
  11.7582430  28.2886360  36.3865120  12.9291590  27.3366310  36.2660050
  16.3607270  29.1959160  51.6744640  17.1016740  29.5334920  51.1712100
  15.5979950  29.3651220  51.1214410   4.1969060  24.2012430  52.4784170
   4.2374400  23.9026300  53.3869400   5.0514560  24.6020040  52.3191690
   7.9747450  26.8007980  37.6387680   8.3963870  26.6347850  38.4819070
   8.0998290  25.9908210  37.1442820   6.1374870  22.7804530  50.4458660
   5.6071330  22.2895480  49.8182000   6.8062940  23.2088730  49.9116590
  10.4875090  25.8245590  34.8864780  11.0080750  25.1094610  34.5205930
  11.1343490  26.4631460  35.1865290  15.0352930  27.2473990  50.2099850
  15.4493950  27.4019070  51.0590270  14.1003930  27.3729210  50.3725630
  15.5075100  24.5870150  52.2139000  16.0895870  23.8322470  52.1259480
  15.6836870  25.1177590  51.4370480   6.6247170  19.7466900  50.5255950
   6.5304040  19.1287650  49.8006820   6.0444560  20.4733190  50.2985860
   9.3908610  18.3040140  47.5583340   8.9425910  18.3264400  46.7128890
   8.7573810  17.9059160  48.1553640   9.7968160  27.1994470  48.1795780
  10.2156270  28.0427200  48.0072020   8.8776790  27.3366510  47.9502560
  12.1332060  24.9310650  49.5633620  12.2528270  24.3351790  50.3028460
  12.9926060  24.9680340  49.1434920  14.4719960  25.4847840  48.1396130
  13.9455180  26.0090460  47.5361270  14.8151300  26.1175230  48.7705860
   6.8706350  22.8741210  34.5845840   6.6695410  22.0108570  34.9459180
   6.6998400  22.7874570  33.6467440   7.6475580  33.5047480  49.2953510
   7.1096670  34.2293540  48.9762210   7.9009540  33.0277820  48.5050850
   8.9000830  21.4732000  50.8209440   9.4900520  21.1647850  51.5087260
   8.0821070  21.0011750  50.9769340  13.7194260  21.0897810  51.0542460
  13.0309780  20.4279350  50.9892450  14.4400280  20.6436080  51.4990920
  14.3494660  17.6849440  37.1132720  14.6296950  16.8417340  37.4692140
  13.5760390  17.9172550  37.6271470   5.6689150  19.9741830  34.5723720
   5.9715050  19.9809260  33.6642870   6.4083740  19.6239690  35.0691380
  10.5037790  34.7398690  49.5540160  10.4296490  35.6433830  49.8612530
   9.6016630  34.4210590  49.5262230   8.8874080  18.9176450  35.5579920
   8.5396080  18.2400440  34.9782370   9.0886850  18.4565960  36.3723310
  11.0523120  33.9057200  37.1766520  11.9473910  34.2442170  37.1985280
  11.0840750  33.1836610  36.5490800   4.6919280  29.2784250  35.4053520
   5.1294150  29.8213920  36.0611100   5.1767010  28.4531200  35.4149860
   1.9065080  32.0673280  42.8573780   2.2368090  31.1994340  42.6252420
   2.3356080  32.2731800  43.6878740   6.5027000  30.3982290  40.5175750
   6.2022540  30.2747260  41.4179660   6.3964490  29.5390880  40.1091480
   2.3955290  32.9343870  45.5955410   1.9586280  33.1144670  46.4279560
   2.9632970  33.6918490  45.4537130  18.0317470  32.4360870  49.8832720
  17.4319460  32.4953430  49.1396640  18.1611370  31.4965850  50.0129570
  19.2718920  30.1778690  35.2202430  18.4411880  30.2455340  35.6909660
  19.4490750  31.0682810  34.9169290  18.7275380  26.9226170  37.7236630
  19.4894290  27.4922820  37.8296320  18.7429750  26.3553370  38.4944940
   2.2279720  25.4464100  41.9544290   1.5728560  25.1775740  41.3103990
   3.0657670  25.3368580  41.5046270  19.7335350  27.7776270  42.5678560
  20.1044180  26.9943590  42.1614530  20.3737280  28.4665370  42.3895860
  16.7169110  29.1612850  47.9808880  15.9028950  29.5910010  48.2434670
  17.1243310  29.7731260  47.3677930  18.7794550  27.2160540  34.8809150
  19.0543390  28.1239420  34.7528370  18.5905290  27.1523070  35.8171140
  15.1770160  20.2405390  36.1762780  15.5955040  20.0536370  35.3359440
  14.8706220  19.3884440  36.4865710  18.6759890  25.1529530  39.8738580
  18.3003490  24.3857460  39.4419870  17.9463010  25.5352230  40.3613510
   3.2655650  25.8316670  46.4947630   3.6328690  25.7444070  47.3743650
   2.6966470  25.0683220  46.3954490  18.0659510  24.3001050  49.5078100
  17.8345600  24.0713800  48.6076050  18.3264060  25.2200600  49.4622990
   2.8171650  22.7425760  50.4006050   1.9227700  22.7092520  50.7399760
   3.3569200  22.9412550  51.1657300  16.5047580  19.5257480  52.2857800
  17.3817760  19.5340880  52.6691800  16.5168420  18.7888320  51.6750150
  17.9510850  23.3787020  43.1745820  18.4748330  22.8849670  42.5435990
  18.5370270  23.5137380  43.9193390  18.1300570  23.4626890  46.6965370
  17.1803280  23.4290430  46.8110360  18.3113580  24.3727000  46.4615140
   3.9845010  21.7128570  35.8064000   4.6936710  21.2911790  35.3211280
   3.2684950  21.7803800  35.1747350   3.6319170  17.7667900  34.8466650
   4.3547300  18.3076840  35.1647870   3.9043690  17.4931320  33.9708190
  17.4410820  22.6360370  39.1138230  17.9369940  22.4031240  39.8987110
  17.2426890  21.7972210  38.6975870   3.3211360  17.0174090  44.7489270
   3.9687550  16.4671470  44.3084430   3.7413200  17.2717240  45.5705080
  18.8697980  21.2721320  41.6475910  18.7597260  21.1177360  42.5858180
  19.6305570  20.7442260  41.4051320  17.2163700  17.2115450  48.1058910
  17.8535920  17.8249590  48.4718100  17.3638590  17.2476110  47.1608140
  19.7588250  19.1029240  34.8882050  20.6837560  18.9710420  34.6800340
  19.7364040  19.1822060  35.8418500  19.8326740  19.8739900  37.5138760
  19.0378240  19.8085020  38.0431670  20.0370020  20.8090540  37.5024110
  16.7745160  33.9131450  41.5077150  17.3704230  33.5916020  40.8311570
  17.0323310  33.4403270  42.2990420   3.0743360  17.1729760  47.4914590
   2.7258180  17.6293580  48.2572770   2.7431060  16.2786890  47.5737020
   4.6807730  30.3449360  51.6567780   4.6377360  29.9742270  52.5382240
   4.8118740  31.2826930  51.7969600   8.3813760  31.9008950  47.2577500
   8.1405120  32.1683510  46.3708020   9.3216400  32.0714680  47.3128360
  10.5868180  18.3641640  51.0134010  10.5257070  18.9563470  51.7629420
  11.5268560  18.2567600  50.8684270  13.2242740  18.0211700  50.6526300
  13.8383150  18.3390990  49.9907380  13.7692300  17.5360290  51.2722160
  19.6417920  33.9203330  48.0588140  19.1476200  34.3172200  47.3415270
  19.0331210  33.2952540  48.4525420   3.7464000  16.7005960  50.7665360
   4.2946990  16.5194010  50.0031470   3.8119310  15.9100070  51.3021670
   4.5195760  33.2911610  48.7765560   3.9256080  33.1596310  49.5155600
   4.5119600  32.4549750  48.3107660  13.9650780  16.5843840  46.9795590
  13.0910620  16.9178950  46.7768520  13.8561530  16.1117020  47.8047460
  14.8722760  18.7914710  48.3637310  14.5436120  17.9766470  47.9839040
  15.8205060  18.7484520  48.2403000  17.3257370  34.5626750  45.3374880
  16.8660340  35.3142560  44.9632900  16.6969830  33.8433220  45.2789680
   4.1507990  30.6569990  47.7273600   3.4242050  30.0375280  47.6599550
   4.2117140  31.0510600  46.8571680   7.7553090  32.8714990  44.5123010
   8.2718110  32.2602350  43.9871270   8.4050470  33.3743770  45.0034020
  10.4948590  33.7623480  45.3391990  10.7826400  33.5077780  44.4625000
  11.0071810  33.2100840  45.9297560  11.7125600  17.5013680  45.9188500
  10.9297390  17.9759180  46.1985260  11.4188530  16.5968510  45.8101680
  16.2646670  18.2036780  43.9637590  16.7054760  18.1481880  43.1159190
  15.9954260  19.1194790  44.0347770  18.1285240  17.8352020  41.9746410
  18.0673640  16.8913240  41.8277430  18.9077270  17.9432110  42.5199870
   2.4337990  33.9744380  40.9370360   2.2660030  33.3415060  41.6352250
   1.5672500  34.1803780  40.5864550   3.0566010  17.8061160  38.4402220
   3.8145370  17.9190040  37.8666250   2.5943180  18.6430360  38.3945650
   9.5979820  19.9200430  41.4304530   8.7854330  19.5457320  41.0900410
  10.1021460  19.1645510  41.7325720  14.1004800  16.5842880  42.6687600
  14.7034170  17.1563090  43.1436120  13.3597790  17.1482320  42.4461500
  17.2439400  16.9864440  37.9427880  17.4390030  17.8847890  38.2095310
  16.4569270  16.7551520  38.4360830   4.0400690  32.6677610  38.3820500
   3.5148310  33.0485640  37.6782460   3.9645270  33.2928380  39.1030210
   5.4291160  18.3325210  36.9804190   5.9583920  17.5455010  36.8512140
   6.0619480  19.0116400  37.2139720   7.6229000  18.0700350  40.0349580
   6.9931740  17.3687660  40.2019710   7.0834140  18.8304480  39.8182740
  10.5620950  34.6839580  52.7060190  11.4888260  34.4483850  52.7496150
  10.5471380  35.5111580  52.2246220  18.7966010  34.2265150  39.7034440
  18.9718200  33.5402890  39.0595360  18.0987580  34.7512200  39.3111110
   7.7484560  17.3484330  52.4702070   7.4668830  17.8517930  51.7062890
   8.1304260  16.5506080  52.1044200   6.6393660  34.6159990  37.2569750
   7.3712480  34.3319270  36.7093640   6.8987330  34.3773270  38.1469130
   5.8008450  30.7324720  37.2616080   5.1717330  31.2009820  37.8101910
   5.9156280  29.8873940  37.6962270  14.3500020  16.7637910  53.0482540
  14.2365470  17.0832520  53.9434060  15.1669760  17.1650420  52.7519820
  17.1298510  33.9109440  52.5301230  17.9223830  33.4158670  52.3227190
  17.4231660  34.5899580  53.1376840  13.2558170  24.7830380  23.4117280
  13.1752220  23.8684990  23.1408990  12.8422590  25.2797450  22.7056990
  11.3876210  26.5609400  25.2926550  10.6118310  26.0809840  25.5825120
  12.0389140  25.8815050  25.1182710   5.4042040  26.8729210  26.1702310
   4.5726920  26.6177920  26.5698820   6.0123020  26.9439980  26.9060230
  15.4083640  30.9669590  24.0725680  14.9465170  30.1956830  24.4012850
  16.2209190  30.9935660  24.5778130   5.3843300  30.9069300  26.3660330
   5.6871340  30.0167040  26.1870550   6.1286890  31.4639520  26.1382580
   3.8133990  21.8331100  19.9544700   2.9250690  22.1747070  19.8524580
   4.0975180  21.6331420  19.0625530   1.7767000  24.4336750  25.8384400
   2.3483110  23.6658950  25.8388040   1.7768540  24.7325510  24.9291010
  11.6346950  33.2527600  23.6929670  11.0158390  33.7085100  23.1224110
  12.4898730  33.4079060  23.2919370  10.8285200  29.2366590  25.2996710
  10.7593480  28.2956530  25.1385840  11.5905060  29.3268000  25.8719280
   3.0191870  19.8421110  27.6253330   2.8394710  18.9446860  27.9056090
   2.6171950  20.3892980  28.3000280  11.8590370  22.0436970  25.5265640
  12.2355190  21.1708850  25.4139310  11.7609880  22.3795670  24.6356080
   5.9895380  20.4162600  20.9883080   6.0962130  21.3166330  21.2951840
   5.0787740  20.3680570  20.6977730  15.6414490  19.5387410  22.4593980
  16.4624110  19.0483980  22.5019460  15.6748570  20.1285070  23.2125820
   3.6378540  22.3381610  26.2335670   4.3188650  22.6019980  26.8523070
   3.3226590  21.4982480  26.5673680   7.8303110  23.3848970  25.3208260
   8.3381330  23.8829940  25.9613280   8.3616350  22.6084170  25.1447620
  19.9314040  21.5554160  29.0237610  19.2266210  21.9435870  28.5052720
  20.1971960  22.2504450  29.6258540   6.1139210  18.0247530  29.5871680
   6.1157650  18.5419920  28.7817580   5.2843520  17.5477710  29.5641610
  12.5010300  28.1366840  21.0861580  11.8827570  28.6016290  20.5224300
  13.0133550  28.8294320  21.5031090   7.3642060  27.6642710  27.7645180
   7.0311440  28.2911630  28.4066250   7.5408740  28.1904590  26.9846850
  15.8775970  21.4787790  25.2321520  15.1731540  21.7672680  25.8124630
  16.2388130  22.2887900  24.8721080   5.7954540  19.7357490  27.5942130
   6.1371350  20.5799540  27.2996000   4.8570350  19.8841230  27.7107470
   6.5761160  29.6323510  29.5794360   7.1935160  30.3074590  29.2978810
   5.7154280  30.0411490  29.4881860  17.4938750  31.0962920  27.4949000
  16.8102270  31.7662030  27.4865670  18.0333040  31.2943570  26.7293860
  18.9462890  20.9242580  25.6230730  17.9987800  20.9581560  25.7546160
  19.2712880  21.7381530  26.0080090   9.4782430  17.2239760  23.9186720
   9.7857410  16.6686650  23.2022220   8.5483130  17.3584220  23.7359710
  15.0297490  32.9407050  26.2094180  15.0424650  32.5369340  25.3416440
  14.4772710  33.7154340  26.1055610  16.3242910  29.6623270  21.2984350
  16.2139240  28.7197600  21.4233770  16.3211160  30.0238910  22.1847110
  14.4282930  27.8436890  27.5376790  14.8451720  27.6297000  26.7030250
  15.1522750  28.1009680  28.1085410  11.8663190  25.2888590  20.6546840
  10.9392470  25.2225970  20.8835310  12.0188010  26.2268720  20.5402080
  11.8532270  21.5605590  17.6514000  10.9135940  21.7219550  17.7366460
  12.1715530  22.2791270  17.1049990  18.3745030  26.2424110  27.6293030
  17.5463660  26.3117200  27.1543160  18.9695510  26.8278420  27.1608860
  15.8960480  26.8508890  21.1582090  15.2772900  26.5128440  20.5108390
  15.8784930  26.2068650  21.8661280  15.3387040  23.0293430  28.5747900
  14.9258220  23.8547140  28.8287890  14.6062990  22.4438470  28.3824260
   7.4719830  25.8153330  23.4366570   7.0676830  25.1030580  22.9412470
   7.5582950  25.4706570  24.3254610   7.9401530  29.5020890  25.6005780
   7.6429820  28.8966360  24.9213560   8.8901350  29.5398200  25.4895140
   6.1848450  22.5896540  27.2165610   6.7363040  22.6991880  26.4418860
   6.6991960  22.9634140  27.9320840  16.0287140  33.0752760  29.2628880
  15.5517700  33.8824950  29.0701490  15.3448930  32.4231090  29.4155090
   7.0319960  29.2402580  32.2513580   6.1348490  29.4642550  32.4986980
   7.0572830  29.3637520  31.3024980  14.0725180  26.0895700  18.1654840
  14.5118460  25.2518130  18.0192660  14.7853600  26.7225100  18.2518980
   5.8591180  26.1115900  30.8270950   5.7198950  26.9838700  31.1958350
   4.9772540  25.7688710  30.6818890  12.1820560  31.0291770  22.1336080
  12.6216470  31.7716100  21.7191470  12.1207450  31.2718340  23.0575040
   7.6571530  32.0537600  33.0356100   7.6286960  32.4580550  32.1684530
   7.4936500  31.1247960  32.8727700  17.6542320  17.3438510  16.4795880
  17.3414980  17.4365340  17.3794950  18.4154790  17.9219540  16.4293310
   4.1724460  24.7098310  20.9373220   4.0522060  25.4360400  20.3254490
   3.8625350  23.9401220  20.4601130  19.6086350  32.8364700  34.3320270
  20.0846070  33.3147590  35.0109350  20.2293510  32.7682190  33.6065770
   1.8109830  27.8813450  26.7441860   1.8890250  28.0162220  25.7997580
   2.4251510  27.1729340  26.9369980   3.0557460  29.5813640  23.1548040
   2.6485540  29.7228230  22.3001640   3.9470470  29.2973800  22.9519250
  19.0119600  30.0277550  31.4920280  19.1382660  29.7889430  30.5737460
  19.0540980  29.1962090  31.9642360  12.8736340  33.7305550  30.0615090
  13.3881010  33.6413560  30.8637520  12.0305420  34.0765250  30.3543000
  14.8490740  34.0160890  19.4899090  14.6891880  33.7263830  20.3880920
  14.6837450  33.2401020  18.9544320   7.3279120  33.7959420  21.2670710
   7.1521600  32.8794960  21.0538510   6.4734860  34.1546710  21.5068510
  14.5516870  31.5248450  18.0497090  13.8582030  31.5225740  17.3899370
  15.2939730  31.1007770  17.6191260  14.1166800  33.1511160  22.1245580
  14.5723750  32.3700540  22.4384200  14.4559320  33.8617980  22.6686760
  18.8643610  22.0810010  32.4570020  18.2487880  22.5889680  31.9285480
  18.5440030  21.1808340  32.3995960   1.8669350  28.9227620  29.2836320
   2.0300390  28.4532980  28.4655690   2.3321800  28.4151180  29.9485160
   6.6388120  18.0533380  24.3196890   6.1956270  18.8342920  23.9881410
   7.1973110  18.3763270  25.0267830  10.9257930  20.9201900  29.9232210
  10.4637300  21.1284920  30.7352150  10.5236040  20.1061250  29.6202880
  15.9262440  22.1410850  31.0528870  15.0756030  21.8416600  31.3737940
  15.7664230  22.3852860  30.1412690  13.0212150  23.6412600  33.1527660
  13.3465560  22.8076350  32.8129890  13.8092480  24.1641120  33.3005990
   9.7546940  17.6744080  19.2002720   9.1301120  17.6703950  19.9256030
   9.6677060  16.8075040  18.8038690   8.6764020  18.5980710  26.1786490
   8.9736350  19.5043540  26.0978510   9.2249580  18.1099490  25.5646060
   6.4302340  23.1766950  22.0478140   6.2043260  22.9604120  22.9524760
   5.6494870  23.6095410  21.7024110  13.6600100  23.1830320  20.6468790
  13.0608990  23.9066120  20.4632410  14.2079710  23.1207100  19.8645240
   8.8701550  24.0752530  32.7138410   8.7745150  23.1347260  32.5638810
   9.7133530  24.2967600  32.3186480  12.2664970  21.8193860  22.6772070
  12.6594540  22.1366060  21.8640760  12.6281820  20.9405740  22.7916590
   4.0012090  20.4866200  30.8672190   3.6075480  21.3341410  31.0744970
   3.3130490  19.8492570  31.0580830  10.5757140  20.5701170  33.9368930
   9.8855460  20.3773370  34.5715020  11.3189440  20.8535810  34.4693230
  12.8520110  24.4099610  26.7722850  12.1201230  24.9186420  27.1212950
  12.4544450  23.5929590  26.4711630   9.2897500  21.0853810  25.1775340
   9.2933560  20.6443760  24.3279880  10.1848620  21.4071140  25.2847160
   5.1399880  20.9680300  24.1369550   4.7999930  21.4455530  24.8936600
   4.3777200  20.5145420  23.7770650   9.3517650  22.0865890  18.1682100
   9.4730470  22.0452370  19.1167920   8.9666160  22.9490040  18.0128830
  13.3146020  19.8633290  26.1845790  13.3318760  20.3141940  27.0287640
  13.0661600  18.9638930  26.3979230   8.3639150  24.3967030  17.5665400
   7.7956050  23.9485280  16.9401310   9.0728150  24.7559810  17.0330550
  16.7416770  17.2765470  32.0232170  17.0662540  16.5455130  32.5490150
  16.7773280  16.9579110  31.1213160   3.4408330  28.2979050  31.4432130
   3.0563120  27.6572720  32.0415090   3.7520520  29.0015170  32.0126860
   9.5905470  25.1455590  26.9240750   9.9575600  24.6714160  27.6702090
   9.4010530  26.0197160  27.2649090   2.4545960  19.8899280  23.0534220
   2.1692880  19.5254950  23.8912840   2.3924820  19.1579740  22.4397360
   7.3804840  24.1864230  29.2424960   7.0761910  25.0656210  29.4675320
   8.3351300  24.2464020  29.2782400   5.9086630  28.3925220  19.8391810
   5.1348890  27.8522840  19.6790530   6.6381260  27.8731830  19.5009570
  16.6674610  27.3890580  25.6318200  17.3873730  27.8845870  25.2414310
  16.4656430  26.7108470  24.9872070  12.1284550  18.7828540  19.7747590
  11.3149160  18.2841710  19.6992900  11.9346500  19.6226790  19.3583940
  12.0493410  27.4599640  31.5187200  11.9830720  26.5395310  31.2644790
  11.4198550  27.5575080  32.2331840  14.8432940  23.1548190  18.0709750
  15.7312560  23.4665420  17.8961090  14.8138030  22.2820440  17.6790330
   5.9524030  28.0605600  23.4770620   6.4702700  27.2573860  23.4227510
   5.5008050  27.9984740  24.3187450  10.8393530  29.3271880  18.7497920
  11.1809230  30.0714110  18.2541240  10.0106240  29.6403000  19.1122750
   3.4368570  25.0266970  30.3896320   3.0783510  25.6920820  30.9769660
   3.1423130  24.1950520  30.7608940   6.6381690  25.4851210  33.2735870
   6.3381830  25.6308390  32.3763690   7.4092930  24.9256500  33.1809260
  11.9810140  30.2820210  31.2691000  11.9954680  29.3501170  31.0509910
  11.2735240  30.3679970  31.9080770  17.1147210  24.4660030  17.5389610
  17.0310930  24.8974250  16.6886050  17.8341400  24.9258380  17.9716430
  18.1921350  26.9227550  30.6159580  17.4669540  27.5156330  30.4188970
  18.7196810  26.9151090  29.8172950  18.1434460  31.3202290  20.2671740
  17.5010620  30.6657910  20.5415460  17.7565120  31.7257380  19.4912410
  13.7220940  28.6487720  24.1143430  14.0744760  28.0515850  23.4544800
  12.8383270  28.3231950  24.2851680   9.8084220  29.4085410  21.5213840
  10.4955350  29.9554620  21.9021430   9.0216640  29.9526140  21.5563450
   9.1111430  26.4131440  21.1339200   9.5674210  27.2236690  21.3599390
   8.7599640  26.0954580  21.9657690  11.4144040  31.9237780  28.3631500
  12.0586260  32.1297160  29.0404920  11.7773480  31.1626180  27.9102350
   5.0123210  16.7569090  21.6061720   4.8837840  16.7486990  22.5546640
   4.1885230  17.0952180  21.2552730  12.6876120  29.9270130  27.0808950
  13.3298350  29.2263290  27.1941120  13.2125470  30.7068570  26.9005840
  16.5331840  30.2118750  16.8048090  16.3069420  29.4949190  17.3972730
  16.1428040  29.9631190  15.9669840  14.4613740  30.7265030  30.2845010
  14.7969980  31.3131720  30.9622930  13.5414080  30.5957740  30.5142800
   2.3147870  34.2385610  17.5792550   2.6745510  34.8374950  16.9249820
   2.1740210  34.7845500  18.3527580  16.1148090  28.1290690  18.4662250
  15.8269790  28.5903380  19.2540130  16.9100260  27.6688460  18.7346470
   2.2989730  32.5040470  32.0534950   2.4080850  31.5635210  31.9130340
   1.6470290  32.7695220  31.4048680  10.2902320  30.7756360  33.4533070
   9.9699190  30.0565600  33.9978760   9.6160680  31.4511430  33.5269130
   8.3316490  31.6216810  18.3966220   8.3226590  32.3546500  17.7810730
   7.4114850  31.3748390  18.4893180   3.9323130  26.8431700  19.1412980
   3.3251080  27.5830600  19.1508280   4.4072480  26.9331060  18.3151180
  13.5055920  21.0082520  28.8169870  13.8736740  20.1877730  29.1449440
  12.6454120  21.0684410  29.2325520  16.8717950  19.9639460  19.6257430
  16.2431110  20.0685130  18.9115660  16.3769870  20.1836240  20.4151310
  11.3176090  31.6845050  17.0591410  11.4188070  31.4809040  16.1293390
  10.4177830  31.4303330  17.2639190   8.8401980  22.2425410  21.0415310
   8.1318130  22.7111750  21.4828920   9.1246460  21.5847420  21.6760500
  10.4657910  23.6622110  29.0407840  10.9643160  24.1367930  29.7059690
  10.6080860  22.7385630  29.2477870  12.8717410  18.9676070  22.4811100
  12.7485190  18.9862200  21.5320610  13.8201970  19.0155010  22.6009500
   9.9594200  34.2031370  21.7539080  10.2135700  34.1652760  20.8318450
   9.0106680  34.0764700  21.7467330   7.0437000  20.5510490  18.4166020
   7.8927530  20.9880640  18.3506210   6.6768270  20.8630750  19.2438080
  17.6724770  19.8790070  29.8836230  17.1698370  20.6195470  30.2230040
  18.4881430  20.2674070  29.5673020  15.9646780  25.1223250  23.3297590
  15.0236920  25.1373480  23.5045280  16.2790850  24.3359210  23.7757890
   5.9428420  26.8042850  16.8901550   6.7091690  26.6924210  17.4526980
   6.0203110  26.1080820  16.2378320   4.6375180  24.2367920  17.5734440
   4.7178770  23.2895430  17.6851840   5.5294930  24.5674800  17.6795100
  17.9672360  32.2932100  25.0051850  18.0919780  33.1163270  25.4775660
  18.8337920  32.0822830  24.6576000   5.4389890  34.3863310  24.6768980
   6.1752370  33.8378770  24.9477550   5.8230810  35.2519320  24.5374970
   4.4448170  33.5709380  33.8654560   5.2460900  33.8921430  34.2789960
   3.9299990  33.2104960  34.5874470   8.5492200  33.5593620  16.4994550
   9.3420810  33.8482450  16.0476340   8.0296550  33.1285790  15.8207030
  13.2812800  29.6789250  33.8129970  12.6750960  29.7020850  33.0725720
  12.9766910  28.9472290  34.3497220  14.7113170  33.4069540  32.4239380
  15.6634920  33.3227560  32.3739620  14.5641390  34.0711250  33.0973170
  17.6022370  32.7863750  17.9231290  17.3163880  32.3728890  17.1085470
  17.4041920  33.7151460  17.8031810   9.0669600  28.7797030  16.3636900
   8.9620240  28.1649380  17.0898280   8.8993820  28.2562920  15.5799910
   9.2183920  27.4653830  32.3426130   8.4529590  28.0338830  32.2580800
   9.3999880  27.1730040  31.4494360  12.3072330  27.8417060  16.9678890
  11.7582430  28.2886360  17.6121630  12.9291590  27.3366310  17.4916560
  16.3607270  29.1959160  32.9001150  17.1016740  29.5334920  32.3968610
  15.5979950  29.3651220  32.3470920   4.1969060  24.2012430  33.7040680
   4.2374400  23.9026300  34.6125910   5.0514560  24.6020040  33.5448200
   7.9747450  26.8007980  18.8644190   8.3963870  26.6347850  19.7075580
   8.0998290  25.9908210  18.3699330   6.1374870  22.7804530  31.6715170
   5.6071330  22.2895480  31.0438510   6.8062940  23.2088730  31.1373100
  10.4875090  25.8245590  16.1121290  11.0080750  25.1094610  15.7462440
  11.1343490  26.4631460  16.4121800  15.0352930  27.2473990  31.4356360
  15.4493950  27.4019070  32.2846780  14.1003930  27.3729210  31.5982140
  15.5075100  24.5870150  33.4395510  16.0895870  23.8322470  33.3515990
  15.6836870  25.1177590  32.6626990   6.6247170  19.7466900  31.7512460
   6.5304040  19.1287650  31.0263330   6.0444560  20.4733190  31.5242370
   9.3908610  18.3040140  28.7839850   8.9425910  18.3264400  27.9385400
   8.7573810  17.9059160  29.3810150   9.7968160  27.1994470  29.4052290
  10.2156270  28.0427200  29.2328530   8.8776790  27.3366510  29.1759070
  12.1332060  24.9310650  30.7890130  12.2528270  24.3351790  31.5284970
  12.9926060  24.9680340  30.3691430  14.4719960  25.4847840  29.3652640
  13.9455180  26.0090460  28.7617780  14.8151300  26.1175230  29.9962370
   6.8706350  22.8741210  15.8102350   6.6695410  22.0108570  16.1715690
   6.6998400  22.7874570  14.8723950   7.6475580  33.5047480  30.5210020
   7.1096670  34.2293540  30.2018720   7.9009540  33.0277820  29.7307360
   8.9000830  21.4732000  32.0465950   9.4900520  21.1647850  32.7343770
   8.0821070  21.0011750  32.2025850  13.7194260  21.0897810  32.2798970
  13.0309780  20.4279350  32.2148960  14.4400280  20.6436080  32.7247430
  14.3494660  17.6849440  18.3389230  14.6296950  16.8417340  18.6948650
  13.5760390  17.9172550  18.8527980   5.6689150  19.9741830  15.7980230
   5.9715050  19.9809260  14.8899380   6.4083740  19.6239690  16.2947890
  10.5037790  34.7398690  30.7796670  10.4296490  35.6433830  31.0869040
   9.6016630  34.4210590  30.7518740   8.8874080  18.9176450  16.7836430
   8.5396080  18.2400440  16.2038880   9.0886850  18.4565960  17.5979820
  11.0523120  33.9057200  18.4023030  11.9473910  34.2442170  18.4241790
  11.0840750  33.1836610  17.7747310   4.6919280  29.2784250  16.6310030
   5.1294150  29.8213920  17.2867610   5.1767010  28.4531200  16.6406370
   1.9065080  32.0673280  24.0830290   2.2368090  31.1994340  23.8508930
   2.3356080  32.2731800  24.9135250   6.5027000  30.3982290  21.7432260
   6.2022540  30.2747260  22.6436170   6.3964490  29.5390880  21.3347990
   2.3955290  32.9343870  26.8211920   1.9586280  33.1144670  27.6536070
   2.9632970  33.6918490  26.6793640  18.0317470  32.4360870  31.1089230
  17.4319460  32.4953430  30.3653150  18.1611370  31.4965850  31.2386080
  19.2718920  30.1778690  16.4458940  18.4411880  30.2455340  16.9166170
  19.4490750  31.0682810  16.1425800  18.7275380  26.9226170  18.9493140
  19.4894290  27.4922820  19.0552830  18.7429750  26.3553370  19.7201450
   2.2279720  25.4464100  23.1800800   1.5728560  25.1775740  22.5360500
   3.0657670  25.3368580  22.7302780  19.7335350  27.7776270  23.7935070
  20.1044180  26.9943590  23.3871040  20.3737280  28.4665370  23.6152370
  16.7169110  29.1612850  29.2065390  15.9028950  29.5910010  29.4691180
  17.1243310  29.7731260  28.5934440  18.7794550  27.2160540  16.1065660
  19.0543390  28.1239420  15.9784880  18.5905290  27.1523070  17.0427650
  15.1770160  20.2405390  17.4019290  15.5955040  20.0536370  16.5615950
  14.8706220  19.3884440  17.7122220  18.6759890  25.1529530  21.0995090
  18.3003490  24.3857460  20.6676380  17.9463010  25.5352230  21.5870020
   3.2655650  25.8316670  27.7204140   3.6328690  25.7444070  28.6000160
   2.6966470  25.0683220  27.6211000  18.0659510  24.3001050  30.7334610
  17.8345600  24.0713800  29.8332560  18.3264060  25.2200600  30.6879500
   2.8171650  22.7425760  31.6262560   1.9227700  22.7092520  31.9656270
   3.3569200  22.9412550  32.3913810  16.5047580  19.5257480  33.5114310
  17.3817760  19.5340880  33.8948310  16.5168420  18.7888320  32.9006660
  17.9510850  23.3787020  24.4002330  18.4748330  22.8849670  23.7692500
  18.5370270  23.5137380  25.1449900  18.1300570  23.4626890  27.9221880
  17.1803280  23.4290430  28.0366870  18.3113580  24.3727000  27.6871650
   3.9845010  21.7128570  17.0320510   4.6936710  21.2911790  16.5467790
   3.2684950  21.7803800  16.4003860   3.6319170  17.7667900  16.0723160
   4.3547300  18.3076840  16.3904380   3.9043690  17.4931320  15.1964700
  17.4410820  22.6360370  20.3394740  17.9369940  22.4031240  21.1243620
  17.2426890  21.7972210  19.9232380   3.3211360  17.0174090  25.9745780
   3.9687550  16.4671470  25.5340940   3.7413200  17.2717240  26.7961590
  18.8697980  21.2721320  22.8732420  18.7597260  21.1177360  23.8114690
  19.6305570  20.7442260  22.6307830  17.2163700  17.2115450  29.3315420
  17.8535920  17.8249590  29.6974610  17.3638590  17.2476110  28.3864650
  19.7588250  19.1029240  16.1138560  20.6837560  18.9710420  15.9056850
  19.7364040  19.1822060  17.0675010  19.8326740  19.8739900  18.7395270
  19.0378240  19.8085020  19.2688180  20.0370020  20.8090540  18.7280620
  16.7745160  33.9131450  22.7333660  17.3704230  33.5916020  22.0568080
  17.0323310  33.4403270  23.5246930   3.0743360  17.1729760  28.7171100
   2.7258180  17.6293580  29.4829280   2.7431060  16.2786890  28.7993530
   4.6807730  30.3449360  32.8824290   4.6377360  29.9742270  33.7638750
   4.8118740  31.2826930  33.0226110   8.3813760  31.9008950  28.4834010
   8.1405120  32.1683510  27.5964530   9.3216400  32.0714680  28.5384870
  10.5868180  18.3641640  32.2390520  10.5257070  18.9563470  32.9885930
  11.5268560  18.2567600  32.0940780  13.2242740  18.0211700  31.8782810
  13.8383150  18.3390990  31.2163890  13.7692300  17.5360290  32.4978670
  19.6417920  33.9203330  29.2844650  19.1476200  34.3172200  28.5671780
  19.0331210  33.2952540  29.6781930   3.7464000  16.7005960  31.9921870
   4.2946990  16.5194010  31.2287980   3.8119310  15.9100070  32.5278180
   4.5195760  33.2911610  30.0022070   3.9256080  33.1596310  30.7412110
   4.5119600  32.4549750  29.5364170  13.9650780  16.5843840  28.2052100
  13.0910620  16.9178950  28.0025030  13.8561530  16.1117020  29.0303970
  14.8722760  18.7914710  29.5893820  14.5436120  17.9766470  29.2095550
  15.8205060  18.7484520  29.4659510  17.3257370  34.5626750  26.5631390
  16.8660340  35.3142560  26.1889410  16.6969830  33.8433220  26.5046190
   4.1507990  30.6569990  28.9530110   3.4242050  30.0375280  28.8856060
   4.2117140  31.0510600  28.0828190   7.7553090  32.8714990  25.7379520
   8.2718110  32.2602350  25.2127780   8.4050470  33.3743770  26.2290530
  10.4948590  33.7623480  26.5648500  10.7826400  33.5077780  25.6881510
  11.0071810  33.2100840  27.1554070  11.7125600  17.5013680  27.1445010
  10.9297390  17.9759180  27.4241770  11.4188530  16.5968510  27.0358190
  16.2646670  18.2036780  25.1894100  16.7054760  18.1481880  24.3415700
  15.9954260  19.1194790  25.2604280  18.1285240  17.8352020  23.2002920
  18.0673640  16.8913240  23.0533940  18.9077270  17.9432110  23.7456380
   2.4337990  33.9744380  22.1626870   2.2660030  33.3415060  22.8608760
   1.5672500  34.1803780  21.8121060   3.0566010  17.8061160  19.6658730
   3.8145370  17.9190040  19.0922760   2.5943180  18.6430360  19.6202160
   9.5979820  19.9200430  22.6561040   8.7854330  19.5457320  22.3156920
  10.1021460  19.1645510  22.9582230  14.1004800  16.5842880  23.8944110
  14.7034170  17.1563090  24.3692630  13.3597790  17.1482320  23.6718010
  17.2439400  16.9864440  19.1684390  17.4390030  17.8847890  19.4351820
  16.4569270  16.7551520  19.6617340   4.0400690  32.6677610  19.6077010
   3.5148310  33.0485640  18.9038970   3.9645270  33.2928380  20.3286720
   5.4291160  18.3325210  18.2060700   5.9583920  17.5455010  18.0768650
   6.0619480  19.0116400  18.4396230   7.6229000  18.0700350  21.2606090
   6.9931740  17.3687660  21.4276220   7.0834140  18.8304480  21.0439250
  10.5620950  34.6839580  33.9316700  11.4888260  34.4483850  33.9752660
  10.5471380  35.5111580  33.4502730  18.7966010  34.2265150  20.9290950
  18.9718200  33.5402890  20.2851870  18.0987580  34.7512200  20.5367620
   7.7484560  17.3484330  33.6958580   7.4668830  17.8517930  32.9319400
   8.1304260  16.5506080  33.3300710   6.6393660  34.6159990  18.4826260
   7.3712480  34.3319270  17.9350150   6.8987330  34.3773270  19.3725640
   5.8008450  30.7324720  18.4872590   5.1717330  31.2009820  19.0358420
   5.9156280  29.8873940  18.9218780  14.3500020  16.7637910  34.2739050
  14.2365470  17.0832520  35.1690570  15.1669760  17.1650420  33.9776330
  17.1298510  33.9109440  33.7557740  17.9223830  33.4158670  33.5483700
  17.4231660  34.5899580  34.3633350  13.2558170  24.7830380   4.6373790
  13.1752220  23.8684990   4.3665500  12.8422590  25.2797450   3.9313500
  11.3876210  26.5609400   6.5183060  10.6118310  26.0809840   6.8081630
  12.0389140  25.8815050   6.3439220   5.4042040  26.8729210   7.3958820
   4.5726920  26.6177920   7.7955330   6.0123020  26.9439980   8.1316740
  15.4083640  30.9669590   5.2982190  14.9465170  30.1956830   5.6269360
  16.2209190  30.9935660   5.8034640   5.3843300  30.9069300   7.5916840
   5.6871340  30.0167040   7.4127060   6.1286890  31.4639520   7.3639090
   1.7767000  24.4336750   7.0640910   2.3483110  23.6658950   7.0644550
   1.7768540  24.7325510   6.1547520  11.6346950  33.2527600   4.9186180
  11.0158390  33.7085100   4.3480620  12.4898730  33.4079060   4.5175880
  10.8285200  29.2366590   6.5253220  10.7593480  28.2956530   6.3642350
  11.5905060  29.3268000   7.0975790   3.0191870  19.8421110   8.8509840
   2.8394710  18.9446860   9.1312600   2.6171950  20.3892980   9.5256790
  11.8590370  22.0436970   6.7522150  12.2355190  21.1708850   6.6395820
  11.7609880  22.3795670   5.8612590   5.9895380  20.4162600   2.2139590
   6.0962130  21.3166330   2.5208350   5.0787740  20.3680570   1.9234240
  15.6414490  19.5387410   3.6850490  16.4624110  19.0483980   3.7275970
  15.6748570  20.1285070   4.4382330   3.6378540  22.3381610   7.4592180
   4.3188650  22.6019980   8.0779580   3.3226590  21.4982480   7.7930190
   7.8303110  23.3848970   6.5464770   8.3381330  23.8829940   7.1869790
   8.3616350  22.6084170   6.3704130  19.9314040  21.5554160  10.2494120
  19.2266210  21.9435870   9.7309230  20.1971960  22.2504450  10.8515050
   6.1139210  18.0247530  10.8128190   6.1157650  18.5419920  10.0074090
   5.2843520  17.5477710  10.7898120  12.5010300  28.1366840   2.3118090
  11.8827570  28.6016290   1.7480810  13.0133550  28.8294320   2.7287600
   7.3642060  27.6642710   8.9901690   7.0311440  28.2911630   9.6322760
   7.5408740  28.1904590   8.2103360  15.8775970  21.4787790   6.4578030
  15.1731540  21.7672680   7.0381140  16.2388130  22.2887900   6.0977590
   5.7954540  19.7357490   8.8198640   6.1371350  20.5799540   8.5252510
   4.8570350  19.8841230   8.9363980   6.5761160  29.6323510  10.8050870
   7.1935160  30.3074590  10.5235320   5.7154280  30.0411490  10.7138370
  17.4938750  31.0962920   8.7205510  16.8102270  31.7662030   8.7122180
  18.0333040  31.2943570   7.9550370  18.9462890  20.9242580   6.8487240
  17.9987800  20.9581560   6.9802670  19.2712880  21.7381530   7.2336600
   9.4782430  17.2239760   5.1443230   9.7857410  16.6686650   4.4278730
   8.5483130  17.3584220   4.9616220  15.0297490  32.9407050   7.4350690
  15.0424650  32.5369340   6.5672950  14.4772710  33.7154340   7.3312120
  16.3242910  29.6623270   2.5240860  16.2139240  28.7197600   2.6490280
  16.3211160  30.0238910   3.4103620  14.4282930  27.8436890   8.7633300
  14.8451720  27.6297000   7.9286760  15.1522750  28.1009680   9.3341920
  11.8663190  25.2888590   1.8803350  10.9392470  25.2225970   2.1091820
  12.0188010  26.2268720   1.7658590  18.3745030  26.2424110   8.8549540
  17.5463660  26.3117200   8.3799670  18.9695510  26.8278420   8.3865370
  15.8960480  26.8508890   2.3838600  15.2772900  26.5128440   1.7364900
  15.8784930  26.2068650   3.0917790  15.3387040  23.0293430   9.8004410
  14.9258220  23.8547140  10.0544400  14.6062990  22.4438470   9.6080770
   7.4719830  25.8153330   4.6623080   7.0676830  25.1030580   4.1668980
   7.5582950  25.4706570   5.5511120   7.9401530  29.5020890   6.8262290
   7.6429820  28.8966360   6.1470070   8.8901350  29.5398200   6.7151650
   6.1848450  22.5896540   8.4422120   6.7363040  22.6991880   7.6675370
   6.6991960  22.9634140   9.1577350  16.0287140  33.0752760  10.4885390
  15.5517700  33.8824950  10.2958000  15.3448930  32.4231090  10.6411600
   7.0319960  29.2402580  13.4770090   6.1348490  29.4642550  13.7243490
   7.0572830  29.3637520  12.5281490   5.8591180  26.1115900  12.0527460
   5.7198950  26.9838700  12.4214860   4.9772540  25.7688710  11.9075400
  12.1820560  31.0291770   3.3592590  12.6216470  31.7716100   2.9447980
  12.1207450  31.2718340   4.2831550   7.6571530  32.0537600  14.2612610
   7.6286960  32.4580550  13.3941040   7.4936500  31.1247960  14.0984210
  19.6086350  32.8364700  15.5576780  20.0846070  33.3147590  16.2365860
  20.2293510  32.7682190  14.8322280   1.8109830  27.8813450   7.9698370
   1.8890250  28.0162220   7.0254090   2.4251510  27.1729340   8.1626490
   3.0557460  29.5813640   4.3804550   2.6485540  29.7228230   3.5258150
   3.9470470  29.2973800   4.1775760  19.0119600  30.0277550  12.7176790
  19.1382660  29.7889430  11.7993970  19.0540980  29.1962090  13.1898870
  12.8736340  33.7305550  11.2871600  13.3881010  33.6413560  12.0894030
  12.0305420  34.0765250  11.5799510   7.3279120  33.7959420   2.4927220
   7.1521600  32.8794960   2.2795020   6.4734860  34.1546710   2.7325020
  14.1166800  33.1511160   3.3502090  14.5723750  32.3700540   3.6640710
  14.4559320  33.8617980   3.8943270  18.8643610  22.0810010  13.6826530
  18.2487880  22.5889680  13.1541990  18.5440030  21.1808340  13.6252470
   1.8669350  28.9227620  10.5092830   2.0300390  28.4532980   9.6912200
   2.3321800  28.4151180  11.1741670   6.6388120  18.0533380   5.5453400
   6.1956270  18.8342920   5.2137920   7.1973110  18.3763270   6.2524340
  10.9257930  20.9201900  11.1488720  10.4637300  21.1284920  11.9608660
  10.5236040  20.1061250  10.8459390  15.9262440  22.1410850  12.2785380
  15.0756030  21.8416600  12.5994450  15.7664230  22.3852860  11.3669200
  13.0212150  23.6412600  14.3784170  13.3465560  22.8076350  14.0386400
  13.8092480  24.1641120  14.5262500   8.6764020  18.5980710   7.4043000
   8.9736350  19.5043540   7.3235020   9.2249580  18.1099490   6.7902570
   6.4302340  23.1766950   3.2734650   6.2043260  22.9604120   4.1781270
   5.6494870  23.6095410   2.9280620   8.8701550  24.0752530  13.9394920
   8.7745150  23.1347260  13.7895320   9.7133530  24.2967600  13.5442990
  12.2664970  21.8193860   3.9028580  12.6594540  22.1366060   3.0897270
  12.6281820  20.9405740   4.0173100   4.0012090  20.4866200  12.0928700
   3.6075480  21.3341410  12.3001480   3.3130490  19.8492570  12.2837340
  10.5757140  20.5701170  15.1625440   9.8855460  20.3773370  15.7971530
  11.3189440  20.8535810  15.6949740  12.8520110  24.4099610   7.9979360
  12.1201230  24.9186420   8.3469460  12.4544450  23.5929590   7.6968140
   9.2897500  21.0853810   6.4031850   9.2933560  20.6443760   5.5536390
  10.1848620  21.4071140   6.5103670   5.1399880  20.9680300   5.3626060
   4.7999930  21.4455530   6.1193110   4.3777200  20.5145420   5.0027160
  13.3146020  19.8633290   7.4102300  13.3318760  20.3141940   8.2544150
  13.0661600  18.9638930   7.6235740  16.7416770  17.2765470  13.2488680
  17.0662540  16.5455130  13.7746660  16.7773280  16.9579110  12.3469670
   3.4408330  28.2979050  12.6688640   3.0563120  27.6572720  13.2671600
   3.7520520  29.0015170  13.2383370   9.5905470  25.1455590   8.1497260
   9.9575600  24.6714160   8.8958600   9.4010530  26.0197160   8.4905600
   2.4545960  19.8899280   4.2790730   2.1692880  19.5254950   5.1169350
   2.3924820  19.1579740   3.6653870   7.3804840  24.1864230  10.4681470
   7.0761910  25.0656210  10.6931830   8.3351300  24.2464020  10.5038910
  16.6674610  27.3890580   6.8574710  17.3873730  27.8845870   6.4670820
  16.4656430  26.7108470   6.2128580  12.0493410  27.4599640  12.7443710
  11.9830720  26.5395310  12.4901300  11.4198550  27.5575080  13.4588350
   5.9524030  28.0605600   4.7027130   6.4702700  27.2573860   4.6484020
   5.5008050  27.9984740   5.5443960   3.4368570  25.0266970  11.6152830
   3.0783510  25.6920820  12.2026170   3.1423130  24.1950520  11.9865450
   6.6381690  25.4851210  14.4992380   6.3381830  25.6308390  13.6020200
   7.4092930  24.9256500  14.4065770  11.9810140  30.2820210  12.4947510
  11.9954680  29.3501170  12.2766420  11.2735240  30.3679970  13.1337280
  18.1921350  26.9227550  11.8416090  17.4669540  27.5156330  11.6445480
  18.7196810  26.9151090  11.0429460  13.7220940  28.6487720   5.3399940
  14.0744760  28.0515850   4.6801310  12.8383270  28.3231950   5.5108190
   9.8084220  29.4085410   2.7470350  10.4955350  29.9554620   3.1277940
   9.0216640  29.9526140   2.7819960   9.1111430  26.4131440   2.3595710
   9.5674210  27.2236690   2.5855900   8.7599640  26.0954580   3.1914200
  11.4144040  31.9237780   9.5888010  12.0586260  32.1297160  10.2661430
  11.7773480  31.1626180   9.1358860   5.0123210  16.7569090   2.8318230
   4.8837840  16.7486990   3.7803150   4.1885230  17.0952180   2.4809240
  12.6876120  29.9270130   8.3065460  13.3298350  29.2263290   8.4197630
  13.2125470  30.7068570   8.1262350  14.4613740  30.7265030  11.5101520
  14.7969980  31.3131720  12.1879440  13.5414080  30.5957740  11.7399310
   2.2989730  32.5040470  13.2791460   2.4080850  31.5635210  13.1386850
   1.6470290  32.7695220  12.6305190  10.2902320  30.7756360  14.6789580
   9.9699190  30.0565600  15.2235270   9.6160680  31.4511430  14.7525640
  13.5055920  21.0082520  10.0426380  13.8736740  20.1877730  10.3705950
  12.6454120  21.0684410  10.4582030   8.8401980  22.2425410   2.2671820
   8.1318130  22.7111750   2.7085430   9.1246460  21.5847420   2.9017010
  10.4657910  23.6622110  10.2664350  10.9643160  24.1367930  10.9316200
  10.6080860  22.7385630  10.4734380  12.8717410  18.9676070   3.7067610
  12.7485190  18.9862200   2.7577120  13.8201970  19.0155010   3.8266010
   9.9594200  34.2031370   2.9795590  10.2135700  34.1652760   2.0574960
   9.0106680  34.0764700   2.9723840  17.6724770  19.8790070  11.1092740
  17.1698370  20.6195470  11.4486550  18.4881430  20.2674070  10.7929530
  15.9646780  25.1223250   4.5554100  15.0236920  25.1373480   4.7301790
  16.2790850  24.3359210   5.0014400  17.9672360  32.2932100   6.2308360
  18.0919780  33.1163270   6.7032170  18.8337920  32.0822830   5.8832510
   5.4389890  34.3863310   5.9025490   6.1752370  33.8378770   6.1734060
   5.8230810  35.2519320   5.7631480   4.4448170  33.5709380  15.0911070
   5.2460900  33.8921430  15.5046470   3.9299990  33.2104960  15.8130980
  13.2812800  29.6789250  15.0386480  12.6750960  29.7020850  14.2982230
  12.9766910  28.9472290  15.5753730  14.7113170  33.4069540  13.6495890
  15.6634920  33.3227560  13.5996130  14.5641390  34.0711250  14.3229680
   9.2183920  27.4653830  13.5682640   8.4529590  28.0338830  13.4837310
   9.3999880  27.1730040  12.6750870  16.3607270  29.1959160  14.1257660
  17.1016740  29.5334920  13.6225120  15.5979950  29.3651220  13.5727430
   4.1969060  24.2012430  14.9297190   4.2374400  23.9026300  15.8382420
   5.0514560  24.6020040  14.7704710   6.1374870  22.7804530  12.8971680
   5.6071330  22.2895480  12.2695020   6.8062940  23.2088730  12.3629610
  15.0352930  27.2473990  12.6612870  15.4493950  27.4019070  13.5103290
  14.1003930  27.3729210  12.8238650  15.5075100  24.5870150  14.6652020
  16.0895870  23.8322470  14.5772500  15.6836870  25.1177590  13.8883500
   6.6247170  19.7466900  12.9768970   6.5304040  19.1287650  12.2519840
   6.0444560  20.4733190  12.7498880   9.3908610  18.3040140  10.0096360
   8.9425910  18.3264400   9.1641910   8.7573810  17.9059160  10.6066660
   9.7968160  27.1994470  10.6308800  10.2156270  28.0427200  10.4585040
   8.8776790  27.3366510  10.4015580  12.1332060  24.9310650  12.0146640
  12.2528270  24.3351790  12.7541480  12.9926060  24.9680340  11.5947940
  14.4719960  25.4847840  10.5909150  13.9455180  26.0090460   9.9874290
  14.8151300  26.1175230  11.2218880   7.6475580  33.5047480  11.7466530
   7.1096670  34.2293540  11.4275230   7.9009540  33.0277820  10.9563870
   8.9000830  21.4732000  13.2722460   9.4900520  21.1647850  13.9600280
   8.0821070  21.0011750  13.4282360  13.7194260  21.0897810  13.5055480
  13.0309780  20.4279350  13.4405470  14.4400280  20.6436080  13.9503940
  10.5037790  34.7398690  12.0053180  10.4296490  35.6433830  12.3125550
   9.6016630  34.4210590  11.9775250   1.9065080  32.0673280   5.3086800
   2.2368090  31.1994340   5.0765440   2.3356080  32.2731800   6.1391760
   6.5027000  30.3982290   2.9688770   6.2022540  30.2747260   3.8692680
   6.3964490  29.5390880   2.5604500   2.3955290  32.9343870   8.0468430
   1.9586280  33.1144670   8.8792580   2.9632970  33.6918490   7.9050150
  18.0317470  32.4360870  12.3345740  17.4319460  32.4953430  11.5909660
  18.1611370  31.4965850  12.4642590   2.2279720  25.4464100   4.4057310
   1.5728560  25.1775740   3.7617010   3.0657670  25.3368580   3.9559290
  19.7335350  27.7776270   5.0191580  20.1044180  26.9943590   4.6127550
  20.3737280  28.4665370   4.8408880  16.7169110  29.1612850  10.4321900
  15.9028950  29.5910010  10.6947690  17.1243310  29.7731260   9.8190950
  18.6759890  25.1529530   2.3251600  18.3003490  24.3857460   1.8932890
  17.9463010  25.5352230   2.8126530   3.2655650  25.8316670   8.9460650
   3.6328690  25.7444070   9.8256670   2.6966470  25.0683220   8.8467510
  18.0659510  24.3001050  11.9591120  17.8345600  24.0713800  11.0589070
  18.3264060  25.2200600  11.9136010   2.8171650  22.7425760  12.8519070
   1.9227700  22.7092520  13.1912780   3.3569200  22.9412550  13.6170320
  16.5047580  19.5257480  14.7370820  17.3817760  19.5340880  15.1204820
  16.5168420  18.7888320  14.1263170  17.9510850  23.3787020   5.6258840
  18.4748330  22.8849670   4.9949010  18.5370270  23.5137380   6.3706410
  18.1300570  23.4626890   9.1478390  17.1803280  23.4290430   9.2623380
  18.3113580  24.3727000   8.9128160   3.3211360  17.0174090   7.2002290
   3.9687550  16.4671470   6.7597450   3.7413200  17.2717240   8.0218100
  18.8697980  21.2721320   4.0988930  18.7597260  21.1177360   5.0371200
  19.6305570  20.7442260   3.8564340  17.2163700  17.2115450  10.5571930
  17.8535920  17.8249590  10.9231120  17.3638590  17.2476110   9.6121160
  16.7745160  33.9131450   3.9590170  17.3704230  33.5916020   3.2824590
  17.0323310  33.4403270   4.7503440   3.0743360  17.1729760   9.9427610
   2.7258180  17.6293580  10.7085790   2.7431060  16.2786890  10.0250040
   4.6807730  30.3449360  14.1080800   4.6377360  29.9742270  14.9895260
   4.8118740  31.2826930  14.2482620   8.3813760  31.9008950   9.7090520
   8.1405120  32.1683510   8.8221040   9.3216400  32.0714680   9.7641380
  10.5868180  18.3641640  13.4647030  10.5257070  18.9563470  14.2142440
  11.5268560  18.2567600  13.3197290  13.2242740  18.0211700  13.1039320
  13.8383150  18.3390990  12.4420400  13.7692300  17.5360290  13.7235180
  19.6417920  33.9203330  10.5101160  19.1476200  34.3172200   9.7928290
  19.0331210  33.2952540  10.9038440   3.7464000  16.7005960  13.2178380
   4.2946990  16.5194010  12.4544490   3.8119310  15.9100070  13.7534690
   4.5195760  33.2911610  11.2278580   3.9256080  33.1596310  11.9668620
   4.5119600  32.4549750  10.7620680  13.9650780  16.5843840   9.4308610
  13.0910620  16.9178950   9.2281540  13.8561530  16.1117020  10.2560480
  14.8722760  18.7914710  10.8150330  14.5436120  17.9766470  10.4352060
  15.8205060  18.7484520  10.6916020  17.3257370  34.5626750   7.7887900
  16.8660340  35.3142560   7.4145920  16.6969830  33.8433220   7.7302700
   4.1507990  30.6569990  10.1786620   3.4242050  30.0375280  10.1112570
   4.2117140  31.0510600   9.3084700   7.7553090  32.8714990   6.9636030
   8.2718110  32.2602350   6.4384290   8.4050470  33.3743770   7.4547040
  10.4948590  33.7623480   7.7905010  10.7826400  33.5077780   6.9138020
  11.0071810  33.2100840   8.3810580  11.7125600  17.5013680   8.3701520
  10.9297390  17.9759180   8.6498280  11.4188530  16.5968510   8.2614700
  16.2646670  18.2036780   6.4150610  16.7054760  18.1481880   5.5672210
  15.9954260  19.1194790   6.4860790  18.1285240  17.8352020   4.4259430
  18.0673640  16.8913240   4.2790450  18.9077270  17.9432110   4.9712890
   2.4337990  33.9744380   3.3883380   2.2660030  33.3415060   4.0865270
   1.5672500  34.1803780   3.0377570   9.5979820  19.9200430   3.8817550
   8.7854330  19.5457320   3.5413430  10.1021460  19.1645510   4.1838740
  14.1004800  16.5842880   5.1200620  14.7034170  17.1563090   5.5949140
  13.3597790  17.1482320   4.8974520   7.6229000  18.0700350   2.4862600
   6.9931740  17.3687660   2.6532730   7.0834140  18.8304480   2.2695760
  10.5620950  34.6839580  15.1573210  11.4888260  34.4483850  15.2009170
  10.5471380  35.5111580  14.6759240   7.7484560  17.3484330  14.9215090
   7.4668830  17.8517930  14.1575910   8.1304260  16.5506080  14.5557220
  14.3500020  16.7637910  15.4995560  14.2365470  17.0832520  16.3947080
  15.1669760  17.1650420  15.2032840  17.1298510  33.9109440  14.9814250
  17.9223830  33.4158670  14.7740210  17.4231660  34.5899580  15.5889860
  13.2558170   6.0086890  79.7347750  13.1752220   5.0941500  79.4639460
  12.8422590   6.5053960  79.0287460  11.3876210   7.7865910  81.6157020
  10.6118310   7.3066350  81.9055590  12.0389140   7.1071560  81.4413180
   5.4042040   8.0985720  82.4932780   4.5726920   7.8434430  82.8929290
   6.0123020   8.1696490  83.2290700  15.4083640  12.1926100  80.3956150
  14.9465170  11.4213340  80.7243320  16.2209190  12.2192170  80.9008600
   5.3843300  12.1325810  82.6890800   5.6871340  11.2423550  82.5101020
   6.1286890  12.6896030  82.4613050   3.8133990   3.0587610  76.2775170
   2.9250690   3.4003580  76.1755050   4.0975180   2.8587930  75.3856000
   1.7767000   5.6593260  82.1614870   2.3483110   4.8915460  82.1618510
   1.7768540   5.9582020  81.2521480  11.6346950  14.4784110  80.0160140
  11.0158390  14.9341610  79.4454580  12.4898730  14.6335570  79.6149840
  10.8285200  10.4623100  81.6227180  10.7593480   9.5213040  81.4616310
  11.5905060  10.5524510  82.1949750  11.8590370   3.2693480  81.8496110
  12.2355190   2.3965360  81.7369780  11.7609880   3.6052180  80.9586550
   3.6378540   3.5638120  82.5566140   4.3188650   3.8276490  83.1753540
   3.3226590   2.7238990  82.8904150   7.8303110   4.6105480  81.6438730
   8.3381330   5.1086450  82.2843750   8.3616350   3.8340680  81.4678090
  19.9314040   2.7810670  85.3468080  19.2266210   3.1692380  84.8283190
  20.1971960   3.4760960  85.9489010  12.5010300   9.3623350  77.4092050
  11.8827570   9.8272800  76.8454770  13.0133550  10.0550830  77.8261560
   7.3642060   8.8899220  84.0875650   7.0311440   9.5168140  84.7296720
   7.5408740   9.4161100  83.3077320  15.8775970   2.7044300  81.5551990
  15.1731540   2.9929190  82.1355100  16.2388130   3.5144410  81.1951550
   6.5761160  10.8580020  85.9024830   7.1935160  11.5331100  85.6209280
   5.7154280  11.2668000  85.8112330  17.4938750  12.3219430  83.8179470
  16.8102270  12.9918540  83.8096140  18.0333040  12.5200080  83.0524330
  18.9462890   2.1499090  81.9461200  17.9987800   2.1838070  82.0776630
  19.2712880   2.9638040  82.3310560  15.0297490  14.1663560  82.5324650
  15.0424650  13.7625850  81.6646910  14.4772710  14.9410850  82.4286080
  16.3242910  10.8879780  77.6214820  16.2139240   9.9454110  77.7464240
  16.3211160  11.2495420  78.5077580  14.4282930   9.0693400  83.8607260
  14.8451720   8.8553510  83.0260720  15.1522750   9.3266190  84.4315880
  11.8663190   6.5145100  76.9777310  10.9392470   6.4482480  77.2065780
  12.0188010   7.4525230  76.8632550  11.8532270   2.7862100  73.9744470
  10.9135940   2.9476060  74.0596930  12.1715530   3.5047780  73.4280460
  18.3745030   7.4680620  83.9523500  17.5463660   7.5373710  83.4773630
  18.9695510   8.0534930  83.4839330  15.8960480   8.0765400  77.4812560
  15.2772900   7.7384950  76.8338860  15.8784930   7.4325160  78.1891750
  15.3387040   4.2549940  84.8978370  14.9258220   5.0803650  85.1518360
  14.6062990   3.6694980  84.7054730   7.4719830   7.0409840  79.7597040
   7.0676830   6.3287090  79.2642940   7.5582950   6.6963080  80.6485080
   7.9401530  10.7277400  81.9236250   7.6429820  10.1222870  81.2444030
   8.8901350  10.7654710  81.8125610   6.1848450   3.8153050  83.5396080
   6.7363040   3.9248390  82.7649330   6.6991960   4.1890650  84.2551310
  16.0287140  14.3009270  85.5859350  15.5517700  15.1081460  85.3931960
  15.3448930  13.6487600  85.7385560  14.0725180   7.3152210  74.4885310
  14.5118460   6.4774640  74.3423130  14.7853600   7.9481610  74.5749450
  12.1820560  12.2548280  78.4566550  12.6216470  12.9972610  78.0421940
  12.1207450  12.4974850  79.3805510   4.1724460   5.9354820  77.2603690
   4.0522060   6.6616910  76.6484960   3.8625350   5.1657730  76.7831600
   1.8109830   9.1069960  83.0672330   1.8890250   9.2418730  82.1228050
   2.4251510   8.3985850  83.2600450   3.0557460  10.8070150  79.4778510
   2.6485540  10.9484740  78.6232110   3.9470470  10.5230310  79.2749720
  14.8490740  15.2417400  75.8129560  14.6891880  14.9520340  76.7111390
  14.6837450  14.4657530  75.2774790   7.3279120  15.0215930  77.5901180
   7.1521600  14.1051470  77.3768980   6.4734860  15.3803220  77.8298980
  14.5516870  12.7504960  74.3727560  13.8582030  12.7482250  73.7129840
  15.2939730  12.3264280  73.9421730  14.1166800  14.3767670  78.4476050
  14.5723750  13.5957050  78.7614670  14.4559320  15.0874490  78.9917230
   6.4302340   4.4023460  78.3708610   6.2043260   4.1860630  79.2755230
   5.6494870   4.8351920  78.0254580  13.6600100   4.4086830  76.9699260
  13.0608990   5.1322630  76.7862880  14.2079710   4.3463610  76.1875710
  12.2664970   3.0450370  79.0002540  12.6594540   3.3622570  78.1871230
  12.6281820   2.1662250  79.1147060  12.8520110   5.6356120  83.0953320
  12.1201230   6.1442930  83.4443420  12.4544450   4.8186100  82.7942100
   9.2897500   2.3110320  81.5005810   9.2933560   1.8700270  80.6510350
  10.1848620   2.6327650  81.6077630   5.1399880   2.1936810  80.4600020
   4.7999930   2.6712040  81.2167070   4.3777200   1.7401930  80.1001120
   9.3517650   3.3122400  74.4912570   9.4730470   3.2708880  75.4398390
   8.9666160   4.1746550  74.3359300   8.3639150   5.6223540  73.8895870
   7.7956050   5.1741790  73.2631780   9.0728150   5.9816320  73.3561020
   9.5905470   6.3712100  83.2471220   9.9575600   5.8970670  83.9932560
   9.4010530   7.2453670  83.5879560   7.3804840   5.4120740  85.5655430
   7.0761910   6.2912720  85.7905790   8.3351300   5.4720530  85.6012870
   5.9086630   9.6181730  76.1622280   5.1348890   9.0779350  76.0021000
   6.6381260   9.0988340  75.8240040  16.6674610   8.6147090  81.9548670
  17.3873730   9.1102380  81.5644780  16.4656430   7.9364980  81.3102540
  14.8432940   4.3804700  74.3940220  15.7312560   4.6921930  74.2191560
  14.8138030   3.5076950  74.0020800   5.9524030   9.2862110  79.8001090
   6.4702700   8.4830370  79.7457980   5.5008050   9.2241250  80.6417920
  10.8393530  10.5528390  75.0728390  11.1809230  11.2970620  74.5771710
  10.0106240  10.8659510  75.4353220  17.1147210   5.6916540  73.8620080
  17.0310930   6.1230760  73.0116520  17.8341400   6.1514890  74.2946900
  18.1434460  12.5458800  76.5902210  17.5010620  11.8914420  76.8645930
  17.7565120  12.9513890  75.8142880  13.7220940   9.8744230  80.4373900
  14.0744760   9.2772360  79.7775270  12.8383270   9.5488460  80.6082150
   9.8084220  10.6341920  77.8444310  10.4955350  11.1811130  78.2251900
   9.0216640  11.1782650  77.8793920   9.1111430   7.6387950  77.4569670
   9.5674210   8.4493200  77.6829860   8.7599640   7.3211090  78.2888160
  11.4144040  13.1494290  84.6861970  12.0586260  13.3553670  85.3635390
  11.7773480  12.3882690  84.2332820  12.6876120  11.1526640  83.4039420
  13.3298350  10.4519800  83.5171590  13.2125470  11.9325080  83.2236310
  16.5331840  11.4375260  73.1278560  16.3069420  10.7205700  73.7203200
  16.1428040  11.1887700  72.2900310   2.3147870  15.4642120  73.9023020
   2.6745510  16.0631460  73.2480290   2.1740210  16.0102010  74.6758050
  16.1148090   9.3547200  74.7892720  15.8269790   9.8159890  75.5770600
  16.9100260   8.8944970  75.0576940   8.3316490  12.8473320  74.7196690
   8.3226590  13.5803010  74.1041200   7.4114850  12.6004900  74.8123650
   3.9323130   8.0688210  75.4643450   3.3251080   8.8087110  75.4738750
   4.4072480   8.1587570  74.6381650  11.3176090  12.9101560  73.3821880
  11.4188070  12.7065550  72.4523860  10.4177830  12.6559840  73.5869660
   8.8401980   3.4681920  77.3645780   8.1318130   3.9368260  77.8059390
   9.1246460   2.8103930  77.9990970   9.9594200  15.4287880  78.0769550
  10.2135700  15.3909270  77.1548920   9.0106680  15.3021210  78.0697800
   7.0437000   1.7767000  74.7396490   7.8927530   2.2137150  74.6736680
   6.6768270   2.0887260  75.5668550  15.9646780   6.3479760  79.6528060
  15.0236920   6.3629990  79.8275750  16.2790850   5.5615720  80.0988360
   5.9428420   8.0299360  73.2132020   6.7091690   7.9180720  73.7757450
   6.0203110   7.3337330  72.5608790   4.6375180   5.4624430  73.8964910
   4.7178770   4.5151940  74.0082310   5.5294930   5.7931310  74.0025570
  17.9672360  13.5188610  81.3282320  18.0919780  14.3419780  81.8006130
  18.8337920  13.3079340  80.9806470   5.4389890  15.6119820  80.9999450
   6.1752370  15.0635280  81.2708020   5.8230810  16.4775830  80.8605440
   8.5492200  14.7850130  72.8225020   9.3420810  15.0738960  72.3706810
   8.0296550  14.3542300  72.1437500  17.6022370  14.0120260  74.2461760
  17.3163880  13.5985400  73.4315940  17.4041920  14.9407970  74.1262280
   9.0669600  10.0053540  72.6867370   8.9620240   9.3905890  73.4128750
   8.8993820   9.4819430  71.9030380  12.3072330   9.0673570  73.2909360
  11.7582430   9.5142870  73.9352100  12.9291590   8.5622820  73.8147030
   7.9747450   8.0264490  75.1874660   8.3963870   7.8604360  76.0306050
   8.0998290   7.2164720  74.6929800  10.4875090   7.0502100  72.4351760
  11.0080750   6.3351120  72.0692910  11.1343490   7.6887970  72.7352270
   9.7968160   8.4250980  85.7282760  10.2156270   9.2683710  85.5559000
   8.8776790   8.5623020  85.4989540   6.8706350   4.0997720  72.1332820
   6.6695410   3.2365080  72.4946160   6.6998400   4.0131080  71.1954420
  11.0523120  15.1313710  74.7253500  11.9473910  15.4698680  74.7472260
  11.0840750  14.4093120  74.0977780   4.6919280  10.5040760  72.9540500
   5.1294150  11.0470430  73.6098080   5.1767010   9.6787710  72.9636840
   1.9065080  13.2929790  80.4060760   2.2368090  12.4250850  80.1739400
   2.3356080  13.4988310  81.2365720   6.5027000  11.6238800  78.0662730
   6.2022540  11.5003770  78.9666640   6.3964490  10.7647390  77.6578460
   2.3955290  14.1600380  83.1442390   1.9586280  14.3401180  83.9766540
   2.9632970  14.9175000  83.0024110  19.2718920  11.4035200  72.7689410
  18.4411880  11.4711850  73.2396640  19.4490750  12.2939320  72.4656270
  18.7275380   8.1482680  75.2723610  19.4894290   8.7179330  75.3783300
  18.7429750   7.5809880  76.0431920   2.2279720   6.6720610  79.5031270
   1.5728560   6.4032250  78.8590970   3.0657670   6.5625090  79.0533250
  19.7335350   9.0032780  80.1165540  20.1044180   8.2200100  79.7101510
  20.3737280   9.6921880  79.9382840  16.7169110  10.3869360  85.5295860
  15.9028950  10.8166520  85.7921650  17.1243310  10.9987770  84.9164910
  18.7794550   8.4417050  72.4296130  19.0543390   9.3495930  72.3015350
  18.5905290   8.3779580  73.3658120  18.6759890   6.3786040  77.4225560
  18.3003490   5.6113970  76.9906850  17.9463010   6.7608740  77.9100490
   3.2655650   7.0573180  84.0434610   3.6328690   6.9700580  84.9230630
   2.6966470   6.2939730  83.9441470  17.9510850   4.6043530  80.7232800
  18.4748330   4.1106180  80.0922970  18.5370270   4.7393890  81.4680370
  18.1300570   4.6883400  84.2452350  17.1803280   4.6546940  84.3597340
  18.3113580   5.5983510  84.0102120   3.9845010   2.9385080  73.3550980
   4.6936710   2.5168300  72.8698260   3.2684950   3.0060310  72.7234330
  17.4410820   3.8616880  76.6625210  17.9369940   3.6287750  77.4474090
  17.2426890   3.0228720  76.2462850  18.8697980   2.4977830  79.1962890
  18.7597260   2.3433870  80.1345160  19.6305570   1.9698770  78.9538300
  16.7745160  15.1387960  79.0564130  17.3704230  14.8172530  78.3798550
  17.0323310  14.6659780  79.8477400   8.3813760  13.1265460  84.8064480
   8.1405120  13.3940020  83.9195000   9.3216400  13.2971190  84.8615340
  17.3257370  15.7883260  82.8861860  16.8660340  16.5399070  82.5119880
  16.6969830  15.0689730  82.8276660   4.1507990  11.8826500  85.2760580
   3.4242050  11.2631790  85.2086530   4.2117140  12.2767110  84.4058660
   7.7553090  14.0971500  82.0609990   8.2718110  13.4858860  81.5358250
   8.4050470  14.6000280  82.5521000  10.4948590  14.9879990  82.8878970
  10.7826400  14.7334290  82.0111980  11.0071810  14.4357350  83.4784540
   2.4337990  15.2000890  78.4857340   2.2660030  14.5671570  79.1839230
   1.5672500  15.4060290  78.1351530   4.0400690  13.8934120  75.9307480
   3.5148310  14.2742150  75.2269440   3.9645270  14.5184890  76.6517190
  18.7966010  15.4521660  77.2521420  18.9718200  14.7659400  76.6082340
  18.0987580  15.9768710  76.8598090   6.6393660  15.8416500  74.8056730
   7.3712480  15.5575780  74.2580620   6.8987330  15.6029780  75.6956110
   5.8008450  11.9581230  74.8103060   5.1717330  12.4266330  75.3588890
   5.9156280  11.1130450  75.2449250  13.2558170   6.0086890  60.9604260
  13.1752220   5.0941500  60.6895970  12.8422590   6.5053960  60.2543970
  11.3876210   7.7865910  62.8413530  10.6118310   7.3066350  63.1312100
  12.0389140   7.1071560  62.6669690   5.4042040   8.0985720  63.7189290
   4.5726920   7.8434430  64.1185800   6.0123020   8.1696490  64.4547210
  15.4083640  12.1926100  61.6212660  14.9465170  11.4213340  61.9499830
  16.2209190  12.2192170  62.1265110   5.3843300  12.1325810  63.9147310
   5.6871340  11.2423550  63.7357530   6.1286890  12.6896030  63.6869560
   3.8133990   3.0587610  57.5031680   2.9250690   3.4003580  57.4011560
   4.0975180   2.8587930  56.6112510   1.7767000   5.6593260  63.3871380
   2.3483110   4.8915460  63.3875020   1.7768540   5.9582020  62.4777990
  11.6346950  14.4784110  61.2416650  11.0158390  14.9341610  60.6711090
  12.4898730  14.6335570  60.8406350  10.8285200  10.4623100  62.8483690
  10.7593480   9.5213040  62.6872820  11.5905060  10.5524510  63.4206260
  11.8590370   3.2693480  63.0752620  12.2355190   2.3965360  62.9626290
  11.7609880   3.6052180  62.1843060   3.6378540   3.5638120  63.7822650
   4.3188650   3.8276490  64.4010050   3.3226590   2.7238990  64.1160660
   7.8303110   4.6105480  62.8695240   8.3381330   5.1086450  63.5100260
   8.3616350   3.8340680  62.6934600  19.9314040   2.7810670  66.5724590
  19.2266210   3.1692380  66.0539700  20.1971960   3.4760960  67.1745520
  12.5010300   9.3623350  58.6348560  11.8827570   9.8272800  58.0711280
  13.0133550  10.0550830  59.0518070   7.3642060   8.8899220  65.3132160
   7.0311440   9.5168140  65.9553230   7.5408740   9.4161100  64.5333830
  15.8775970   2.7044300  62.7808500  15.1731540   2.9929190  63.3611610
  16.2388130   3.5144410  62.4208060   6.5761160  10.8580020  67.1281340
   7.1935160  11.5331100  66.8465790   5.7154280  11.2668000  67.0368840
  17.4938750  12.3219430  65.0435980  16.8102270  12.9918540  65.0352650
  18.0333040  12.5200080  64.2780840  18.9462890   2.1499090  63.1717710
  17.9987800   2.1838070  63.3033140  19.2712880   2.9638040  63.5567070
  15.0297490  14.1663560  63.7581160  15.0424650  13.7625850  62.8903420
  14.4772710  14.9410850  63.6542590  16.3242910  10.8879780  58.8471330
  16.2139240   9.9454110  58.9720750  16.3211160  11.2495420  59.7334090
  14.4282930   9.0693400  65.0863770  14.8451720   8.8553510  64.2517230
  15.1522750   9.3266190  65.6572390  11.8663190   6.5145100  58.2033820
  10.9392470   6.4482480  58.4322290  12.0188010   7.4525230  58.0889060
  11.8532270   2.7862100  55.2000980  10.9135940   2.9476060  55.2853440
  12.1715530   3.5047780  54.6536970  18.3745030   7.4680620  65.1780010
  17.5463660   7.5373710  64.7030140  18.9695510   8.0534930  64.7095840
  15.8960480   8.0765400  58.7069070  15.2772900   7.7384950  58.0595370
  15.8784930   7.4325160  59.4148260  15.3387040   4.2549940  66.1234880
  14.9258220   5.0803650  66.3774870  14.6062990   3.6694980  65.9311240
   7.4719830   7.0409840  60.9853550   7.0676830   6.3287090  60.4899450
   7.5582950   6.6963080  61.8741590   7.9401530  10.7277400  63.1492760
   7.6429820  10.1222870  62.4700540   8.8901350  10.7654710  63.0382120
   6.1848450   3.8153050  64.7652590   6.7363040   3.9248390  63.9905840
   6.6991960   4.1890650  65.4807820  16.0287140  14.3009270  66.8115860
  15.5517700  15.1081460  66.6188470  15.3448930  13.6487600  66.9642070
   7.0319960  10.4659090  69.8000560   6.1348490  10.6899060  70.0473960
   7.0572830  10.5894030  68.8511960  14.0725180   7.3152210  55.7141820
  14.5118460   6.4774640  55.5679640  14.7853600   7.9481610  55.8005960
   5.8591180   7.3372410  68.3757930   5.7198950   8.2095210  68.7445330
   4.9772540   6.9945220  68.2305870  12.1820560  12.2548280  59.6823060
  12.6216470  12.9972610  59.2678450  12.1207450  12.4974850  60.6062020
   7.6571530  13.2794110  70.5843080   7.6286960  13.6837060  69.7171510
   7.4936500  12.3504470  70.4214680   4.1724460   5.9354820  58.4860200
   4.0522060   6.6616910  57.8741470   3.8625350   5.1657730  58.0088110
  19.6086350  14.0621210  71.8807250  20.0846070  14.5404100  72.5596330
  20.2293510  13.9938700  71.1552750   1.8109830   9.1069960  64.2928840
   1.8890250   9.2418730  63.3484560   2.4251510   8.3985850  64.4856960
   3.0557460  10.8070150  60.7035020   2.6485540  10.9484740  59.8488620
   3.9470470  10.5230310  60.5006230  19.0119600  11.2534060  69.0407260
  19.1382660  11.0145940  68.1224440  19.0540980  10.4218600  69.5129340
  12.8736340  14.9562060  67.6102070  13.3881010  14.8670070  68.4124500
  12.0305420  15.3021760  67.9029980  14.8490740  15.2417400  57.0386070
  14.6891880  14.9520340  57.9367900  14.6837450  14.4657530  56.5031300
   7.3279120  15.0215930  58.8157690   7.1521600  14.1051470  58.6025490
   6.4734860  15.3803220  59.0555490  14.5516870  12.7504960  55.5984070
  13.8582030  12.7482250  54.9386350  15.2939730  12.3264280  55.1678240
  14.1166800  14.3767670  59.6732560  14.5723750  13.5957050  59.9871180
  14.4559320  15.0874490  60.2173740  18.8643610   3.3066520  70.0057000
  18.2487880   3.8146190  69.4772460  18.5440030   2.4064850  69.9482940
   1.8669350  10.1484130  66.8323300   2.0300390   9.6789490  66.0142670
   2.3321800   9.6407690  67.4972140  15.9262440   3.3667360  68.6015850
  15.0756030   3.0673110  68.9224920  15.7664230   3.6109370  67.6899670
  13.0212150   4.8669110  70.7014640  13.3465560   4.0332860  70.3616870
  13.8092480   5.3897630  70.8492970   6.4302340   4.4023460  59.5965120
   6.2043260   4.1860630  60.5011740   5.6494870   4.8351920  59.2511090
  13.6600100   4.4086830  58.1955770  13.0608990   5.1322630  58.0119390
  14.2079710   4.3463610  57.4132220   8.8701550   5.3009040  70.2625390
   8.7745150   4.3603770  70.1125790   9.7133530   5.5224110  69.8673460
  12.2664970   3.0450370  60.2259050  12.6594540   3.3622570  59.4127740
  12.6281820   2.1662250  60.3403570  12.8520110   5.6356120  64.3209830
  12.1201230   6.1442930  64.6699930  12.4544450   4.8186100  64.0198610
   9.2897500   2.3110320  62.7262320   9.2933560   1.8700270  61.8766860
  10.1848620   2.6327650  62.8334140   5.1399880   2.1936810  61.6856530
   4.7999930   2.6712040  62.4423580   4.3777200   1.7401930  61.3257630
   9.3517650   3.3122400  55.7169080   9.4730470   3.2708880  56.6654900
   8.9666160   4.1746550  55.5615810   8.3639150   5.6223540  55.1152380
   7.7956050   5.1741790  54.4888290   9.0728150   5.9816320  54.5817530
   3.4408330   9.5235560  68.9919110   3.0563120   8.8829230  69.5902070
   3.7520520  10.2271680  69.5613840   9.5905470   6.3712100  64.4727730
   9.9575600   5.8970670  65.2189070   9.4010530   7.2453670  64.8136070
   7.3804840   5.4120740  66.7911940   7.0761910   6.2912720  67.0162300
   8.3351300   5.4720530  66.8269380   5.9086630   9.6181730  57.3878790
   5.1348890   9.0779350  57.2277510   6.6381260   9.0988340  57.0496550
  16.6674610   8.6147090  63.1805180  17.3873730   9.1102380  62.7901290
  16.4656430   7.9364980  62.5359050  12.0493410   8.6856150  69.0674180
  11.9830720   7.7651820  68.8131770  11.4198550   8.7831590  69.7818820
  14.8432940   4.3804700  55.6196730  15.7312560   4.6921930  55.4448070
  14.8138030   3.5076950  55.2277310   5.9524030   9.2862110  61.0257600
   6.4702700   8.4830370  60.9714490   5.5008050   9.2241250  61.8674430
  10.8393530  10.5528390  56.2984900  11.1809230  11.2970620  55.8028220
  10.0106240  10.8659510  56.6609730   3.4368570   6.2523480  67.9383300
   3.0783510   6.9177330  68.5256640   3.1423130   5.4207030  68.3095920
   6.6381690   6.7107720  70.8222850   6.3381830   6.8564900  69.9250670
   7.4092930   6.1513010  70.7296240  11.9810140  11.5076720  68.8177980
  11.9954680  10.5757680  68.5996890  11.2735240  11.5936480  69.4567750
  17.1147210   5.6916540  55.0876590  17.0310930   6.1230760  54.2373030
  17.8341400   6.1514890  55.5203410  18.1921350   8.1484060  68.1646560
  17.4669540   8.7412840  67.9675950  18.7196810   8.1407600  67.3659930
  18.1434460  12.5458800  57.8158720  17.5010620  11.8914420  58.0902440
  17.7565120  12.9513890  57.0399390  13.7220940   9.8744230  61.6630410
  14.0744760   9.2772360  61.0031780  12.8383270   9.5488460  61.8338660
   9.8084220  10.6341920  59.0700820  10.4955350  11.1811130  59.4508410
   9.0216640  11.1782650  59.1050430   9.1111430   7.6387950  58.6826180
   9.5674210   8.4493200  58.9086370   8.7599640   7.3211090  59.5144670
  11.4144040  13.1494290  65.9118480  12.0586260  13.3553670  66.5891900
  11.7773480  12.3882690  65.4589330  12.6876120  11.1526640  64.6295930
  13.3298350  10.4519800  64.7428100  13.2125470  11.9325080  64.4492820
  16.5331840  11.4375260  54.3535070  16.3069420  10.7205700  54.9459710
  16.1428040  11.1887700  53.5156820  14.4613740  11.9521540  67.8331990
  14.7969980  12.5388230  68.5109910  13.5414080  11.8214250  68.0629780
   2.3147870  15.4642120  55.1279530   2.6745510  16.0631460  54.4736800
   2.1740210  16.0102010  55.9014560  16.1148090   9.3547200  56.0149230
  15.8269790   9.8159890  56.8027110  16.9100260   8.8944970  56.2833450
   2.2989730  13.7296980  69.6021930   2.4080850  12.7891720  69.4617320
   1.6470290  13.9951730  68.9535660  10.2902320  12.0012870  71.0020050
   9.9699190  11.2822110  71.5465740   9.6160680  12.6767940  71.0756110
   8.3316490  12.8473320  55.9453200   8.3226590  13.5803010  55.3297710
   7.4114850  12.6004900  56.0380160   3.9323130   8.0688210  56.6899960
   3.3251080   8.8087110  56.6995260   4.4072480   8.1587570  55.8638160
  11.3176090  12.9101560  54.6078390  11.4188070  12.7065550  53.6780370
  10.4177830  12.6559840  54.8126170   8.8401980   3.4681920  58.5902290
   8.1318130   3.9368260  59.0315900   9.1246460   2.8103930  59.2247480
  10.4657910   4.8878620  66.5894820  10.9643160   5.3624440  67.2546670
  10.6080860   3.9642140  66.7964850   9.9594200  15.4287880  59.3026060
  10.2135700  15.3909270  58.3805430   9.0106680  15.3021210  59.2954310
   7.0437000   1.7767000  55.9653000   7.8927530   2.2137150  55.8993190
   6.6768270   2.0887260  56.7925060  15.9646780   6.3479760  60.8784570
  15.0236920   6.3629990  61.0532260  16.2790850   5.5615720  61.3244870
   5.9428420   8.0299360  54.4388530   6.7091690   7.9180720  55.0013960
   6.0203110   7.3337330  53.7865300   4.6375180   5.4624430  55.1221420
   4.7178770   4.5151940  55.2338820   5.5294930   5.7931310  55.2282080
  17.9672360  13.5188610  62.5538830  18.0919780  14.3419780  63.0262640
  18.8337920  13.3079340  62.2062980   5.4389890  15.6119820  62.2255960
   6.1752370  15.0635280  62.4964530   5.8230810  16.4775830  62.0861950
   4.4448170  14.7965890  71.4141540   5.2460900  15.1177940  71.8276940
   3.9299990  14.4361470  72.1361450   8.5492200  14.7850130  54.0481530
   9.3420810  15.0738960  53.5963320   8.0296550  14.3542300  53.3694010
  13.2812800  10.9045760  71.3616950  12.6750960  10.9277360  70.6212700
  12.9766910  10.1728800  71.8984200  14.7113170  14.6326050  69.9726360
  15.6634920  14.5484070  69.9226600  14.5641390  15.2967760  70.6460150
  17.6022370  14.0120260  55.4718270  17.3163880  13.5985400  54.6572450
  17.4041920  14.9407970  55.3518790   9.0669600  10.0053540  53.9123880
   8.9620240   9.3905890  54.6385260   8.8993820   9.4819430  53.1286890
   9.2183920   8.6910340  69.8913110   8.4529590   9.2595340  69.8067780
   9.3999880   8.3986550  68.9981340  12.3072330   9.0673570  54.5165870
  11.7582430   9.5142870  55.1608610  12.9291590   8.5622820  55.0403540
  16.3607270  10.4215670  70.4488130  17.1016740  10.7591430  69.9455590
  15.5979950  10.5907730  69.8957900   4.1969060   5.4268940  71.2527660
   4.2374400   5.1282810  72.1612890   5.0514560   5.8276550  71.0935180
   7.9747450   8.0264490  56.4131170   8.3963870   7.8604360  57.2562560
   8.0998290   7.2164720  55.9186310   6.1374870   4.0061040  69.2202150
   5.6071330   3.5151990  68.5925490   6.8062940   4.4345240  68.6860080
  10.4875090   7.0502100  53.6608270  11.0080750   6.3351120  53.2949420
  11.1343490   7.6887970  53.9608780  15.0352930   8.4730500  68.9843340
  15.4493950   8.6275580  69.8333760  14.1003930   8.5985720  69.1469120
  15.5075100   5.8126660  70.9882490  16.0895870   5.0578980  70.9002970
  15.6836870   6.3434100  70.2113970   9.7968160   8.4250980  66.9539270
  10.2156270   9.2683710  66.7815510   8.8776790   8.5623020  66.7246050
  12.1332060   6.1567160  68.3377110  12.2528270   5.5608300  69.0771950
  12.9926060   6.1936850  67.9178410  14.4719960   6.7104350  66.9139620
  13.9455180   7.2346970  66.3104760  14.8151300   7.3431740  67.5449350
   6.8706350   4.0997720  53.3589330   6.6695410   3.2365080  53.7202670
   6.6998400   4.0131080  52.4210930   7.6475580  14.7303990  68.0697000
   7.1096670  15.4550050  67.7505700   7.9009540  14.2534330  67.2794340
   8.9000830   2.6988510  69.5952930   9.4900520   2.3904360  70.2830750
   8.0821070   2.2268260  69.7512830  13.7194260   2.3154320  69.8285950
  13.0309780   1.6535860  69.7635940  14.4400280   1.8692590  70.2734410
  10.5037790  15.9655200  68.3283650  10.4296490  16.8690340  68.6356020
   9.6016630  15.6467100  68.3005720  11.0523120  15.1313710  55.9510010
  11.9473910  15.4698680  55.9728770  11.0840750  14.4093120  55.3234290
   4.6919280  10.5040760  54.1797010   5.1294150  11.0470430  54.8354590
   5.1767010   9.6787710  54.1893350   1.9065080  13.2929790  61.6317270
   2.2368090  12.4250850  61.3995910   2.3356080  13.4988310  62.4622230
   6.5027000  11.6238800  59.2919240   6.2022540  11.5003770  60.1923150
   6.3964490  10.7647390  58.8834970   2.3955290  14.1600380  64.3698900
   1.9586280  14.3401180  65.2023050   2.9632970  14.9175000  64.2280620
  18.0317470  13.6617380  68.6576210  17.4319460  13.7209940  67.9140130
  18.1611370  12.7222360  68.7873060  19.2718920  11.4035200  53.9945920
  18.4411880  11.4711850  54.4653150  19.4490750  12.2939320  53.6912780
  18.7275380   8.1482680  56.4980120  19.4894290   8.7179330  56.6039810
  18.7429750   7.5809880  57.2688430   2.2279720   6.6720610  60.7287780
   1.5728560   6.4032250  60.0847480   3.0657670   6.5625090  60.2789760
  19.7335350   9.0032780  61.3422050  20.1044180   8.2200100  60.9358020
  20.3737280   9.6921880  61.1639350  16.7169110  10.3869360  66.7552370
  15.9028950  10.8166520  67.0178160  17.1243310  10.9987770  66.1421420
  18.7794550   8.4417050  53.6552640  19.0543390   9.3495930  53.5271860
  18.5905290   8.3779580  54.5914630  18.6759890   6.3786040  58.6482070
  18.3003490   5.6113970  58.2163360  17.9463010   6.7608740  59.1357000
   3.2655650   7.0573180  65.2691120   3.6328690   6.9700580  66.1487140
   2.6966470   6.2939730  65.1697980  18.0659510   5.5257560  68.2821590
  17.8345600   5.2970310  67.3819540  18.3264060   6.4457110  68.2366480
   2.8171650   3.9682270  69.1749540   1.9227700   3.9349030  69.5143250
   3.3569200   4.1669060  69.9400790  17.9510850   4.6043530  61.9489310
  18.4748330   4.1106180  61.3179480  18.5370270   4.7393890  62.6936880
  18.1300570   4.6883400  65.4708860  17.1803280   4.6546940  65.5853850
  18.3113580   5.5983510  65.2358630   3.9845010   2.9385080  54.5807490
   4.6936710   2.5168300  54.0954770   3.2684950   3.0060310  53.9490840
  17.4410820   3.8616880  57.8881720  17.9369940   3.6287750  58.6730600
  17.2426890   3.0228720  57.4719360  18.8697980   2.4977830  60.4219400
  18.7597260   2.3433870  61.3601670  19.6305570   1.9698770  60.1794810
  16.7745160  15.1387960  60.2820640  17.3704230  14.8172530  59.6055060
  17.0323310  14.6659780  61.0733910   4.6807730  11.5705870  70.4311270
   4.6377360  11.1998780  71.3125730   4.8118740  12.5083440  70.5713090
   8.3813760  13.1265460  66.0320990   8.1405120  13.3940020  65.1451510
   9.3216400  13.2971190  66.0871850  19.6417920  15.1459840  66.8331630
  19.1476200  15.5428710  66.1158760  19.0331210  14.5209050  67.2268910
   4.5195760  14.5168120  67.5509050   3.9256080  14.3852820  68.2899090
   4.5119600  13.6806260  67.0851150  17.3257370  15.7883260  64.1118370
  16.8660340  16.5399070  63.7376390  16.6969830  15.0689730  64.0533170
   4.1507990  11.8826500  66.5017090   3.4242050  11.2631790  66.4343040
   4.2117140  12.2767110  65.6315170   7.7553090  14.0971500  63.2866500
   8.2718110  13.4858860  62.7614760   8.4050470  14.6000280  63.7777510
  10.4948590  14.9879990  64.1135480  10.7826400  14.7334290  63.2368490
  11.0071810  14.4357350  64.7041050   2.4337990  15.2000890  59.7113850
   2.2660030  14.5671570  60.4095740   1.5672500  15.4060290  59.3608040
   4.0400690  13.8934120  57.1563990   3.5148310  14.2742150  56.4525950
   3.9645270  14.5184890  57.8773700  10.5620950  15.9096090  71.4803680
  11.4888260  15.6740360  71.5239640  10.5471380  16.7368090  70.9989710
  18.7966010  15.4521660  58.4777930  18.9718200  14.7659400  57.8338850
  18.0987580  15.9768710  58.0854600   6.6393660  15.8416500  56.0313240
   7.3712480  15.5575780  55.4837130   6.8987330  15.6029780  56.9212620
   5.8008450  11.9581230  56.0359570   5.1717330  12.4266330  56.5845400
   5.9156280  11.1130450  56.4705760  17.1298510  15.1365950  71.3044720
  17.9223830  14.6415180  71.0970680  17.4231660  15.8156090  71.9120330
  13.2558170   6.0086890  42.1860770  13.1752220   5.0941500  41.9152480
  12.8422590   6.5053960  41.4800480  11.3876210   7.7865910  44.0670040
  10.6118310   7.3066350  44.3568610  12.0389140   7.1071560  43.8926200
   5.4042040   8.0985720  44.9445800   4.5726920   7.8434430  45.3442310
   6.0123020   8.1696490  45.6803720  15.4083640  12.1926100  42.8469170
  14.9465170  11.4213340  43.1756340  16.2209190  12.2192170  43.3521620
   5.3843300  12.1325810  45.1403820   5.6871340  11.2423550  44.9614040
   6.1286890  12.6896030  44.9126070   3.8133990   3.0587610  38.7288190
   2.9250690   3.4003580  38.6268070   4.0975180   2.8587930  37.8369020
   1.7767000   5.6593260  44.6127890   2.3483110   4.8915460  44.6131530
   1.7768540   5.9582020  43.7034500  11.6346950  14.4784110  42.4673160
  11.0158390  14.9341610  41.8967600  12.4898730  14.6335570  42.0662860
  10.8285200  10.4623100  44.0740200  10.7593480   9.5213040  43.9129330
  11.5905060  10.5524510  44.6462770  11.8590370   3.2693480  44.3009130
  12.2355190   2.3965360  44.1882800  11.7609880   3.6052180  43.4099570
   3.6378540   3.5638120  45.0079160   4.3188650   3.8276490  45.6266560
   3.3226590   2.7238990  45.3417170   7.8303110   4.6105480  44.0951750
   8.3381330   5.1086450  44.7356770   8.3616350   3.8340680  43.9191110
  19.9314040   2.7810670  47.7981100  19.2266210   3.1692380  47.2796210
  20.1971960   3.4760960  48.4002030  12.5010300   9.3623350  39.8605070
  11.8827570   9.8272800  39.2967790  13.0133550  10.0550830  40.2774580
   7.3642060   8.8899220  46.5388670   7.0311440   9.5168140  47.1809740
   7.5408740   9.4161100  45.7590340  15.8775970   2.7044300  44.0065010
  15.1731540   2.9929190  44.5868120  16.2388130   3.5144410  43.6464570
   6.5761160  10.8580020  48.3537850   7.1935160  11.5331100  48.0722300
   5.7154280  11.2668000  48.2625350  17.4938750  12.3219430  46.2692490
  16.8102270  12.9918540  46.2609160  18.0333040  12.5200080  45.5037350
  18.9462890   2.1499090  44.3974220  17.9987800   2.1838070  44.5289650
  19.2712880   2.9638040  44.7823580  15.0297490  14.1663560  44.9837670
  15.0424650  13.7625850  44.1159930  14.4772710  14.9410850  44.8799100
  16.3242910  10.8879780  40.0727840  16.2139240   9.9454110  40.1977260
  16.3211160  11.2495420  40.9590600  14.4282930   9.0693400  46.3120280
  14.8451720   8.8553510  45.4773740  15.1522750   9.3266190  46.8828900
  11.8663190   6.5145100  39.4290330  10.9392470   6.4482480  39.6578800
  12.0188010   7.4525230  39.3145570  11.8532270   2.7862100  36.4257490
  10.9135940   2.9476060  36.5109950  12.1715530   3.5047780  35.8793480
  18.3745030   7.4680620  46.4036520  17.5463660   7.5373710  45.9286650
  18.9695510   8.0534930  45.9352350  15.8960480   8.0765400  39.9325580
  15.2772900   7.7384950  39.2851880  15.8784930   7.4325160  40.6404770
  15.3387040   4.2549940  47.3491390  14.9258220   5.0803650  47.6031380
  14.6062990   3.6694980  47.1567750   7.4719830   7.0409840  42.2110060
   7.0676830   6.3287090  41.7155960   7.5582950   6.6963080  43.0998100
   7.9401530  10.7277400  44.3749270   7.6429820  10.1222870  43.6957050
   8.8901350  10.7654710  44.2638630   6.1848450   3.8153050  45.9909100
   6.7363040   3.9248390  45.2162350   6.6991960   4.1890650  46.7064330
  16.0287140  14.3009270  48.0372370  15.5517700  15.1081460  47.8444980
  15.3448930  13.6487600  48.1898580   7.0319960  10.4659090  51.0257070
   6.1348490  10.6899060  51.2730470   7.0572830  10.5894030  50.0768470
  14.0725180   7.3152210  36.9398330  14.5118460   6.4774640  36.7936150
  14.7853600   7.9481610  37.0262470   5.8591180   7.3372410  49.6014440
   5.7198950   8.2095210  49.9701840   4.9772540   6.9945220  49.4562380
  12.1820560  12.2548280  40.9079570  12.6216470  12.9972610  40.4934960
  12.1207450  12.4974850  41.8318530   7.6571530  13.2794110  51.8099590
   7.6286960  13.6837060  50.9428020   7.4936500  12.3504470  51.6471190
   4.1724460   5.9354820  39.7116710   4.0522060   6.6616910  39.0997980
   3.8625350   5.1657730  39.2344620  19.6086350  14.0621210  53.1063760
  20.0846070  14.5404100  53.7852840  20.2293510  13.9938700  52.3809260
   1.8109830   9.1069960  45.5185350   1.8890250   9.2418730  44.5741070
   2.4251510   8.3985850  45.7113470   3.0557460  10.8070150  41.9291530
   2.6485540  10.9484740  41.0745130   3.9470470  10.5230310  41.7262740
  19.0119600  11.2534060  50.2663770  19.1382660  11.0145940  49.3480950
  19.0540980  10.4218600  50.7385850  12.8736340  14.9562060  48.8358580
  13.3881010  14.8670070  49.6381010  12.0305420  15.3021760  49.1286490
  14.8490740  15.2417400  38.2642580  14.6891880  14.9520340  39.1624410
  14.6837450  14.4657530  37.7287810   7.3279120  15.0215930  40.0414200
   7.1521600  14.1051470  39.8282000   6.4734860  15.3803220  40.2812000
  14.5516870  12.7504960  36.8240580  13.8582030  12.7482250  36.1642860
  15.2939730  12.3264280  36.3934750  14.1166800  14.3767670  40.8989070
  14.5723750  13.5957050  41.2127690  14.4559320  15.0874490  41.4430250
  18.8643610   3.3066520  51.2313510  18.2487880   3.8146190  50.7028970
  18.5440030   2.4064850  51.1739450   1.8669350  10.1484130  48.0579810
   2.0300390   9.6789490  47.2399180   2.3321800   9.6407690  48.7228650
  15.9262440   3.3667360  49.8272360  15.0756030   3.0673110  50.1481430
  15.7664230   3.6109370  48.9156180  13.0212150   4.8669110  51.9271150
  13.3465560   4.0332860  51.5873380  13.8092480   5.3897630  52.0749480
   6.4302340   4.4023460  40.8221630   6.2043260   4.1860630  41.7268250
   5.6494870   4.8351920  40.4767600  13.6600100   4.4086830  39.4212280
  13.0608990   5.1322630  39.2375900  14.2079710   4.3463610  38.6388730
   8.8701550   5.3009040  51.4881900   8.7745150   4.3603770  51.3382300
   9.7133530   5.5224110  51.0929970  12.2664970   3.0450370  41.4515560
  12.6594540   3.3622570  40.6384250  12.6281820   2.1662250  41.5660080
  12.8520110   5.6356120  45.5466340  12.1201230   6.1442930  45.8956440
  12.4544450   4.8186100  45.2455120   9.2897500   2.3110320  43.9518830
   9.2933560   1.8700270  43.1023370  10.1848620   2.6327650  44.0590650
   5.1399880   2.1936810  42.9113040   4.7999930   2.6712040  43.6680090
   4.3777200   1.7401930  42.5514140   9.3517650   3.3122400  36.9425590
   9.4730470   3.2708880  37.8911410   8.9666160   4.1746550  36.7872320
   8.3639150   5.6223540  36.3408890   7.7956050   5.1741790  35.7144800
   9.0728150   5.9816320  35.8074040   3.4408330   9.5235560  50.2175620
   3.0563120   8.8829230  50.8158580   3.7520520  10.2271680  50.7870350
   9.5905470   6.3712100  45.6984240   9.9575600   5.8970670  46.4445580
   9.4010530   7.2453670  46.0392580   7.3804840   5.4120740  48.0168450
   7.0761910   6.2912720  48.2418810   8.3351300   5.4720530  48.0525890
   5.9086630   9.6181730  38.6135300   5.1348890   9.0779350  38.4534020
   6.6381260   9.0988340  38.2753060  16.6674610   8.6147090  44.4061690
  17.3873730   9.1102380  44.0157800  16.4656430   7.9364980  43.7615560
  12.0493410   8.6856150  50.2930690  11.9830720   7.7651820  50.0388280
  11.4198550   8.7831590  51.0075330  14.8432940   4.3804700  36.8453240
  15.7312560   4.6921930  36.6704580  14.8138030   3.5076950  36.4533820
   5.9524030   9.2862110  42.2514110   6.4702700   8.4830370  42.1971000
   5.5008050   9.2241250  43.0930940  10.8393530  10.5528390  37.5241410
  11.1809230  11.2970620  37.0284730  10.0106240  10.8659510  37.8866240
   3.4368570   6.2523480  49.1639810   3.0783510   6.9177330  49.7513150
   3.1423130   5.4207030  49.5352430   6.6381690   6.7107720  52.0479360
   6.3381830   6.8564900  51.1507180   7.4092930   6.1513010  51.9552750
  11.9810140  11.5076720  50.0434490  11.9954680  10.5757680  49.8253400
  11.2735240  11.5936480  50.6824260  17.1147210   5.6916540  36.3133100
  17.0310930   6.1230760  35.4629540  17.8341400   6.1514890  36.7459920
  18.1921350   8.1484060  49.3903070  17.4669540   8.7412840  49.1932460
  18.7196810   8.1407600  48.5916440  18.1434460  12.5458800  39.0415230
  17.5010620  11.8914420  39.3158950  17.7565120  12.9513890  38.2655900
  13.7220940   9.8744230  42.8886920  14.0744760   9.2772360  42.2288290
  12.8383270   9.5488460  43.0595170   9.8084220  10.6341920  40.2957330
  10.4955350  11.1811130  40.6764920   9.0216640  11.1782650  40.3306940
   9.1111430   7.6387950  39.9082690   9.5674210   8.4493200  40.1342880
   8.7599640   7.3211090  40.7401180  11.4144040  13.1494290  47.1374990
  12.0586260  13.3553670  47.8148410  11.7773480  12.3882690  46.6845840
  12.6876120  11.1526640  45.8552440  13.3298350  10.4519800  45.9684610
  13.2125470  11.9325080  45.6749330  16.5331840  11.4375260  35.5791580
  16.3069420  10.7205700  36.1716220  16.1428040  11.1887700  34.7413330
  14.4613740  11.9521540  49.0588500  14.7969980  12.5388230  49.7366420
  13.5414080  11.8214250  49.2886290   2.3147870  15.4642120  36.3536040
   2.6745510  16.0631460  35.6993310   2.1740210  16.0102010  37.1271070
  16.1148090   9.3547200  37.2405740  15.8269790   9.8159890  38.0283620
  16.9100260   8.8944970  37.5089960   2.2989730  13.7296980  50.8278440
   2.4080850  12.7891720  50.6873830   1.6470290  13.9951730  50.1792170
  10.2902320  12.0012870  52.2276560   9.9699190  11.2822110  52.7722250
   9.6160680  12.6767940  52.3012620   8.3316490  12.8473320  37.1709710
   8.3226590  13.5803010  36.5554220   7.4114850  12.6004900  37.2636670
   3.9323130   8.0688210  37.9156470   3.3251080   8.8087110  37.9251770
   4.4072480   8.1587570  37.0894670  11.3176090  12.9101560  35.8334900
  11.4188070  12.7065550  34.9036880  10.4177830  12.6559840  36.0382680
   8.8401980   3.4681920  39.8158800   8.1318130   3.9368260  40.2572410
   9.1246460   2.8103930  40.4503990  10.4657910   4.8878620  47.8151330
  10.9643160   5.3624440  48.4803180  10.6080860   3.9642140  48.0221360
   9.9594200  15.4287880  40.5282570  10.2135700  15.3909270  39.6061940
   9.0106680  15.3021210  40.5210820   7.0437000   1.7767000  37.1909510
   7.8927530   2.2137150  37.1249700   6.6768270   2.0887260  38.0181570
  15.9646780   6.3479760  42.1041080  15.0236920   6.3629990  42.2788770
  16.2790850   5.5615720  42.5501380   5.9428420   8.0299360  35.6645040
   6.7091690   7.9180720  36.2270470   6.0203110   7.3337330  35.0121810
   4.6375180   5.4624430  36.3477930   4.7178770   4.5151940  36.4595330
   5.5294930   5.7931310  36.4538590  17.9672360  13.5188610  43.7795340
  18.0919780  14.3419780  44.2519150  18.8337920  13.3079340  43.4319490
   5.4389890  15.6119820  43.4512470   6.1752370  15.0635280  43.7221040
   5.8230810  16.4775830  43.3118460   4.4448170  14.7965890  52.6398050
   5.2460900  15.1177940  53.0533450   3.9299990  14.4361470  53.3617960
   8.5492200  14.7850130  35.2738040   9.3420810  15.0738960  34.8219830
   8.0296550  14.3542300  34.5950520  13.2812800  10.9045760  52.5873460
  12.6750960  10.9277360  51.8469210  12.9766910  10.1728800  53.1240710
  14.7113170  14.6326050  51.1982870  15.6634920  14.5484070  51.1483110
  14.5641390  15.2967760  51.8716660  17.6022370  14.0120260  36.6974780
  17.3163880  13.5985400  35.8828960  17.4041920  14.9407970  36.5775300
   9.0669600  10.0053540  35.1380390   8.9620240   9.3905890  35.8641770
   8.8993820   9.4819430  34.3543400   9.2183920   8.6910340  51.1169620
   8.4529590   9.2595340  51.0324290   9.3999880   8.3986550  50.2237850
  12.3072330   9.0673570  35.7422380  11.7582430   9.5142870  36.3865120
  12.9291590   8.5622820  36.2660050  16.3607270  10.4215670  51.6744640
  17.1016740  10.7591430  51.1712100  15.5979950  10.5907730  51.1214410
   4.1969060   5.4268940  52.4784170   4.2374400   5.1282810  53.3869400
   5.0514560   5.8276550  52.3191690   7.9747450   8.0264490  37.6387680
   8.3963870   7.8604360  38.4819070   8.0998290   7.2164720  37.1442820
   6.1374870   4.0061040  50.4458660   5.6071330   3.5151990  49.8182000
   6.8062940   4.4345240  49.9116590  10.4875090   7.0502100  34.8864780
  11.0080750   6.3351120  34.5205930  11.1343490   7.6887970  35.1865290
  15.0352930   8.4730500  50.2099850  15.4493950   8.6275580  51.0590270
  14.1003930   8.5985720  50.3725630  15.5075100   5.8126660  52.2139000
  16.0895870   5.0578980  52.1259480  15.6836870   6.3434100  51.4370480
   9.7968160   8.4250980  48.1795780  10.2156270   9.2683710  48.0072020
   8.8776790   8.5623020  47.9502560  12.1332060   6.1567160  49.5633620
  12.2528270   5.5608300  50.3028460  12.9926060   6.1936850  49.1434920
  14.4719960   6.7104350  48.1396130  13.9455180   7.2346970  47.5361270
  14.8151300   7.3431740  48.7705860   6.8706350   4.0997720  34.5845840
   6.6695410   3.2365080  34.9459180   6.6998400   4.0131080  33.6467440
   7.6475580  14.7303990  49.2953510   7.1096670  15.4550050  48.9762210
   7.9009540  14.2534330  48.5050850   8.9000830   2.6988510  50.8209440
   9.4900520   2.3904360  51.5087260   8.0821070   2.2268260  50.9769340
  13.7194260   2.3154320  51.0542460  13.0309780   1.6535860  50.9892450
  14.4400280   1.8692590  51.4990920  10.5037790  15.9655200  49.5540160
  10.4296490  16.8690340  49.8612530   9.6016630  15.6467100  49.5262230
  11.0523120  15.1313710  37.1766520  11.9473910  15.4698680  37.1985280
  11.0840750  14.4093120  36.5490800   4.6919280  10.5040760  35.4053520
   5.1294150  11.0470430  36.0611100   5.1767010   9.6787710  35.4149860
   1.9065080  13.2929790  42.8573780   2.2368090  12.4250850  42.6252420
   2.3356080  13.4988310  43.6878740   6.5027000  11.6238800  40.5175750
   6.2022540  11.5003770  41.4179660   6.3964490  10.7647390  40.1091480
   2.3955290  14.1600380  45.5955410   1.9586280  14.3401180  46.4279560
   2.9632970  14.9175000  45.4537130  18.0317470  13.6617380  49.8832720
  17.4319460  13.7209940  49.1396640  18.1611370  12.7222360  50.0129570
  19.2718920  11.4035200  35.2202430  18.4411880  11.4711850  35.6909660
  19.4490750  12.2939320  34.9169290  18.7275380   8.1482680  37.7236630
  19.4894290   8.7179330  37.8296320  18.7429750   7.5809880  38.4944940
   2.2279720   6.6720610  41.9544290   1.5728560   6.4032250  41.3103990
   3.0657670   6.5625090  41.5046270  19.7335350   9.0032780  42.5678560
  20.1044180   8.2200100  42.1614530  20.3737280   9.6921880  42.3895860
  16.7169110  10.3869360  47.9808880  15.9028950  10.8166520  48.2434670
  17.1243310  10.9987770  47.3677930  18.7794550   8.4417050  34.8809150
  19.0543390   9.3495930  34.7528370  18.5905290   8.3779580  35.8171140
  18.6759890   6.3786040  39.8738580  18.3003490   5.6113970  39.4419870
  17.9463010   6.7608740  40.3613510   3.2655650   7.0573180  46.4947630
   3.6328690   6.9700580  47.3743650   2.6966470   6.2939730  46.3954490
  18.0659510   5.5257560  49.5078100  17.8345600   5.2970310  48.6076050
  18.3264060   6.4457110  49.4622990   2.8171650   3.9682270  50.4006050
   1.9227700   3.9349030  50.7399760   3.3569200   4.1669060  51.1657300
  17.9510850   4.6043530  43.1745820  18.4748330   4.1106180  42.5435990
  18.5370270   4.7393890  43.9193390  18.1300570   4.6883400  46.6965370
  17.1803280   4.6546940  46.8110360  18.3113580   5.5983510  46.4615140
   3.9845010   2.9385080  35.8064000   4.6936710   2.5168300  35.3211280
   3.2684950   3.0060310  35.1747350  17.4410820   3.8616880  39.1138230
  17.9369940   3.6287750  39.8987110  17.2426890   3.0228720  38.6975870
  18.8697980   2.4977830  41.6475910  18.7597260   2.3433870  42.5858180
  19.6305570   1.9698770  41.4051320  16.7745160  15.1387960  41.5077150
  17.3704230  14.8172530  40.8311570  17.0323310  14.6659780  42.2990420
   4.6807730  11.5705870  51.6567780   4.6377360  11.1998780  52.5382240
   4.8118740  12.5083440  51.7969600   8.3813760  13.1265460  47.2577500
   8.1405120  13.3940020  46.3708020   9.3216400  13.2971190  47.3128360
  19.6417920  15.1459840  48.0588140  19.1476200  15.5428710  47.3415270
  19.0331210  14.5209050  48.4525420   4.5195760  14.5168120  48.7765560
   3.9256080  14.3852820  49.5155600   4.5119600  13.6806260  48.3107660
  17.3257370  15.7883260  45.3374880  16.8660340  16.5399070  44.9632900
  16.6969830  15.0689730  45.2789680   4.1507990  11.8826500  47.7273600
   3.4242050  11.2631790  47.6599550   4.2117140  12.2767110  46.8571680
   7.7553090  14.0971500  44.5123010   8.2718110  13.4858860  43.9871270
   8.4050470  14.6000280  45.0034020  10.4948590  14.9879990  45.3391990
  10.7826400  14.7334290  44.4625000  11.0071810  14.4357350  45.9297560
   2.4337990  15.2000890  40.9370360   2.2660030  14.5671570  41.6352250
   1.5672500  15.4060290  40.5864550   4.0400690  13.8934120  38.3820500
   3.5148310  14.2742150  37.6782460   3.9645270  14.5184890  39.1030210
  10.5620950  15.9096090  52.7060190  11.4888260  15.6740360  52.7496150
  10.5471380  16.7368090  52.2246220  18.7966010  15.4521660  39.7034440
  18.9718200  14.7659400  39.0595360  18.0987580  15.9768710  39.3111110
   6.6393660  15.8416500  37.2569750   7.3712480  15.5575780  36.7093640
   6.8987330  15.6029780  38.1469130   5.8008450  11.9581230  37.2616080
   5.1717330  12.4266330  37.8101910   5.9156280  11.1130450  37.6962270
  17.1298510  15.1365950  52.5301230  17.9223830  14.6415180  52.3227190
  17.4231660  15.8156090  53.1376840  13.2558170   6.0086890  23.4117280
  13.1752220   5.0941500  23.1408990  12.8422590   6.5053960  22.7056990
  11.3876210   7.7865910  25.2926550  10.6118310   7.3066350  25.5825120
  12.0389140   7.1071560  25.1182710   5.4042040   8.0985720  26.1702310
   4.5726920   7.8434430  26.5698820   6.0123020   8.1696490  26.9060230
  15.4083640  12.1926100  24.0725680  14.9465170  11.4213340  24.4012850
  16.2209190  12.2192170  24.5778130   5.3843300  12.1325810  26.3660330
   5.6871340  11.2423550  26.1870550   6.1286890  12.6896030  26.1382580
   3.8133990   3.0587610  19.9544700   2.9250690   3.4003580  19.8524580
   4.0975180   2.8587930  19.0625530   1.7767000   5.6593260  25.8384400
   2.3483110   4.8915460  25.8388040   1.7768540   5.9582020  24.9291010
  11.6346950  14.4784110  23.6929670  11.0158390  14.9341610  23.1224110
  12.4898730  14.6335570  23.2919370  10.8285200  10.4623100  25.2996710
  10.7593480   9.5213040  25.1385840  11.5905060  10.5524510  25.8719280
  11.8590370   3.2693480  25.5265640  12.2355190   2.3965360  25.4139310
  11.7609880   3.6052180  24.6356080   3.6378540   3.5638120  26.2335670
   4.3188650   3.8276490  26.8523070   3.3226590   2.7238990  26.5673680
   7.8303110   4.6105480  25.3208260   8.3381330   5.1086450  25.9613280
   8.3616350   3.8340680  25.1447620  19.9314040   2.7810670  29.0237610
  19.2266210   3.1692380  28.5052720  20.1971960   3.4760960  29.6258540
  12.5010300   9.3623350  21.0861580  11.8827570   9.8272800  20.5224300
  13.0133550  10.0550830  21.5031090   7.3642060   8.8899220  27.7645180
   7.0311440   9.5168140  28.4066250   7.5408740   9.4161100  26.9846850
  15.8775970   2.7044300  25.2321520  15.1731540   2.9929190  25.8124630
  16.2388130   3.5144410  24.8721080   6.5761160  10.8580020  29.5794360
   7.1935160  11.5331100  29.2978810   5.7154280  11.2668000  29.4881860
  17.4938750  12.3219430  27.4949000  16.8102270  12.9918540  27.4865670
  18.0333040  12.5200080  26.7293860  18.9462890   2.1499090  25.6230730
  17.9987800   2.1838070  25.7546160  19.2712880   2.9638040  26.0080090
  15.0297490  14.1663560  26.2094180  15.0424650  13.7625850  25.3416440
  14.4772710  14.9410850  26.1055610  16.3242910  10.8879780  21.2984350
  16.2139240   9.9454110  21.4233770  16.3211160  11.2495420  22.1847110
  14.4282930   9.0693400  27.5376790  14.8451720   8.8553510  26.7030250
  15.1522750   9.3266190  28.1085410  11.8663190   6.5145100  20.6546840
  10.9392470   6.4482480  20.8835310  12.0188010   7.4525230  20.5402080
  11.8532270   2.7862100  17.6514000  10.9135940   2.9476060  17.7366460
  12.1715530   3.5047780  17.1049990  18.3745030   7.4680620  27.6293030
  17.5463660   7.5373710  27.1543160  18.9695510   8.0534930  27.1608860
  15.8960480   8.0765400  21.1582090  15.2772900   7.7384950  20.5108390
  15.8784930   7.4325160  21.8661280  15.3387040   4.2549940  28.5747900
  14.9258220   5.0803650  28.8287890  14.6062990   3.6694980  28.3824260
   7.4719830   7.0409840  23.4366570   7.0676830   6.3287090  22.9412470
   7.5582950   6.6963080  24.3254610   7.9401530  10.7277400  25.6005780
   7.6429820  10.1222870  24.9213560   8.8901350  10.7654710  25.4895140
   6.1848450   3.8153050  27.2165610   6.7363040   3.9248390  26.4418860
   6.6991960   4.1890650  27.9320840  16.0287140  14.3009270  29.2628880
  15.5517700  15.1081460  29.0701490  15.3448930  13.6487600  29.4155090
   7.0319960  10.4659090  32.2513580   6.1348490  10.6899060  32.4986980
   7.0572830  10.5894030  31.3024980  14.0725180   7.3152210  18.1654840
  14.5118460   6.4774640  18.0192660  14.7853600   7.9481610  18.2518980
   5.8591180   7.3372410  30.8270950   5.7198950   8.2095210  31.1958350
   4.9772540   6.9945220  30.6818890  12.1820560  12.2548280  22.1336080
  12.6216470  12.9972610  21.7191470  12.1207450  12.4974850  23.0575040
   7.6571530  13.2794110  33.0356100   7.6286960  13.6837060  32.1684530
   7.4936500  12.3504470  32.8727700   4.1724460   5.9354820  20.9373220
   4.0522060   6.6616910  20.3254490   3.8625350   5.1657730  20.4601130
  19.6086350  14.0621210  34.3320270  20.0846070  14.5404100  35.0109350
  20.2293510  13.9938700  33.6065770   1.8109830   9.1069960  26.7441860
   1.8890250   9.2418730  25.7997580   2.4251510   8.3985850  26.9369980
   3.0557460  10.8070150  23.1548040   2.6485540  10.9484740  22.3001640
   3.9470470  10.5230310  22.9519250  19.0119600  11.2534060  31.4920280
  19.1382660  11.0145940  30.5737460  19.0540980  10.4218600  31.9642360
  12.8736340  14.9562060  30.0615090  13.3881010  14.8670070  30.8637520
  12.0305420  15.3021760  30.3543000  14.8490740  15.2417400  19.4899090
  14.6891880  14.9520340  20.3880920  14.6837450  14.4657530  18.9544320
   7.3279120  15.0215930  21.2670710   7.1521600  14.1051470  21.0538510
   6.4734860  15.3803220  21.5068510  14.5516870  12.7504960  18.0497090
  13.8582030  12.7482250  17.3899370  15.2939730  12.3264280  17.6191260
  14.1166800  14.3767670  22.1245580  14.5723750  13.5957050  22.4384200
  14.4559320  15.0874490  22.6686760  18.8643610   3.3066520  32.4570020
  18.2487880   3.8146190  31.9285480  18.5440030   2.4064850  32.3995960
   1.8669350  10.1484130  29.2836320   2.0300390   9.6789490  28.4655690
   2.3321800   9.6407690  29.9485160  15.9262440   3.3667360  31.0528870
  15.0756030   3.0673110  31.3737940  15.7664230   3.6109370  30.1412690
  13.0212150   4.8669110  33.1527660  13.3465560   4.0332860  32.8129890
  13.8092480   5.3897630  33.3005990   6.4302340   4.4023460  22.0478140
   6.2043260   4.1860630  22.9524760   5.6494870   4.8351920  21.7024110
  13.6600100   4.4086830  20.6468790  13.0608990   5.1322630  20.4632410
  14.2079710   4.3463610  19.8645240   8.8701550   5.3009040  32.7138410
   8.7745150   4.3603770  32.5638810   9.7133530   5.5224110  32.3186480
  12.2664970   3.0450370  22.6772070  12.6594540   3.3622570  21.8640760
  12.6281820   2.1662250  22.7916590  12.8520110   5.6356120  26.7722850
  12.1201230   6.1442930  27.1212950  12.4544450   4.8186100  26.4711630
   9.2897500   2.3110320  25.1775340   9.2933560   1.8700270  24.3279880
  10.1848620   2.6327650  25.2847160   5.1399880   2.1936810  24.1369550
   4.7999930   2.6712040  24.8936600   4.3777200   1.7401930  23.7770650
   9.3517650   3.3122400  18.1682100   9.4730470   3.2708880  19.1167920
   8.9666160   4.1746550  18.0128830   8.3639150   5.6223540  17.5665400
   7.7956050   5.1741790  16.9401310   9.0728150   5.9816320  17.0330550
   3.4408330   9.5235560  31.4432130   3.0563120   8.8829230  32.0415090
   3.7520520  10.2271680  32.0126860   9.5905470   6.3712100  26.9240750
   9.9575600   5.8970670  27.6702090   9.4010530   7.2453670  27.2649090
   7.3804840   5.4120740  29.2424960   7.0761910   6.2912720  29.4675320
   8.3351300   5.4720530  29.2782400   5.9086630   9.6181730  19.8391810
   5.1348890   9.0779350  19.6790530   6.6381260   9.0988340  19.5009570
  16.6674610   8.6147090  25.6318200  17.3873730   9.1102380  25.2414310
  16.4656430   7.9364980  24.9872070  12.0493410   8.6856150  31.5187200
  11.9830720   7.7651820  31.2644790  11.4198550   8.7831590  32.2331840
  14.8432940   4.3804700  18.0709750  15.7312560   4.6921930  17.8961090
  14.8138030   3.5076950  17.6790330   5.9524030   9.2862110  23.4770620
   6.4702700   8.4830370  23.4227510   5.5008050   9.2241250  24.3187450
  10.8393530  10.5528390  18.7497920  11.1809230  11.2970620  18.2541240
  10.0106240  10.8659510  19.1122750   3.4368570   6.2523480  30.3896320
   3.0783510   6.9177330  30.9769660   3.1423130   5.4207030  30.7608940
   6.6381690   6.7107720  33.2735870   6.3381830   6.8564900  32.3763690
   7.4092930   6.1513010  33.1809260  11.9810140  11.5076720  31.2691000
  11.9954680  10.5757680  31.0509910  11.2735240  11.5936480  31.9080770
  17.1147210   5.6916540  17.5389610  17.0310930   6.1230760  16.6886050
  17.8341400   6.1514890  17.9716430  18.1921350   8.1484060  30.6159580
  17.4669540   8.7412840  30.4188970  18.7196810   8.1407600  29.8172950
  18.1434460  12.5458800  20.2671740  17.5010620  11.8914420  20.5415460
  17.7565120  12.9513890  19.4912410  13.7220940   9.8744230  24.1143430
  14.0744760   9.2772360  23.4544800  12.8383270   9.5488460  24.2851680
   9.8084220  10.6341920  21.5213840  10.4955350  11.1811130  21.9021430
   9.0216640  11.1782650  21.5563450   9.1111430   7.6387950  21.1339200
   9.5674210   8.4493200  21.3599390   8.7599640   7.3211090  21.9657690
  11.4144040  13.1494290  28.3631500  12.0586260  13.3553670  29.0404920
  11.7773480  12.3882690  27.9102350  12.6876120  11.1526640  27.0808950
  13.3298350  10.4519800  27.1941120  13.2125470  11.9325080  26.9005840
  16.5331840  11.4375260  16.8048090  16.3069420  10.7205700  17.3972730
  16.1428040  11.1887700  15.9669840  14.4613740  11.9521540  30.2845010
  14.7969980  12.5388230  30.9622930  13.5414080  11.8214250  30.5142800
   2.3147870  15.4642120  17.5792550   2.6745510  16.0631460  16.9249820
   2.1740210  16.0102010  18.3527580  16.1148090   9.3547200  18.4662250
  15.8269790   9.8159890  19.2540130  16.9100260   8.8944970  18.7346470
   2.2989730  13.7296980  32.0534950   2.4080850  12.7891720  31.9130340
   1.6470290  13.9951730  31.4048680  10.2902320  12.0012870  33.4533070
   9.9699190  11.2822110  33.9978760   9.6160680  12.6767940  33.5269130
   8.3316490  12.8473320  18.3966220   8.3226590  13.5803010  17.7810730
   7.4114850  12.6004900  18.4893180   3.9323130   8.0688210  19.1412980
   3.3251080   8.8087110  19.1508280   4.4072480   8.1587570  18.3151180
  11.3176090  12.9101560  17.0591410  11.4188070  12.7065550  16.1293390
  10.4177830  12.6559840  17.2639190   8.8401980   3.4681920  21.0415310
   8.1318130   3.9368260  21.4828920   9.1246460   2.8103930  21.6760500
  10.4657910   4.8878620  29.0407840  10.9643160   5.3624440  29.7059690
  10.6080860   3.9642140  29.2477870   9.9594200  15.4287880  21.7539080
  10.2135700  15.3909270  20.8318450   9.0106680  15.3021210  21.7467330
   7.0437000   1.7767000  18.4166020   7.8927530   2.2137150  18.3506210
   6.6768270   2.0887260  19.2438080  15.9646780   6.3479760  23.3297590
  15.0236920   6.3629990  23.5045280  16.2790850   5.5615720  23.7757890
   5.9428420   8.0299360  16.8901550   6.7091690   7.9180720  17.4526980
   6.0203110   7.3337330  16.2378320   4.6375180   5.4624430  17.5734440
   4.7178770   4.5151940  17.6851840   5.5294930   5.7931310  17.6795100
  17.9672360  13.5188610  25.0051850  18.0919780  14.3419780  25.4775660
  18.8337920  13.3079340  24.6576000   5.4389890  15.6119820  24.6768980
   6.1752370  15.0635280  24.9477550   5.8230810  16.4775830  24.5374970
   4.4448170  14.7965890  33.8654560   5.2460900  15.1177940  34.2789960
   3.9299990  14.4361470  34.5874470   8.5492200  14.7850130  16.4994550
   9.3420810  15.0738960  16.0476340   8.0296550  14.3542300  15.8207030
  13.2812800  10.9045760  33.8129970  12.6750960  10.9277360  33.0725720
  12.9766910  10.1728800  34.3497220  14.7113170  14.6326050  32.4239380
  15.6634920  14.5484070  32.3739620  14.5641390  15.2967760  33.0973170
  17.6022370  14.0120260  17.9231290  17.3163880  13.5985400  17.1085470
  17.4041920  14.9407970  17.8031810   9.0669600  10.0053540  16.3636900
   8.9620240   9.3905890  17.0898280   8.8993820   9.4819430  15.5799910
   9.2183920   8.6910340  32.3426130   8.4529590   9.2595340  32.2580800
   9.3999880   8.3986550  31.4494360  12.3072330   9.0673570  16.9678890
  11.7582430   9.5142870  17.6121630  12.9291590   8.5622820  17.4916560
  16.3607270  10.4215670  32.9001150  17.1016740  10.7591430  32.3968610
  15.5979950  10.5907730  32.3470920   4.1969060   5.4268940  33.7040680
   4.2374400   5.1282810  34.6125910   5.0514560   5.8276550  33.5448200
   7.9747450   8.0264490  18.8644190   8.3963870   7.8604360  19.7075580
   8.0998290   7.2164720  18.3699330   6.1374870   4.0061040  31.6715170
   5.6071330   3.5151990  31.0438510   6.8062940   4.4345240  31.1373100
  10.4875090   7.0502100  16.1121290  11.0080750   6.3351120  15.7462440
  11.1343490   7.6887970  16.4121800  15.0352930   8.4730500  31.4356360
  15.4493950   8.6275580  32.2846780  14.1003930   8.5985720  31.5982140
  15.5075100   5.8126660  33.4395510  16.0895870   5.0578980  33.3515990
  15.6836870   6.3434100  32.6626990   9.7968160   8.4250980  29.4052290
  10.2156270   9.2683710  29.2328530   8.8776790   8.5623020  29.1759070
  12.1332060   6.1567160  30.7890130  12.2528270   5.5608300  31.5284970
  12.9926060   6.1936850  30.3691430  14.4719960   6.7104350  29.3652640
  13.9455180   7.2346970  28.7617780  14.8151300   7.3431740  29.9962370
   6.8706350   4.0997720  15.8102350   6.6695410   3.2365080  16.1715690
   6.6998400   4.0131080  14.8723950   7.6475580  14.7303990  30.5210020
   7.1096670  15.4550050  30.2018720   7.9009540  14.2534330  29.7307360
   8.9000830   2.6988510  32.0465950   9.4900520   2.3904360  32.7343770
   8.0821070   2.2268260  32.2025850  13.7194260   2.3154320  32.2798970
  13.0309780   1.6535860  32.2148960  14.4400280   1.8692590  32.7247430
  10.5037790  15.9655200  30.7796670  10.4296490  16.8690340  31.0869040
   9.6016630  15.6467100  30.7518740  11.0523120  15.1313710  18.4023030
  11.9473910  15.4698680  18.4241790  11.0840750  14.4093120  17.7747310
   4.6919280  10.5040760  16.6310030   5.1294150  11.0470430  17.2867610
   5.1767010   9.6787710  16.6406370   1.9065080  13.2929790  24.0830290
   2.2368090  12.4250850  23.8508930   2.3356080  13.4988310  24.9135250
   6.5027000  11.6238800  21.7432260   6.2022540  11.5003770  22.6436170
   6.3964490  10.7647390  21.3347990   2.3955290  14.1600380  26.8211920
   1.9586280  14.3401180  27.6536070   2.9632970  14.9175000  26.6793640
  18.0317470  13.6617380  31.1089230  17.4319460  13.7209940  30.3653150
  18.1611370  12.7222360  31.2386080  19.2718920  11.4035200  16.4458940
  18.4411880  11.4711850  16.9166170  19.4490750  12.2939320  16.1425800
  18.7275380   8.1482680  18.9493140  19.4894290   8.7179330  19.0552830
  18.7429750   7.5809880  19.7201450   2.2279720   6.6720610  23.1800800
   1.5728560   6.4032250  22.5360500   3.0657670   6.5625090  22.7302780
  19.7335350   9.0032780  23.7935070  20.1044180   8.2200100  23.3871040
  20.3737280   9.6921880  23.6152370  16.7169110  10.3869360  29.2065390
  15.9028950  10.8166520  29.4691180  17.1243310  10.9987770  28.5934440
  18.7794550   8.4417050  16.1065660  19.0543390   9.3495930  15.9784880
  18.5905290   8.3779580  17.0427650  18.6759890   6.3786040  21.0995090
  18.3003490   5.6113970  20.6676380  17.9463010   6.7608740  21.5870020
   3.2655650   7.0573180  27.7204140   3.6328690   6.9700580  28.6000160
   2.6966470   6.2939730  27.6211000  18.0659510   5.5257560  30.7334610
  17.8345600   5.2970310  29.8332560  18.3264060   6.4457110  30.6879500
   2.8171650   3.9682270  31.6262560   1.9227700   3.9349030  31.9656270
   3.3569200   4.1669060  32.3913810  17.9510850   4.6043530  24.4002330
  18.4748330   4.1106180  23.7692500  18.5370270   4.7393890  25.1449900
  18.1300570   4.6883400  27.9221880  17.1803280   4.6546940  28.0366870
  18.3113580   5.5983510  27.6871650   3.9845010   2.9385080  17.0320510
   4.6936710   2.5168300  16.5467790   3.2684950   3.0060310  16.4003860
  17.4410820   3.8616880  20.3394740  17.9369940   3.6287750  21.1243620
  17.2426890   3.0228720  19.9232380  18.8697980   2.4977830  22.8732420
  18.7597260   2.3433870  23.8114690  19.6305570   1.9698770  22.6307830
  16.7745160  15.1387960  22.7333660  17.3704230  14.8172530  22.0568080
  17.0323310  14.6659780  23.5246930   4.6807730  11.5705870  32.8824290
   4.6377360  11.1998780  33.7638750   4.8118740  12.5083440  33.0226110
   8.3813760  13.1265460  28.4834010   8.1405120  13.3940020  27.5964530
   9.3216400  13.2971190  28.5384870  19.6417920  15.1459840  29.2844650
  19.1476200  15.5428710  28.5671780  19.0331210  14.5209050  29.6781930
   4.5195760  14.5168120  30.0022070   3.9256080  14.3852820  30.7412110
   4.5119600  13.6806260  29.5364170  17.3257370  15.7883260  26.5631390
  16.8660340  16.5399070  26.1889410  16.6969830  15.0689730  26.5046190
   4.1507990  11.8826500  28.9530110   3.4242050  11.2631790  28.8856060
   4.2117140  12.2767110  28.0828190   7.7553090  14.0971500  25.7379520
   8.2718110  13.4858860  25.2127780   8.4050470  14.6000280  26.2290530
  10.4948590  14.9879990  26.5648500  10.7826400  14.7334290  25.6881510
  11.0071810  14.4357350  27.1554070   2.4337990  15.2000890  22.1626870
   2.2660030  14.5671570  22.8608760   1.5672500  15.4060290  21.8121060
   4.0400690  13.8934120  19.6077010   3.5148310  14.2742150  18.9038970
   3.9645270  14.5184890  20.3286720  10.5620950  15.9096090  33.9316700
  11.4888260  15.6740360  33.9752660  10.5471380  16.7368090  33.4502730
  18.7966010  15.4521660  20.9290950  18.9718200  14.7659400  20.2851870
  18.0987580  15.9768710  20.5367620   6.6393660  15.8416500  18.4826260
   7.3712480  15.5575780  17.9350150   6.8987330  15.6029780  19.3725640
   5.8008450  11.9581230  18.4872590   5.1717330  12.4266330  19.0358420
   5.9156280  11.1130450  18.9218780  17.1298510  15.1365950  33.7557740
  17.9223830  14.6415180  33.5483700  17.4231660  15.8156090  34.3633350
  13.2558170   6.0086890   4.6373790  13.1752220   5.0941500   4.3665500
  12.8422590   6.5053960   3.9313500  11.3876210   7.7865910   6.5183060
  10.6118310   7.3066350   6.8081630  12.0389140   7.1071560   6.3439220
   5.4042040   8.0985720   7.3958820   4.5726920   7.8434430   7.7955330
   6.0123020   8.1696490   8.1316740  15.4083640  12.1926100   5.2982190
  14.9465170  11.4213340   5.6269360  16.2209190  12.2192170   5.8034640
   5.3843300  12.1325810   7.5916840   5.6871340  11.2423550   7.4127060
   6.1286890  12.6896030   7.3639090   1.7767000   5.6593260   7.0640910
   2.3483110   4.8915460   7.0644550   1.7768540   5.9582020   6.1547520
  11.6346950  14.4784110   4.9186180  11.0158390  14.9341610   4.3480620
  12.4898730  14.6335570   4.5175880  10.8285200  10.4623100   6.5253220
  10.7593480   9.5213040   6.3642350  11.5905060  10.5524510   7.0975790
  11.8590370   3.2693480   6.7522150  12.2355190   2.3965360   6.6395820
  11.7609880   3.6052180   5.8612590   3.6378540   3.5638120   7.4592180
   4.3188650   3.8276490   8.0779580   3.3226590   2.7238990   7.7930190
   7.8303110   4.6105480   6.5464770   8.3381330   5.1086450   7.1869790
   8.3616350   3.8340680   6.3704130  19.9314040   2.7810670  10.2494120
  19.2266210   3.1692380   9.7309230  20.1971960   3.4760960  10.8515050
  12.5010300   9.3623350   2.3118090  11.8827570   9.8272800   1.7480810
  13.0133550  10.0550830   2.7287600   7.3642060   8.8899220   8.9901690
   7.0311440   9.5168140   9.6322760   7.5408740   9.4161100   8.2103360
  15.8775970   2.7044300   6.4578030  15.1731540   2.9929190   7.0381140
  16.2388130   3.5144410   6.0977590   6.5761160  10.8580020  10.8050870
   7.1935160  11.5331100  10.5235320   5.7154280  11.2668000  10.7138370
  17.4938750  12.3219430   8.7205510  16.8102270  12.9918540   8.7122180
  18.0333040  12.5200080   7.9550370  18.9462890   2.1499090   6.8487240
  17.9987800   2.1838070   6.9802670  19.2712880   2.9638040   7.2336600
  15.0297490  14.1663560   7.4350690  15.0424650  13.7625850   6.5672950
  14.4772710  14.9410850   7.3312120  16.3242910  10.8879780   2.5240860
  16.2139240   9.9454110   2.6490280  16.3211160  11.2495420   3.4103620
  14.4282930   9.0693400   8.7633300  14.8451720   8.8553510   7.9286760
  15.1522750   9.3266190   9.3341920  11.8663190   6.5145100   1.8803350
  10.9392470   6.4482480   2.1091820  12.0188010   7.4525230   1.7658590
  18.3745030   7.4680620   8.8549540  17.5463660   7.5373710   8.3799670
  18.9695510   8.0534930   8.3865370  15.8960480   8.0765400   2.3838600
  15.2772900   7.7384950   1.7364900  15.8784930   7.4325160   3.0917790
  15.3387040   4.2549940   9.8004410  14.9258220   5.0803650  10.0544400
  14.6062990   3.6694980   9.6080770   7.4719830   7.0409840   4.6623080
   7.0676830   6.3287090   4.1668980   7.5582950   6.6963080   5.5511120
   7.9401530  10.7277400   6.8262290   7.6429820  10.1222870   6.1470070
   8.8901350  10.7654710   6.7151650   6.1848450   3.8153050   8.4422120
   6.7363040   3.9248390   7.6675370   6.6991960   4.1890650   9.1577350
  16.0287140  14.3009270  10.4885390  15.5517700  15.1081460  10.2958000
  15.3448930  13.6487600  10.6411600   7.0319960  10.4659090  13.4770090
   6.1348490  10.6899060  13.7243490   7.0572830  10.5894030  12.5281490
   5.8591180   7.3372410  12.0527460   5.7198950   8.2095210  12.4214860
   4.9772540   6.9945220  11.9075400  12.1820560  12.2548280   3.3592590
  12.6216470  12.9972610   2.9447980  12.1207450  12.4974850   4.2831550
   7.6571530  13.2794110  14.2612610   7.6286960  13.6837060  13.3941040
   7.4936500  12.3504470  14.0984210  19.6086350  14.0621210  15.5576780
  20.0846070  14.5404100  16.2365860  20.2293510  13.9938700  14.8322280
   1.8109830   9.1069960   7.9698370   1.8890250   9.2418730   7.0254090
   2.4251510   8.3985850   8.1626490   3.0557460  10.8070150   4.3804550
   2.6485540  10.9484740   3.5258150   3.9470470  10.5230310   4.1775760
  19.0119600  11.2534060  12.7176790  19.1382660  11.0145940  11.7993970
  19.0540980  10.4218600  13.1898870  12.8736340  14.9562060  11.2871600
  13.3881010  14.8670070  12.0894030  12.0305420  15.3021760  11.5799510
   7.3279120  15.0215930   2.4927220   7.1521600  14.1051470   2.2795020
   6.4734860  15.3803220   2.7325020  14.1166800  14.3767670   3.3502090
  14.5723750  13.5957050   3.6640710  14.4559320  15.0874490   3.8943270
  18.8643610   3.3066520  13.6826530  18.2487880   3.8146190  13.1541990
  18.5440030   2.4064850  13.6252470   1.8669350  10.1484130  10.5092830
   2.0300390   9.6789490   9.6912200   2.3321800   9.6407690  11.1741670
  15.9262440   3.3667360  12.2785380  15.0756030   3.0673110  12.5994450
  15.7664230   3.6109370  11.3669200  13.0212150   4.8669110  14.3784170
  13.3465560   4.0332860  14.0386400  13.8092480   5.3897630  14.5262500
   6.4302340   4.4023460   3.2734650   6.2043260   4.1860630   4.1781270
   5.6494870   4.8351920   2.9280620   8.8701550   5.3009040  13.9394920
   8.7745150   4.3603770  13.7895320   9.7133530   5.5224110  13.5442990
  12.2664970   3.0450370   3.9028580  12.6594540   3.3622570   3.0897270
  12.6281820   2.1662250   4.0173100  12.8520110   5.6356120   7.9979360
  12.1201230   6.1442930   8.3469460  12.4544450   4.8186100   7.6968140
   9.2897500   2.3110320   6.4031850   9.2933560   1.8700270   5.5536390
  10.1848620   2.6327650   6.5103670   5.1399880   2.1936810   5.3626060
   4.7999930   2.6712040   6.1193110   4.3777200   1.7401930   5.0027160
   3.4408330   9.5235560  12.6688640   3.0563120   8.8829230  13.2671600
   3.7520520  10.2271680  13.2383370   9.5905470   6.3712100   8.1497260
   9.9575600   5.8970670   8.8958600   9.4010530   7.2453670   8.4905600
   7.3804840   5.4120740  10.4681470   7.0761910   6.2912720  10.6931830
   8.3351300   5.4720530  10.5038910  16.6674610   8.6147090   6.8574710
  17.3873730   9.1102380   6.4670820  16.4656430   7.9364980   6.2128580
  12.0493410   8.6856150  12.7443710  11.9830720   7.7651820  12.4901300
  11.4198550   8.7831590  13.4588350   5.9524030   9.2862110   4.7027130
   6.4702700   8.4830370   4.6484020   5.5008050   9.2241250   5.5443960
   3.4368570   6.2523480  11.6152830   3.0783510   6.9177330  12.2026170
   3.1423130   5.4207030  11.9865450   6.6381690   6.7107720  14.4992380
   6.3381830   6.8564900  13.6020200   7.4092930   6.1513010  14.4065770
  11.9810140  11.5076720  12.4947510  11.9954680  10.5757680  12.2766420
  11.2735240  11.5936480  13.1337280  18.1921350   8.1484060  11.8416090
  17.4669540   8.7412840  11.6445480  18.7196810   8.1407600  11.0429460
  13.7220940   9.8744230   5.3399940  14.0744760   9.2772360   4.6801310
  12.8383270   9.5488460   5.5108190   9.8084220  10.6341920   2.7470350
  10.4955350  11.1811130   3.1277940   9.0216640  11.1782650   2.7819960
   9.1111430   7.6387950   2.3595710   9.5674210   8.4493200   2.5855900
   8.7599640   7.3211090   3.1914200  11.4144040  13.1494290   9.5888010
  12.0586260  13.3553670  10.2661430  11.7773480  12.3882690   9.1358860
  12.6876120  11.1526640   8.3065460  13.3298350  10.4519800   8.4197630
  13.2125470  11.9325080   8.1262350  14.4613740  11.9521540  11.5101520
  14.7969980  12.5388230  12.1879440  13.5414080  11.8214250  11.7399310
   2.2989730  13.7296980  13.2791460   2.4080850  12.7891720  13.1386850
   1.6470290  13.9951730  12.6305190  10.2902320  12.0012870  14.6789580
   9.9699190  11.2822110  15.2235270   9.6160680  12.6767940  14.7525640
   8.8401980   3.4681920   2.2671820   8.1318130   3.9368260   2.7085430
   9.1246460   2.8103930   2.9017010  10.4657910   4.8878620  10.2664350
  10.9643160   5.3624440  10.9316200  10.6080860   3.9642140  10.4734380
   9.9594200  15.4287880   2.9795590  10.2135700  15.3909270   2.0574960
   9.0106680  15.3021210   2.9723840  15.9646780   6.3479760   4.5554100
  15.0236920   6.3629990   4.7301790  16.2790850   5.5615720   5.0014400
  17.9672360  13.5188610   6.2308360  18.0919780  14.3419780   6.7032170
  18.8337920  13.3079340   5.8832510   5.4389890  15.6119820   5.9025490
   6.1752370  15.0635280   6.1734060   5.8230810  16.4775830   5.7631480
   4.4448170  14.7965890  15.0911070   5.2460900  15.1177940  15.5046470
   3.9299990  14.4361470  15.8130980  13.2812800  10.9045760  15.0386480
  12.6750960  10.9277360  14.2982230  12.9766910  10.1728800  15.5753730
  14.7113170  14.6326050  13.6495890  15.6634920  14.5484070  13.5996130
  14.5641390  15.2967760  14.3229680   9.2183920   8.6910340  13.5682640
   8.4529590   9.2595340  13.4837310   9.3999880   8.3986550  12.6750870
  16.3607270  10.4215670  14.1257660  17.1016740  10.7591430  13.6225120
  15.5979950  10.5907730  13.5727430   4.1969060   5.4268940  14.9297190
   4.2374400   5.1282810  15.8382420   5.0514560   5.8276550  14.7704710
   6.1374870   4.0061040  12.8971680   5.6071330   3.5151990  12.2695020
   6.8062940   4.4345240  12.3629610  15.0352930   8.4730500  12.6612870
  15.4493950   8.6275580  13.5103290  14.1003930   8.5985720  12.8238650
  15.5075100   5.8126660  14.6652020  16.0895870   5.0578980  14.5772500
  15.6836870   6.3434100  13.8883500   9.7968160   8.4250980  10.6308800
  10.2156270   9.2683710  10.4585040   8.8776790   8.5623020  10.4015580
  12.1332060   6.1567160  12.0146640  12.2528270   5.5608300  12.7541480
  12.9926060   6.1936850  11.5947940  14.4719960   6.7104350  10.5909150
  13.9455180   7.2346970   9.9874290  14.8151300   7.3431740  11.2218880
   7.6475580  14.7303990  11.7466530   7.1096670  15.4550050  11.4275230
   7.9009540  14.2534330  10.9563870   8.9000830   2.6988510  13.2722460
   9.4900520   2.3904360  13.9600280   8.0821070   2.2268260  13.4282360
  13.7194260   2.3154320  13.5055480  13.0309780   1.6535860  13.4405470
  14.4400280   1.8692590  13.9503940  10.5037790  15.9655200  12.0053180
  10.4296490  16.8690340  12.3125550   9.6016630  15.6467100  11.9775250
   1.9065080  13.2929790   5.3086800   2.2368090  12.4250850   5.0765440
   2.3356080  13.4988310   6.1391760   6.5027000  11.6238800   2.9688770
   6.2022540  11.5003770   3.8692680   6.3964490  10.7647390   2.5604500
   2.3955290  14.1600380   8.0468430   1.9586280  14.3401180   8.8792580
   2.9632970  14.9175000   7.9050150  18.0317470  13.6617380  12.3345740
  17.4319460  13.7209940  11.5909660  18.1611370  12.7222360  12.4642590
   2.2279720   6.6720610   4.4057310   1.5728560   6.4032250   3.7617010
   3.0657670   6.5625090   3.9559290  19.7335350   9.0032780   5.0191580
  20.1044180   8.2200100   4.6127550  20.3737280   9.6921880   4.8408880
  16.7169110  10.3869360  10.4321900  15.9028950  10.8166520  10.6947690
  17.1243310  10.9987770   9.8190950  18.6759890   6.3786040   2.3251600
  18.3003490   5.6113970   1.8932890  17.9463010   6.7608740   2.8126530
   3.2655650   7.0573180   8.9460650   3.6328690   6.9700580   9.8256670
   2.6966470   6.2939730   8.8467510  18.0659510   5.5257560  11.9591120
  17.8345600   5.2970310  11.0589070  18.3264060   6.4457110  11.9136010
   2.8171650   3.9682270  12.8519070   1.9227700   3.9349030  13.1912780
   3.3569200   4.1669060  13.6170320  17.9510850   4.6043530   5.6258840
  18.4748330   4.1106180   4.9949010  18.5370270   4.7393890   6.3706410
  18.1300570   4.6883400   9.1478390  17.1803280   4.6546940   9.2623380
  18.3113580   5.5983510   8.9128160  18.8697980   2.4977830   4.0988930
  18.7597260   2.3433870   5.0371200  19.6305570   1.9698770   3.8564340
  16.7745160  15.1387960   3.9590170  17.3704230  14.8172530   3.2824590
  17.0323310  14.6659780   4.7503440   4.6807730  11.5705870  14.1080800
   4.6377360  11.1998780  14.9895260   4.8118740  12.5083440  14.2482620
   8.3813760  13.1265460   9.7090520   8.1405120  13.3940020   8.8221040
   9.3216400  13.2971190   9.7641380  19.6417920  15.1459840  10.5101160
  19.1476200  15.5428710   9.7928290  19.0331210  14.5209050  10.9038440
   4.5195760  14.5168120  11.2278580   3.9256080  14.3852820  11.9668620
   4.5119600  13.6806260  10.7620680  17.3257370  15.7883260   7.7887900
  16.8660340  16.5399070   7.4145920  16.6969830  15.0689730   7.7302700
   4.1507990  11.8826500  10.1786620   3.4242050  11.2631790  10.1112570
   4.2117140  12.2767110   9.3084700   7.7553090  14.0971500   6.9636030
   8.2718110  13.4858860   6.4384290   8.4050470  14.6000280   7.4547040
  10.4948590  14.9879990   7.7905010  10.7826400  14.7334290   6.9138020
  11.0071810  14.4357350   8.3810580   2.4337990  15.2000890   3.3883380
   2.2660030  14.5671570   4.0865270   1.5672500  15.4060290   3.0377570
  10.5620950  15.9096090  15.1573210  11.4888260  15.6740360  15.2009170
  10.5471380  16.7368090  14.6759240  17.1298510  15.1365950  14.9814250
  17.9223830  14.6415180  14.7740210  17.4231660  15.8156090  15.5889860
 114.9203370  88.4979760  87.6891290  90.0000000  90.0000000  90.0000000
